 Gaussian 16, Revision C.01,
 Gaussian 16:  ES64L-G16RevC.01  3-Jul-2019

 ----------------------------------------------------------------------
 #P wb97xd/6-311++G(d,p) Symm(None) scf(xqc) pop(None) freq opt(CalcFC,
  Tight)
 ----------------------------------------------------------------------

 ------------------------------
 Gaussian input prepared by ASE
 ------------------------------
 Symbolic Z-matrix:
 Charge =  0 Multiplicity = 1

 SCF Done:  E(RwB97XD) =  -724.239944962     A.U. after   14 cycles
 SCF Done:  E(RwB97XD) =  -724.239970822     A.U. after   10 cycles
 SCF Done:  E(RwB97XD) =  -724.239970825     A.U. after    7 cycles
 Optimization completed.
    -- Stationary point found.
 Normal termination of Gaussian 16 at Fri May 23 04:48:03 2025.

 ----------------------------------------------------------------------
 #P Geom=AllCheck Guess=TCheck SCRF=Check GenChk RwB97XD/6-311++G(d,p)
 Freq
 ----------------------------------------------------------------------

 Structure from the checkpoint file:  "1002122340540000000001_well.chk"
 ------------------------------
 Gaussian input prepared by ASE
 ------------------------------
 Charge =  0 Multiplicity = 1

                          Input orientation:
 ---------------------------------------------------------------------
 Center     Atomic      Atomic             Coordinates (Angstroms)
 Number     Number       Type             X           Y           Z
 ---------------------------------------------------------------------
      1         16           0        1.856638   -0.153514    0.392583
      2          8           0        3.277929   -0.067529    0.460482
      3          8           0        1.117710   -1.362115    0.361092
      4          8           0        1.309333    0.766829   -0.777229
      5          9           0        1.308781    0.693897    1.630170
      6          1           0        1.893993    1.523117   -0.917538
 ---------------------------------------------------------------------

 SCF Done:  E(RwB97XD) =  -724.239970825     A.U. after    1 cycles

 Isotropic polarizability for W=    0.000000       29.16 Bohr**3.
 End of Minotr F.D. properties file   721 does not exist.

                      1                      2                      3
                      A                      A                      A
 Frequencies --    292.6932               367.4154               414.2787
 Red. masses --      1.5627                12.6816                 2.7332
 Frc consts  --      0.0789                 1.0087                 0.2764
 IR Inten    --     66.7043                 3.0320                39.8149

                      4                      5                      6
                      A                      A                      A
 Frequencies --    504.0475               522.1725               535.7702
 Red. masses --      7.1893                18.1161                15.3527
 Frc consts  --      1.0762                 2.9103                 2.5965
 IR Inten    --     37.7415                22.2754                43.8832

                      7                      8                      9
                      A                      A                      A
 Frequencies --    779.6889               872.4391              1150.3595
 Red. masses --     19.9540                17.7681                 1.1934
 Frc consts  --      7.1470                 7.9682                 0.9305
 IR Inten    --    222.4905               252.0976                89.1829

                     10                     11                     12
                      A                      A                      A
 Frequencies --   1232.6455              1480.5818              3834.7689
 Red. masses --     16.7469                14.3098                 1.0663
 Frc consts  --     14.9921                18.4820                 9.2386
 IR Inten    --    187.9312               330.5021               164.4951

 - Thermochemistry -
 -------------------
 Temperature   298.150 Kelvin.  Pressure   1.00000 Atm.
 Atom     1 has atomic number 16 and mass  31.97207

 Molecular mass:    99.96304 amu.
 Principal axes and moments of inertia in atomic units:
                           1         2         3
     Eigenvalues --   364.22258 368.33918 373.70670
           X           -0.10220   0.62772   0.77170
           Y            0.33054   0.75312  -0.56882
           Z            0.93824  -0.19695   0.28445
 This molecule is an asymmetric top.
 Rotational symmetry number  1.
 Rotational temperatures (Kelvin)      0.23780     0.23515     0.23177
 Rotational constants (GHZ):           4.95505     4.89967     4.82930
 Zero-point vibrational energy      71697.4 (Joules/Mol)
                                   17.13608 (Kcal/Mol)
 Warning -- explicit consideration of   6 degrees of freedom as
           vibrations may cause significant error
 Vibrational temperatures:    421.12   528.63   596.05   725.21   751.29
          (Kelvin)            770.85  1121.80  1255.25  1655.11  1773.50
                             2130.23  5517.38

 Zero-point correction=                           0.027308 (Hartree/Particle)
 Thermal correction to Energy=                    0.032021
 Thermal correction to Enthalpy=                  0.032965
 Thermal correction to Gibbs Free Energy=        -0.000724
 Sum of electronic and zero-point Energies=           -724.212663
 Sum of electronic and thermal Energies=              -724.207950
 Sum of electronic and thermal Enthalpies=            -724.207005
 Sum of electronic and thermal Free Energies=         -724.240694

                     E (Thermal)             CV                S
                      KCal/Mol        Cal/Mol-Kelvin    Cal/Mol-Kelvin
 Total                   20.094             15.968             70.905
 Electronic               0.000              0.000              0.000
 Translational            0.889              2.981             39.717
 Rotational               0.889              2.981             25.420
 Vibrational             18.316             10.007              5.768
 Vibration     1          0.688              1.687              1.458
 Vibration     2          0.740              1.539              1.091
 Vibration     3          0.778              1.439              0.912
 Vibration     4          0.859              1.241              0.648
 Vibration     5          0.877              1.201              0.605
 Vibration     6          0.891              1.171              0.574

 Optimization completed.
    -- Stationary point found.
 Normal termination of Gaussian 16 at Fri May 23 04:48:14 2025.
