 Gaussian 16, Revision C.01,
 Gaussian 16:  ES64L-G16RevC.01  3-Jul-2019

 ----------------------------------------------------------------------
 #P wb97xd/6-311++G(d,p) Symm(None) scf(xqc) pop(None) freq opt(CalcFC,
  Tight)
 ----------------------------------------------------------------------

 ------------------------------
 Gaussian input prepared by ASE
 ------------------------------
 Symbolic Z-matrix:
 Charge =  0 Multiplicity = 1

 SCF Done:  E(RwB97XD) =  -762.207728314     A.U. after   16 cycles
 SCF Done:  E(RwB97XD) =  -762.207777915     A.U. after   15 cycles
 SCF Done:  E(RwB97XD) =  -762.207778786     A.U. after   13 cycles
 SCF Done:  E(RwB97XD) =  -762.207778809     A.U. after   11 cycles
 SCF Done:  E(RwB97XD) =  -762.207778809     A.U. after    7 cycles
 Optimization completed.
    -- Stationary point found.
 Normal termination of Gaussian 16 at Fri May 23 04:57:05 2025.

 ----------------------------------------------------------------------
 #P Geom=AllCheck Guess=TCheck SCRF=Check GenChk RwB97XD/6-311++G(d,p)
 Freq
 ----------------------------------------------------------------------

 Structure from the checkpoint file:  "1122362641520200000001_well.chk"
 ------------------------------
 Gaussian input prepared by ASE
 ------------------------------
 Charge =  0 Multiplicity = 1

                          Input orientation:
 ---------------------------------------------------------------------
 Center     Atomic      Atomic             Coordinates (Angstroms)
 Number     Number       Type             X           Y           Z
 ---------------------------------------------------------------------
      1          6           0        0.677006    2.174126    0.266429
      2          9           0        0.056131    2.444710   -0.820399
      3         16           0        1.802709    0.715852   -0.103218
      4          8           0        3.136068    1.271841   -0.085726
      5          8           0        1.372975   -0.339719    0.766882
      6          8           0        1.480053    0.233165   -1.613667
      7          1           0        2.122368    0.613635   -2.225530
 ---------------------------------------------------------------------

 SCF Done:  E(RwB97XD) =  -762.207778809     A.U. after    1 cycles

 Isotropic polarizability for W=    0.000000       43.17 Bohr**3.
 End of Minotr F.D. properties file   721 does not exist.

                      1                      2                      3
                      A                      A                      A
 Frequencies --     54.6310               197.0164               245.3860
 Red. masses --     13.1371                 9.8887                 5.6301
 Frc consts  --      0.0231                 0.2261                 0.1997
 IR Inten    --      1.6081                 1.2790                11.2205

                      4                      5                      6
                      A                      A                      A
 Frequencies --    284.8018               336.8745               424.7261
 Red. masses --      1.5808                10.0479                 3.9175
 Frc consts  --      0.0755                 0.6718                 0.4164
 IR Inten    --     65.6041                49.3248                48.0334

                      7                      8                      9
                      A                      A                      A
 Frequencies --    455.9886               573.3538               674.2952
 Red. masses --      9.6210                17.7863                13.3595
 Frc consts  --      1.1786                 3.4449                 3.5788
 IR Inten    --     25.2916                83.6215                42.6712

                     10                     11                     12
                      A                      A                      A
 Frequencies --    848.2770              1095.7713              1182.6623
 Red. masses --     18.8614                 1.1876                16.1278
 Frc consts  --      7.9965                 0.8402                13.2907
 IR Inten    --    173.0499                58.8519               180.2169

                     13                     14                     15
                      A                      A                      A
 Frequencies --   1275.1522              1401.5434              3845.2275
 Red. masses --     13.6563                14.7971                 1.0664
 Frc consts  --     13.0830                17.1254                 9.2900
 IR Inten    --    236.9527               266.5267               155.6789

 - Thermochemistry -
 -------------------
 Temperature   298.150 Kelvin.  Pressure   1.00000 Atm.
 Atom     1 has atomic number  6 and mass  12.00000

 Molecular mass:   111.96304 amu.
 Principal axes and moments of inertia in atomic units:
                           1         2         3
     Eigenvalues --   386.87779 701.04032 716.96250
           X           -0.67473  -0.07069   0.73467
           Y            0.70529   0.23155   0.67003
           Z           -0.21748   0.97025  -0.10638
 This molecule is an asymmetric top.
 Rotational symmetry number  1.
 Rotational temperatures (Kelvin)      0.22388     0.12355     0.12081
 Rotational constants (GHZ):           4.66489     2.57438     2.51720
 Zero-point vibrational energy      77133.5 (Joules/Mol)
                                   18.43534 (Kcal/Mol)
 Warning -- explicit consideration of   8 degrees of freedom as
           vibrations may cause significant error
 Vibrational temperatures:     78.60   283.46   353.06   409.77   484.69
          (Kelvin)            611.09   656.07   824.93   970.16  1220.48
                             1576.57  1701.59  1834.66  2016.51  5532.42

 Zero-point correction=                           0.029379 (Hartree/Particle)
 Thermal correction to Energy=                    0.035882
 Thermal correction to Enthalpy=                  0.036827
 Thermal correction to Gibbs Free Energy=        -0.001629
 Sum of electronic and zero-point Energies=           -762.178400
 Sum of electronic and thermal Energies=              -762.171896
 Sum of electronic and thermal Enthalpies=            -762.170952
 Sum of electronic and thermal Free Energies=         -762.209408

                     E (Thermal)             CV                S
                      KCal/Mol        Cal/Mol-Kelvin    Cal/Mol-Kelvin
 Total                   22.517             20.928             80.937
 Electronic               0.000              0.000              0.000
 Translational            0.889              2.981             40.055
 Rotational               0.889              2.981             26.766
 Vibrational             20.739             14.967             14.115
 Vibration     1          0.596              1.976              4.642
 Vibration     2          0.636              1.844              2.161
 Vibration     3          0.660              1.770              1.763
 Vibration     4          0.683              1.702              1.505
 Vibration     5          0.718              1.602              1.227
 Vibration     6          0.787              1.416              0.876
 Vibration     7          0.814              1.348              0.778
 Vibration     8          0.930              1.089              0.498

 Optimization completed.
    -- Stationary point found.
 Normal termination of Gaussian 16 at Fri May 23 04:57:22 2025.
