 Gaussian 16, Revision C.01,
 Gaussian 16:  ES64L-G16RevC.01  3-Jul-2019

 ----------------------------------------------------------------------
 #P wb97xd/6-311++G(d,p) Symm(None) scf(xqc) pop(None) freq opt(CalcFC,
  Tight)
 ----------------------------------------------------------------------

 ------------------------------
 Gaussian input prepared by ASE
 ------------------------------
 Symbolic Z-matrix:
 Charge =  0 Multiplicity = 2

 SCF Done:  E(UwB97XD) =  -575.366678370     A.U. after   15 cycles
 SCF Done:  E(UwB97XD) =  -575.370768649     A.U. after   13 cycles
 SCF Done:  E(UwB97XD) =  -575.371183721     A.U. after   12 cycles
 SCF Done:  E(UwB97XD) =  -575.371214264     A.U. after   11 cycles
 SCF Done:  E(UwB97XD) =  -575.371214836     A.U. after    9 cycles
 SCF Done:  E(UwB97XD) =  -575.371214848     A.U. after    7 cycles
 Optimization completed.
    -- Stationary point found.
 Normal termination of Gaussian 16 at Fri May 23 02:06:13 2025.

 ----------------------------------------------------------------------
 #P Geom=AllCheck Guess=TCheck SCRF=Check GenChk UwB97XD/6-311++G(d,p)
 Freq
 ----------------------------------------------------------------------

 Structure from the checkpoint file:  "1191793072280000000002_well.chk"
 ------------------------------
 Gaussian input prepared by ASE
 ------------------------------
 Charge =  0 Multiplicity = 2

                          Input orientation:
 ---------------------------------------------------------------------
 Center     Atomic      Atomic             Coordinates (Angstroms)
 Number     Number       Type             X           Y           Z
 ---------------------------------------------------------------------
      1          6           0       -0.732909    0.278248    1.333496
      2          6           0       -0.141980   -0.084525   -0.018080
      3          9           0       -0.463099   -1.285654   -0.447843
      4          9           0       -0.305480    0.831989   -0.947507
      5          9           0       -0.411521   -0.651424    2.228829
      6          9           0       -0.255533    1.454086    1.731899
      7          9           0       -2.069726    0.366102    1.286201
 ---------------------------------------------------------------------

 SCF Done:  E(UwB97XD) =  -575.371214848     A.U. after    1 cycles

 Isotropic polarizability for W=    0.000000       27.00 Bohr**3.
 End of Minotr F.D. properties file   721 does not exist.

                      1                      2                      3
                      A                      A                      A
 Frequencies --     62.2644               212.3073               223.6901
 Red. masses --     18.8984                18.5432                18.1774
 Frc consts  --      0.0432                 0.4925                 0.5359
 IR Inten    --      0.0005                 3.0810                 2.8418

                      4                      5                      6
                      A                      A                      A
 Frequencies --    367.0099               422.4099               517.1062
 Red. masses --     18.6498                18.2145                17.4025
 Frc consts  --      1.4801                 1.9148                 2.7417
 IR Inten    --      0.2838                 0.9662                 5.4503

                      7                      8                      9
                      A                      A                      A
 Frequencies --    589.0692               614.1360               703.0560
 Red. masses --     17.9224                17.1741                14.6027
 Frc consts  --      3.6642                 3.8164                 4.2527
 IR Inten    --      1.2077                11.1038                20.3920

                     10                     11                     12
                      A                      A                      A
 Frequencies --    822.8923              1126.7292              1192.8633
 Red. masses --     16.0650                13.6257                13.3574
 Frc consts  --      6.4094                10.1917                11.1983
 IR Inten    --      3.8993               269.8558               378.9595

                     13                     14                     15
                      A                      A                      A
 Frequencies --   1238.0850              1299.0992              1417.4321
 Red. masses --     13.0228                13.3851                12.7189
 Frc consts  --     11.7613                13.3094                15.0558
 IR Inten    --    261.9745               345.0963                19.2075

 - Thermochemistry -
 -------------------
 Temperature   298.150 Kelvin.  Pressure   1.00000 Atm.
 Atom     1 has atomic number  6 and mass  12.00000

 Molecular mass:   118.99202 amu.
 Principal axes and moments of inertia in atomic units:
                           1         2         3
     Eigenvalues --   479.95348 754.37996 916.46410
           X           -0.17362   0.07225   0.98216
           Y            0.23828   0.97075  -0.02928
           Z            0.95555  -0.22895   0.18576
 This molecule is an asymmetric top.
 Rotational symmetry number  1.
 Warning -- assumption of classical behavior for rotation
           may cause significant error
 Rotational temperatures (Kelvin)      0.18046     0.11481     0.09451
 Rotational constants (GHZ):           3.76024     2.39235     1.96924
 Zero-point vibrational energy      64647.1 (Joules/Mol)
                                   15.45103 (Kcal/Mol)
 Warning -- explicit consideration of   8 degrees of freedom as
           vibrations may cause significant error
 Vibrational temperatures:     89.58   305.46   321.84   528.05   607.75
          (Kelvin)            744.00   847.54   883.60  1011.54  1183.96
                             1621.11  1716.26  1781.33  1869.11  2039.37

 Zero-point correction=                           0.024623 (Hartree/Particle)
 Thermal correction to Energy=                    0.030748
 Thermal correction to Enthalpy=                  0.031692
 Thermal correction to Gibbs Free Energy=        -0.006986
 Sum of electronic and zero-point Energies=           -575.346592
 Sum of electronic and thermal Energies=              -575.340467
 Sum of electronic and thermal Enthalpies=            -575.339523
 Sum of electronic and thermal Free Energies=         -575.378201

                     E (Thermal)             CV                S
                      KCal/Mol        Cal/Mol-Kelvin    Cal/Mol-Kelvin
 Total                   19.295             20.126             81.406
 Electronic               0.000              0.000              1.377
 Translational            0.889              2.981             40.236
 Rotational               0.889              2.981             27.297
 Vibrational             17.517             14.164             12.494
 Vibration     1          0.597              1.972              4.384
 Vibration     2          0.643              1.822              2.024
 Vibration     3          0.649              1.805              1.929
 Vibration     4          0.740              1.540              1.092
 Vibration     5          0.785              1.422              0.884
 Vibration     6          0.872              1.212              0.617
 Vibration     7          0.946              1.055              0.469
 Vibration     8          0.974              1.002              0.426

 Optimization completed.
    -- Stationary point found.
 Normal termination of Gaussian 16 at Fri May 23 02:06:38 2025.
