 Gaussian 16, Revision C.01,
 Gaussian 16:  ES64L-G16RevC.01  3-Jul-2019

 ----------------------------------------------------------------------
 #P wb97xd/6-311++G(d,p) Symm(None) scf(xqc) pop(None) freq opt(CalcFC,
  Tight)
 ----------------------------------------------------------------------

 ------------------------------
 Gaussian input prepared by ASE
 ------------------------------
 Symbolic Z-matrix:
 Charge =  0 Multiplicity = 1

 SCF Done:  E(RwB97XD) =  -576.045533569     A.U. after   12 cycles
 SCF Done:  E(RwB97XD) =  -576.045790987     A.U. after   10 cycles
 SCF Done:  E(RwB97XD) =  -576.045791623     A.U. after    7 cycles
 SCF Done:  E(RwB97XD) =  -576.045791627     A.U. after    5 cycles
 Optimization completed.
    -- Stationary point found.
 Normal termination of Gaussian 16 at Fri May 23 04:34:41 2025.

 ----------------------------------------------------------------------
 #P Geom=AllCheck Guess=TCheck SCRF=Check GenChk RwB97XD/6-311++G(d,p)
 Freq
 ----------------------------------------------------------------------

 Structure from the checkpoint file:  "1201923602880000000001_well.chk"
 ------------------------------
 Gaussian input prepared by ASE
 ------------------------------
 Charge =  0 Multiplicity = 1

                          Input orientation:
 ---------------------------------------------------------------------
 Center     Atomic      Atomic             Coordinates (Angstroms)
 Number     Number       Type             X           Y           Z
 ---------------------------------------------------------------------
      1          6           0       -1.695480    0.012872    0.979165
      2          6           0       -1.025509    0.323279   -0.371633
      3          9           0       -0.192981   -0.685455   -0.691121
      4          9           0       -1.975141    0.420200   -1.321124
      5          9           0       -2.384066   -1.121118    0.939270
      6          9           0       -0.761918   -0.084299    1.928544
      7          9           0       -2.523953    1.007577    1.305457
      8          1           0       -0.464264    1.259197   -0.316664
 ---------------------------------------------------------------------

 SCF Done:  E(RwB97XD) =  -576.045791627     A.U. after    1 cycles

 Isotropic polarizability for W=    0.000000       27.84 Bohr**3.
 End of Minotr F.D. properties file   721 does not exist.

                      1                      2                      3
                      A                      A                      A
 Frequencies --     73.3389               214.1916               246.8032
 Red. masses --     13.4151                18.6196                14.4037
 Frc consts  --      0.0425                 0.5033                 0.5169
 IR Inten    --      0.9776                 2.6170                 4.1696

                      4                      5                      6
                      A                      A                      A
 Frequencies --    363.4476               417.9068               525.5645
 Red. masses --     17.7427                15.3444                15.1230
 Frc consts  --      1.3809                 1.5789                 2.4612
 IR Inten    --      0.0676                 1.0212                 8.5101

                      7                      8                      9
                      A                      A                      A
 Frequencies --    583.9666               585.9466               729.4673
 Red. masses --      9.9744                16.4440                12.2136
 Frc consts  --      2.0041                 3.3264                 3.8292
 IR Inten    --     15.7315                 0.5962                38.2555

                     10                     11                     12
                      A                      A                      A
 Frequencies --    871.9915              1151.5240              1154.1152
 Red. masses --      6.0866                 8.0579                 5.9068
 Frc consts  --      2.7268                 6.2953                 4.6355
 IR Inten    --     49.5558               173.5783               119.8277

                     13                     14                     15
                      A                      A                      A
 Frequencies --   1203.3719              1221.9965              1318.8076
 Red. masses --      4.7148                13.1529                 3.4176
 Frc consts  --      4.0227                11.5721                 3.5021
 IR Inten    --    209.6651               438.7584               180.6980

                     16                     17                     18
                      A                      A                      A
 Frequencies --   1383.0564              1452.0785              3119.8505
 Red. masses --      1.1996                 2.2218                 1.0885
 Frc consts  --      1.3520                 2.7602                 6.2422
 IR Inten    --      8.6449                 0.9252                17.6385

 - Thermochemistry -
 -------------------
 Temperature   298.150 Kelvin.  Pressure   1.00000 Atm.
 Atom     1 has atomic number  6 and mass  12.00000

 Molecular mass:   119.99984 amu.
 Principal axes and moments of inertia in atomic units:
                           1         2         3
     Eigenvalues --   489.35109 751.42001 905.28055
           X           -0.30108   0.81385   0.49700
           Y            0.05693  -0.50491   0.86129
           Z            0.95190   0.28761   0.10568
 This molecule is an asymmetric top.
 Rotational symmetry number  1.
 Warning -- assumption of classical behavior for rotation
           may cause significant error
 Rotational temperatures (Kelvin)      0.17700     0.11527     0.09568
 Rotational constants (GHZ):           3.68803     2.40177     1.99357
 Zero-point vibrational energy      99394.3 (Joules/Mol)
                                   23.75580 (Kcal/Mol)
 Warning -- explicit consideration of   8 degrees of freedom as
           vibrations may cause significant error
 Vibrational temperatures:    105.52   308.17   355.09   522.92   601.27
          (Kelvin)            756.17   840.20   843.05  1049.54  1254.60
                             1656.79  1660.51  1731.38  1758.18  1897.47
                             1989.91  2089.22  4488.77

 Zero-point correction=                           0.037857 (Hartree/Particle)
 Thermal correction to Energy=                    0.043946
 Thermal correction to Enthalpy=                  0.044891
 Thermal correction to Gibbs Free Energy=         0.007066
 Sum of electronic and zero-point Energies=           -576.007934
 Sum of electronic and thermal Energies=              -576.001845
 Sum of electronic and thermal Enthalpies=            -576.000901
 Sum of electronic and thermal Free Energies=         -576.038725

                     E (Thermal)             CV                S
                      KCal/Mol        Cal/Mol-Kelvin    Cal/Mol-Kelvin
 Total                   27.577             20.338             79.608
 Electronic               0.000              0.000              0.000
 Translational            0.889              2.981             40.261
 Rotational               0.889              2.981             27.301
 Vibrational             25.799             14.376             12.046
 Vibration     1          0.599              1.967              4.062
 Vibration     2          0.644              1.819              2.008
 Vibration     3          0.661              1.768              1.753
 Vibration     4          0.737              1.548              1.107
 Vibration     5          0.781              1.431              0.899
 Vibration     6          0.881              1.193              0.597
 Vibration     7          0.941              1.066              0.478
 Vibration     8          0.943              1.062              0.474

 Optimization completed.
    -- Stationary point found.
 Normal termination of Gaussian 16 at Fri May 23 04:35:03 2025.
