 Gaussian 16, Revision C.01,
 Gaussian 16:  ES64L-G16RevC.01  3-Jul-2019

 ----------------------------------------------------------------------
 #P wb97xd/6-311++G(d,p) Symm(None) scf(xqc) pop(None) freq opt(CalcFC,
  Tight)
 ----------------------------------------------------------------------

 ------------------------------
 Gaussian input prepared by ASE
 ------------------------------
 Symbolic Z-matrix:
 Charge =  0 Multiplicity = 2

 SCF Done:  E(UwB97XD) =  -862.104800783     A.U. after   18 cycles
 SCF Done:  E(UwB97XD) =  -862.109436764     A.U. after   16 cycles
 SCF Done:  E(UwB97XD) =  -862.110241448     A.U. after   15 cycles
 SCF Done:  E(UwB97XD) =  -862.110323036     A.U. after   13 cycles
 SCF Done:  E(UwB97XD) =  -862.110325793     A.U. after   12 cycles
 SCF Done:  E(UwB97XD) =  -862.110325895     A.U. after   10 cycles
 SCF Done:  E(UwB97XD) =  -862.110325896     A.U. after    6 cycles
 Optimization completed.
    -- Stationary point found.
 Normal termination of Gaussian 16 at Fri May 23 02:06:17 2025.

 ----------------------------------------------------------------------
 #P Geom=AllCheck Guess=TCheck SCRF=Check GenChk UwB97XD/6-311++G(d,p)
 Freq
 ----------------------------------------------------------------------

 Structure from the checkpoint file:  "1312673532570400000002_well.chk"
 ------------------------------
 Gaussian input prepared by ASE
 ------------------------------
 Charge =  0 Multiplicity = 2

                          Input orientation:
 ---------------------------------------------------------------------
 Center     Atomic      Atomic             Coordinates (Angstroms)
 Number     Number       Type             X           Y           Z
 ---------------------------------------------------------------------
      1          6           0        0.004624    0.010812   -0.147487
      2          9           0       -0.484746   -1.196367   -0.001508
      3          9           0       -0.538948    0.638900   -1.161184
      4         16           0        1.830170    0.056137   -0.119230
      5          8           0        2.228149   -0.596906    1.096394
      6          8           0        2.347656   -0.287265   -1.408871
      7          8           0        2.032997    1.638646    0.042084
      8          1           0        2.047057    1.876853    0.977860
 ---------------------------------------------------------------------

 SCF Done:  E(UwB97XD) =  -862.110325896     A.U. after    1 cycles

 Isotropic polarizability for W=    0.000000       42.27 Bohr**3.
 End of Minotr F.D. properties file   721 does not exist.

                      1                      2                      3
                      A                      A                      A
 Frequencies --     55.0602               189.3970               191.6694
 Red. masses --     15.0473                11.5091                 6.9965
 Frc consts  --      0.0269                 0.2432                 0.1514
 IR Inten    --      0.7218                 5.1434                15.5094

                      4                      5                      6
                      A                      A                      A
 Frequencies --    301.6375               323.6567               372.2372
 Red. masses --      2.3180                 4.1149                 4.3734
 Frc consts  --      0.1243                 0.2540                 0.3570
 IR Inten    --     40.5100                32.3993                19.8740

                      7                      8                      9
                      A                      A                      A
 Frequencies --    441.6835               501.4103               570.4172
 Red. masses --      4.6811                14.0447                18.5398
 Frc consts  --      0.5380                 2.0804                 3.5542
 IR Inten    --     33.8799                16.6732                85.9459

                     10                     11                     12
                      A                      A                      A
 Frequencies --    606.5791               699.0261               838.5714
 Red. masses --     12.3092                16.1846                17.7388
 Frc consts  --      2.6684                 4.6595                 7.3495
 IR Inten    --     39.0478                12.3735               244.0891

                     13                     14                     15
                      A                      A                      A
 Frequencies --   1125.3659              1178.2398              1271.4375
 Red. masses --      1.1864                17.0214                14.2549
 Frc consts  --      0.8853                13.9223                13.5770
 IR Inten    --     80.8694               199.0211                78.9005

                     16                     17                     18
                      A                      A                      A
 Frequencies --   1283.1974              1427.0136              3839.2040
 Red. masses --     13.3462                14.2264                 1.0663
 Frc consts  --     12.9478                17.0687                 9.2603
 IR Inten    --    263.9409               294.4136               156.2756

 - Thermochemistry -
 -------------------
 Temperature   298.150 Kelvin.  Pressure   1.00000 Atm.
 Atom     1 has atomic number  6 and mass  12.00000

 Molecular mass:   130.96145 amu.
 Principal axes and moments of inertia in atomic units:
                           1         2         3
     Eigenvalues --   527.51448 906.780871062.03066
           X            0.95985  -0.06552  -0.27275
           Y            0.20386   0.83085   0.51782
           Z            0.19269  -0.55263   0.81085
 This molecule is an asymmetric top.
 Rotational symmetry number  1.
 Warning -- assumption of classical behavior for rotation
           may cause significant error
 Rotational temperatures (Kelvin)      0.16419     0.09552     0.08156
 Rotational constants (GHZ):           3.42122     1.99027     1.69933
 Zero-point vibrational energy      91010.7 (Joules/Mol)
                                   21.75208 (Kcal/Mol)
 Warning -- explicit consideration of  10 degrees of freedom as
           vibrations may cause significant error
 Vibrational temperatures:     79.22   272.50   275.77   433.99   465.67
          (Kelvin)            535.57   635.48   721.42   820.70   872.73
                             1005.74  1206.52  1619.15  1695.22  1829.32
                             1846.23  2053.15  5523.76

 Zero-point correction=                           0.034664 (Hartree/Particle)
 Thermal correction to Energy=                    0.041700
 Thermal correction to Enthalpy=                  0.042644
 Thermal correction to Gibbs Free Energy=         0.002000
 Sum of electronic and zero-point Energies=           -862.075662
 Sum of electronic and thermal Energies=              -862.068626
 Sum of electronic and thermal Enthalpies=            -862.067682
 Sum of electronic and thermal Free Energies=         -862.108326

                     E (Thermal)             CV                S
                      KCal/Mol        Cal/Mol-Kelvin    Cal/Mol-Kelvin
 Total                   26.167             23.525             85.543
 Electronic               0.000              0.000              1.377
 Translational            0.889              2.981             40.522
 Rotational               0.889              2.981             27.721
 Vibrational             24.390             17.563             15.923
 Vibration     1          0.596              1.976              4.627
 Vibration     2          0.633              1.854              2.234
 Vibration     3          0.634              1.851              2.212
 Vibration     4          0.694              1.671              1.408
 Vibration     5          0.708              1.628              1.292
 Vibration     6          0.744              1.529              1.071
 Vibration     7          0.801              1.379              0.821
 Vibration     8          0.857              1.247              0.655
 Vibration     9          0.927              1.095              0.503
 Vibration    10          0.965              1.018              0.438

 Optimization completed.
    -- Stationary point found.
 Normal termination of Gaussian 16 at Fri May 23 02:06:54 2025.
