 Gaussian 16, Revision C.01,
 Gaussian 16:  ES64L-G16RevC.01  3-Jul-2019

 ----------------------------------------------------------------------
 #P wb97xd/6-311++G(d,p) Symm(None) scf(xqc) pop(None) freq opt(CalcFC,
  Tight)
 ----------------------------------------------------------------------

 ------------------------------
 Gaussian input prepared by ASE
 ------------------------------
 Symbolic Z-matrix:
 Charge =  0 Multiplicity = 1

 SCF Done:  E(RwB97XD) =  -962.066828438     A.U. after   14 cycles
 SCF Done:  E(RwB97XD) =  -962.066115461     A.U. after   15 cycles
 SCF Done:  E(RwB97XD) =  -962.067153490     A.U. after   13 cycles
 SCF Done:  E(RwB97XD) =  -962.067190049     A.U. after   11 cycles
 SCF Done:  E(RwB97XD) =  -962.067199341     A.U. after   11 cycles
 SCF Done:  E(RwB97XD) =  -962.067201048     A.U. after   10 cycles
 SCF Done:  E(RwB97XD) =  -962.067202250     A.U. after    9 cycles
 SCF Done:  E(RwB97XD) =  -962.067202252     A.U. after    7 cycles
 SCF Done:  E(RwB97XD) =  -962.067202252     A.U. after    5 cycles
 Optimization completed.
    -- Stationary point found.
 Normal termination of Gaussian 16 at Fri May 23 05:24:05 2025.

 ----------------------------------------------------------------------
 #P Geom=AllCheck Guess=TCheck SCRF=Check GenChk RwB97XD/6-311++G(d,p)
 Freq
 ----------------------------------------------------------------------

 Structure from the checkpoint file:  "1502823922432230600001_well.chk"
 ------------------------------
 Gaussian input prepared by ASE
 ------------------------------
 Charge =  0 Multiplicity = 1

                          Input orientation:
 ---------------------------------------------------------------------
 Center     Atomic      Atomic             Coordinates (Angstroms)
 Number     Number       Type             X           Y           Z
 ---------------------------------------------------------------------
      1          6           0       -1.330644    0.252437    0.703324
      2         16           0        1.154257    1.145531    0.362667
      3          8           0       -0.562403    1.357314    0.630832
      4          8           0        1.705953    2.237709    1.128294
      5          8           0        1.125817    1.559668   -1.197130
      6          9           0       -2.585925    0.623054    0.895951
      7          9           0       -1.268828   -0.483446   -0.416392
      8          9           0       -0.961288   -0.548907    1.713793
      9          1           0        0.890536    2.492241   -1.314252
 ---------------------------------------------------------------------

 SCF Done:  E(RwB97XD) =  -962.067202252     A.U. after    1 cycles

 Isotropic polarizability for W=    0.000000       45.30 Bohr**3.
 End of Minotr F.D. properties file   721 does not exist.

                      1                      2                      3
                      A                      A                      A
 Frequencies --     31.8164                56.4860               150.2245
 Red. masses --     11.8778                14.2198                17.4456
 Frc consts  --      0.0071                 0.0267                 0.2320
 IR Inten    --      1.0427                 0.4122                 1.2750

                      4                      5                      6
                      A                      A                      A
 Frequencies --    233.5932               301.0538               338.4159
 Red. masses --      1.9400                15.1207                 3.6965
 Frc consts  --      0.0624                 0.8074                 0.2494
 IR Inten    --     38.5415                11.6473                11.8495

                      7                      8                      9
                      A                      A                      A
 Frequencies --    428.8890               463.7656               484.7634
 Red. masses --      8.7406                10.2743                 3.7211
 Frc consts  --      0.9473                 1.3020                 0.5152
 IR Inten    --     44.5367                13.6231               140.8949

                     10                     11                     12
                      A                      A                      A
 Frequencies --    531.1935               625.6128               675.9625
 Red. masses --     14.6276                17.1439                15.5950
 Frc consts  --      2.4318                 3.9534                 4.1984
 IR Inten    --    111.2100                 5.9192                 0.1590

                     13                     14                     15
                      A                      A                      A
 Frequencies --    714.1933               804.8334               938.5293
 Red. masses --     17.3092                14.2604                16.9733
 Frc consts  --      5.2019                 5.4424                 8.8087
 IR Inten    --    150.0742               207.9448                19.3001

                     16                     17                     18
                      A                      A                      A
 Frequencies --   1106.2288              1182.1314              1236.6759
 Red. masses --      1.3123                12.5462                 9.2398
 Frc consts  --      0.9462                10.3299                 8.3258
 IR Inten    --    106.0629               374.2599               557.7281

                     19                     20                     21
                      A                      A                      A
 Frequencies --   1267.4251              1309.9252              3786.7076
 Red. masses --     11.4658                14.1448                 1.0654
 Frc consts  --     10.8517                14.3001                 9.0010
 IR Inten    --    673.2810               172.5261               120.9956

 - Thermochemistry -
 -------------------
 Temperature   298.150 Kelvin.  Pressure   1.00000 Atm.
 Atom     1 has atomic number  6 and mass  12.00000

 Molecular mass:   149.95985 amu.
 Principal axes and moments of inertia in atomic units:
                           1         2         3
     Eigenvalues --   525.388051560.388841714.02976
           X            0.86935   0.12546  -0.47801
           Y            0.46221   0.13597   0.87629
           Z           -0.17493   0.98274  -0.06022
 This molecule is an asymmetric top.
 Rotational symmetry number  1.
 Warning -- assumption of classical behavior for rotation
           may cause significant error
 Rotational temperatures (Kelvin)      0.16486     0.05551     0.05053
 Rotational constants (GHZ):           3.43506     1.15660     1.05292
 Zero-point vibrational energy      99699.3 (Joules/Mol)
                                   23.82871 (Kcal/Mol)
 Warning -- explicit consideration of  10 degrees of freedom as
           vibrations may cause significant error
 Vibrational temperatures:     45.78    81.27   216.14   336.09   433.15
          (Kelvin)            486.90   617.08   667.26   697.47   764.27
                              900.12   972.56  1027.56  1157.98  1350.33
                             1591.62  1700.82  1779.30  1823.54  1884.69
                             5448.23

 Zero-point correction=                           0.037973 (Hartree/Particle)
 Thermal correction to Energy=                    0.045999
 Thermal correction to Enthalpy=                  0.046944
 Thermal correction to Gibbs Free Energy=         0.003444
 Sum of electronic and zero-point Energies=           -962.029229
 Sum of electronic and thermal Energies=              -962.021203
 Sum of electronic and thermal Enthalpies=            -962.020259
 Sum of electronic and thermal Free Energies=         -962.063758

                     E (Thermal)             CV                S
                      KCal/Mol        Cal/Mol-Kelvin    Cal/Mol-Kelvin
 Total                   28.865             26.815             91.552
 Electronic               0.000              0.000              0.000
 Translational            0.889              2.981             40.926
 Rotational               0.889              2.981             28.732
 Vibrational             27.088             20.853             21.894
 Vibration     1          0.594              1.983              5.713
 Vibration     2          0.596              1.975              4.576
 Vibration     3          0.618              1.902              2.669
 Vibration     4          0.654              1.790              1.851
 Vibration     5          0.693              1.672              1.411
 Vibration     6          0.719              1.599              1.220
 Vibration     7          0.790              1.407              0.862
 Vibration     8          0.821              1.330              0.755
 Vibration     9          0.841              1.284              0.697
 Vibration    10          0.886              1.181              0.585

 Optimization completed.
    -- Stationary point found.
 Normal termination of Gaussian 16 at Fri May 23 05:24:38 2025.
