 Gaussian 16, Revision C.01,
 Gaussian 16:  ES64L-G16RevC.01  3-Jul-2019

 ----------------------------------------------------------------------
 #P wb97xd/6-311++G(d,p) Symm(None) scf(xqc) pop(None) freq opt(CalcFC,
  Tight)
 ----------------------------------------------------------------------

 ------------------------------
 Gaussian input prepared by ASE
 ------------------------------
 Symbolic Z-matrix:
 Charge =  0 Multiplicity = 1

 SCF Done:  E(RwB97XD) =  -962.033288857     A.U. after   14 cycles
 SCF Done:  E(RwB97XD) =  -962.033321745     A.U. after   10 cycles
 SCF Done:  E(RwB97XD) =  -962.033321747     A.U. after    5 cycles
 Optimization completed.
    -- Stationary point found.
 Normal termination of Gaussian 16 at Fri May 23 04:48:20 2025.

 ----------------------------------------------------------------------
 #P Geom=AllCheck Guess=TCheck SCRF=Check GenChk RwB97XD/6-311++G(d,p)
 Freq
 ----------------------------------------------------------------------

 Structure from the checkpoint file:  "1502984803620600000001_well.chk"
 ------------------------------
 Gaussian input prepared by ASE
 ------------------------------
 Charge =  0 Multiplicity = 1

                          Input orientation:
 ---------------------------------------------------------------------
 Center     Atomic      Atomic             Coordinates (Angstroms)
 Number     Number       Type             X           Y           Z
 ---------------------------------------------------------------------
      1          6           0        0.332011   -0.083611   -0.088982
      2          9           0       -0.180676   -0.469503   -1.251869
      3          9           0       -0.222065    1.055955    0.278057
      4         16           0        2.180223    0.125095   -0.276351
      5          8           0        2.659531    0.788633    0.892840
      6          8           0        2.695309   -1.125901   -0.758089
      7          8           0        2.195285    1.195419   -1.470934
      8          9           0        0.100852   -1.009192    0.824149
      9          1           0        2.240097    0.742745   -2.323288
 ---------------------------------------------------------------------

 SCF Done:  E(RwB97XD) =  -962.033321747     A.U. after    1 cycles

 Isotropic polarizability for W=    0.000000       43.28 Bohr**3.
 End of Minotr F.D. properties file   721 does not exist.

                      1                      2                      3
                      A                      A                      A
 Frequencies --     55.3512               185.9125               194.7974
 Red. masses --     13.5926                 6.7654                16.2752
 Frc consts  --      0.0245                 0.1378                 0.3639
 IR Inten    --      1.2616                10.4107                 3.8701

                      4                      5                      6
                      A                      A                      A
 Frequencies --    299.3075               309.1404               332.7389
 Red. masses --     11.5721                 2.6706                14.1563
 Frc consts  --      0.6108                 0.1504                 0.9234
 IR Inten    --      0.6916                40.3050                 1.5785

                      7                      8                      9
                      A                      A                      A
 Frequencies --    362.1254               455.9044               488.2435
 Red. masses --      2.3180                 4.3146                14.4359
 Frc consts  --      0.1791                 0.5284                 2.0275
 IR Inten    --     47.7613                33.1570                23.6362

                     10                     11                     12
                      A                      A                      A
 Frequencies --    565.2005               567.6947               610.1085
 Red. masses --     17.0159                15.7505                20.3706
 Frc consts  --      3.2027                 2.9907                 4.4675
 IR Inten    --      0.4863                 1.1805               156.9865

                     13                     14                     15
                      A                      A                      A
 Frequencies --    773.6410               836.3346              1126.1829
 Red. masses --     17.2023                18.3130                 1.1969
 Frc consts  --      6.0662                 7.5469                 0.8944
 IR Inten    --     22.8540               214.9722                80.8572

                     16                     17                     18
                      A                      A                      A
 Frequencies --   1144.6766              1229.7865              1250.8753
 Red. masses --     13.5985                13.4593                14.0597
 Frc consts  --     10.4980                11.9931                12.9614
 IR Inten    --    309.2639               145.5406               106.9116

                     19                     20                     21
                      A                      A                      A
 Frequencies --   1258.2924              1443.0334              3835.2301
 Red. masses --     13.6446                14.2856                 1.0663
 Frc consts  --     12.7284                17.5267                 9.2410
 IR Inten    --    332.7756               309.4993               160.9543

 - Thermochemistry -
 -------------------
 Temperature   298.150 Kelvin.  Pressure   1.00000 Atm.
 Atom     1 has atomic number  6 and mass  12.00000

 Molecular mass:   149.95985 amu.
 Principal axes and moments of inertia in atomic units:
                           1         2         3
     Eigenvalues --   684.921681159.531771165.72077
           X            0.97602   0.10668  -0.18974
           Y            0.15370   0.27949   0.94777
           Z           -0.15414   0.95420  -0.25639
 This molecule is an asymmetric top.
 Rotational symmetry number  1.
 Warning -- assumption of classical behavior for rotation
           may cause significant error
 Rotational temperatures (Kelvin)      0.12646     0.07470     0.07430
 Rotational constants (GHZ):           2.63496     1.55644     1.54818
 Zero-point vibrational energy     103624.0 (Joules/Mol)
                                   24.76673 (Kcal/Mol)
 Warning -- explicit consideration of  12 degrees of freedom as
           vibrations may cause significant error
 Vibrational temperatures:     79.64   267.49   280.27   430.64   444.78
          (Kelvin)            478.74   521.02   655.94   702.47   813.20
                              816.79   877.81  1113.10  1203.30  1620.33
                             1646.93  1769.39  1799.73  1810.40  2076.20
                             5518.04

 Zero-point correction=                           0.039468 (Hartree/Particle)
 Thermal correction to Energy=                    0.047087
 Thermal correction to Enthalpy=                  0.048031
 Thermal correction to Gibbs Free Energy=         0.006688
 Sum of electronic and zero-point Energies=           -961.993853
 Sum of electronic and thermal Energies=              -961.986235
 Sum of electronic and thermal Enthalpies=            -961.985291
 Sum of electronic and thermal Free Energies=         -962.026633

                     E (Thermal)             CV                S
                      KCal/Mol        Cal/Mol-Kelvin    Cal/Mol-Kelvin
 Total                   29.547             26.388             87.013
 Electronic               0.000              0.000              0.000
 Translational            0.889              2.981             40.926
 Rotational               0.889              2.981             28.317
 Vibrational             27.770             20.427             17.770
 Vibration     1          0.596              1.975              4.616
 Vibration     2          0.632              1.859              2.268
 Vibration     3          0.635              1.847              2.182
 Vibration     4          0.692              1.675              1.421
 Vibration     5          0.698              1.656              1.367
 Vibration     6          0.715              1.610              1.247
 Vibration     7          0.736              1.550              1.113
 Vibration     8          0.814              1.348              0.778
 Vibration     9          0.844              1.276              0.688
 Vibration    10          0.921              1.107              0.514
 Vibration    11          0.924              1.101              0.509
 Vibration    12          0.969              1.010              0.433

 Optimization completed.
    -- Stationary point found.
 Normal termination of Gaussian 16 at Fri May 23 04:48:58 2025.
