 Gaussian 16, Revision C.01,
 Gaussian 16:  ES64L-G16RevC.01  3-Jul-2019

 ------------------------------------------------------------------
 #P wb97xd/6-311++G(d,p) scf(xqc) pop(None) freq opt(CalcFC, Tight)
 ------------------------------------------------------------------

 ------------------------------
 Gaussian input prepared by ASE
 ------------------------------
 Symbolic Z-matrix:
 Charge =  0 Multiplicity = 2

 SCF Done:  E(UwB97XD) =  -75.7343532875     A.U. after   11 cycles
 SCF Done:  E(UwB97XD) =  -75.7343712526     A.U. after    8 cycles
 SCF Done:  E(UwB97XD) =  -75.7343712564     A.U. after    6 cycles
 Optimization completed.
    -- Stationary point found.
 Normal termination of Gaussian 16 at Fri May 23 02:05:50 2025.

 ----------------------------------------------------------------------
 #P Geom=AllCheck Guess=TCheck SCRF=Check GenChk UwB97XD/6-311++G(d,p)
 Freq
 ----------------------------------------------------------------------

 Structure from the checkpoint file:  "170170000000000000002_well.chk"
 ------------------------------
 Gaussian input prepared by ASE
 ------------------------------
 Charge =  0 Multiplicity = 2

                         Standard orientation:
 ---------------------------------------------------------------------
 Center     Atomic      Atomic             Coordinates (Angstroms)
 Number     Number       Type             X           Y           Z
 ---------------------------------------------------------------------
      1          8           0       -0.000000    0.000000    0.107867
      2          1           0        0.000000   -0.000000   -0.862937
 ---------------------------------------------------------------------

 SCF Done:  E(UwB97XD) =  -75.7343712564     A.U. after    1 cycles

 Isotropic polarizability for W=    0.000000        4.95 Bohr**3.
 End of Minotr F.D. properties file   721 does not exist.

                      1
                     SG
 Frequencies --   3790.6767
 Red. masses --      1.0671
 Frc consts  --      9.0341
 IR Inten    --     16.4215

 - Thermochemistry -
 -------------------
 Temperature   298.150 Kelvin.  Pressure   1.00000 Atm.
 Atom     1 has atomic number  8 and mass  15.99491

 Molecular mass:    17.00274 amu.
 Principal axes and moments of inertia in atomic units:
                           1         2         3
     Eigenvalues --     0.00000   3.19087   3.19087
           X           -0.00000   0.49467   0.86908
           Y           -0.00000   0.86908  -0.49467
           Z            1.00000   0.00000   0.00000
 This molecule is a prolate symmetric top.
 Rotational symmetry number  1.
 Rotational temperature (Kelvin)     27.14429
 Rotational constant (GHZ):         565.595154
 Zero-point vibrational energy      22673.3 (Joules/Mol)
                                    5.41904 (Kcal/Mol)
 Vibrational temperatures:   5453.94
          (Kelvin)

 Zero-point correction=                           0.008636 (Hartree/Particle)
 Thermal correction to Energy=                    0.010996
 Thermal correction to Enthalpy=                  0.011940
 Thermal correction to Gibbs Free Energy=        -0.008283
 Sum of electronic and zero-point Energies=            -75.725735
 Sum of electronic and thermal Energies=               -75.723375
 Sum of electronic and thermal Enthalpies=             -75.722431
 Sum of electronic and thermal Free Energies=          -75.742654

                     E (Thermal)             CV                S
                      KCal/Mol        Cal/Mol-Kelvin    Cal/Mol-Kelvin
 Total                    6.900              4.968             42.563
 Electronic               0.000              0.000              1.377
 Translational            0.889              2.981             34.437
 Rotational               0.592              1.987              6.749
 Vibrational              5.419              0.000              0.000

 Optimization completed.
    -- Stationary point found.
 Normal termination of Gaussian 16 at Fri May 23 02:05:52 2025.
