 Gaussian 16, Revision C.01,
 Gaussian 16:  ES64L-G16RevC.01  3-Jul-2019

 ----------------------------------------------------------------------
 #P wb97xd/6-311++G(d,p) Symm(None) scf(xqc) pop(None) freq opt(CalcFC,
  Tight)
 ----------------------------------------------------------------------

 ------------------------------
 Gaussian input prepared by ASE
 ------------------------------
 Symbolic Z-matrix:
 Charge =  0 Multiplicity = 2

 SCF Done:  E(UwB97XD) =  -1099.89819027     A.U. after   16 cycles
 SCF Done:  E(UwB97XD) =  -1099.90205489     A.U. after   14 cycles
 SCF Done:  E(UwB97XD) =  -1099.90230867     A.U. after   14 cycles
 SCF Done:  E(UwB97XD) =  -1099.90202750     A.U. after   14 cycles
 SCF Done:  E(UwB97XD) =  -1099.90247334     A.U. after   12 cycles
 SCF Done:  E(UwB97XD) =  -1099.90247531     A.U. after   11 cycles
 SCF Done:  E(UwB97XD) =  -1099.90247574     A.U. after   10 cycles
 SCF Done:  E(UwB97XD) =  -1099.90247575     A.U. after    8 cycles
 SCF Done:  E(UwB97XD) =  -1099.90247575     A.U. after    6 cycles
 Optimization completed.
    -- Stationary point found.
 Normal termination of Gaussian 16 at Fri May 23 02:09:15 2025.

 ----------------------------------------------------------------------
 #P Geom=AllCheck Guess=TCheck SCRF=Check GenChk UwB97XD/6-311++G(d,p)
 Freq
 ----------------------------------------------------------------------

 Structure from the checkpoint file:  "1813535595952630400002_well.chk"
 ------------------------------
 Gaussian input prepared by ASE
 ------------------------------
 Charge =  0 Multiplicity = 2

                          Input orientation:
 ---------------------------------------------------------------------
 Center     Atomic      Atomic             Coordinates (Angstroms)
 Number     Number       Type             X           Y           Z
 ---------------------------------------------------------------------
      1          6           0       -0.667537    0.352611    1.271798
      2          6           0       -0.072578   -0.005631   -0.072111
      3          9           0       -0.424978   -1.254719   -0.384890
      4          9           0       -0.499115    0.816486   -1.046187
      5         16           0        1.799932    0.039402   -0.043813
      6          8           0        2.209108   -0.525484    1.214245
      7          8           0        2.244910   -0.437694   -1.313152
      8          8           0        2.062213    1.620349   -0.022871
      9          9           0       -0.251504    1.503977    1.774985
     10          9           0       -1.972155    0.234346    1.343557
     11          1           0        2.114337    1.940153    0.887391
 ---------------------------------------------------------------------

 SCF Done:  E(UwB97XD) =  -1099.90247575     A.U. after    1 cycles

 Isotropic polarizability for W=    0.000000       54.22 Bohr**3.
 End of Minotr F.D. properties file   721 does not exist.

                      1                      2                      3
                      A                      A                      A
 Frequencies --     58.3116                63.7979               138.8825
 Red. masses --     18.0586                12.2194                14.8077
 Frc consts  --      0.0362                 0.0293                 0.1683
 IR Inten    --      0.0451                 1.8395                 2.2210

                      4                      5                      6
                      A                      A                      A
 Frequencies --    196.1235               217.5710               239.6940
 Red. masses --     14.7771                17.6289                11.5299
 Frc consts  --      0.3349                 0.4917                 0.3903
 IR Inten    --      4.0298                 1.6816                 1.9107

                      7                      8                      9
                      A                      A                      A
 Frequencies --    285.7493               310.6769               324.2717
 Red. masses --     17.1119                 6.9801                 5.5035
 Frc consts  --      0.8232                 0.3969                 0.3410
 IR Inten    --      6.0891                12.5436                18.3254

                     10                     11                     12
                      A                      A                      A
 Frequencies --    390.9783               433.0690               467.9386
 Red. masses --      1.9668                14.7004                 2.8640
 Frc consts  --      0.1771                 1.6244                 0.3695
 IR Inten    --     68.6320                 7.6733                53.0247

                     13                     14                     15
                      A                      A                      A
 Frequencies --    507.5362               591.1457               599.0194
 Red. masses --     15.2780                15.8651                19.1970
 Frc consts  --      2.3187                 3.2665                 4.0585
 IR Inten    --     11.8813                39.2595                88.5851

                     16                     17                     18
                      A                      A                      A
 Frequencies --    637.3200               763.4171               832.2022
 Red. masses --     16.0582                14.2461                17.2842
 Frc consts  --      3.8429                 4.8918                 7.0527
 IR Inten    --     34.2338                12.8861               203.5137

                     19                     20                     21
                      A                      A                      A
 Frequencies --   1011.9129              1124.7202              1135.1431
 Red. masses --     12.5984                 7.4088                 1.2892
 Frc consts  --      7.6007                 5.5219                 0.9787
 IR Inten    --    108.9553               195.4515                96.3717

                     22                     23                     24
                      A                      A                      A
 Frequencies --   1184.1063              1228.1403              1286.6933
 Red. masses --     13.9171                15.9308                12.7062
 Frc consts  --     11.4969                14.1574                12.3941
 IR Inten    --     50.3279               253.7729               175.8861

                     25                     26                     27
                      A                      A                      A
 Frequencies --   1376.3043              1439.6855              3835.2639
 Red. masses --     12.8406                13.9804                 1.0662
 Frc consts  --     14.3306                17.0728                 9.2405
 IR Inten    --    111.0076               270.0799               148.3316

 - Thermochemistry -
 -------------------
 Temperature   298.150 Kelvin.  Pressure   1.00000 Atm.
 Atom     1 has atomic number  6 and mass  12.00000

 Molecular mass:   180.95825 amu.
 Principal axes and moments of inertia in atomic units:
                           1         2         3
     Eigenvalues --   983.289791811.994952084.76302
           X            0.92639   0.34603  -0.14852
           Y           -0.10298   0.61218   0.78399
           Z           -0.36220   0.71099  -0.60275
 This molecule is an asymmetric top.
 Rotational symmetry number  1.
 Warning -- assumption of classical behavior for rotation
           may cause significant error
 Rotational temperatures (Kelvin)      0.08809     0.04780     0.04155
 Rotational constants (GHZ):           1.83541     0.99600     0.86568
 Zero-point vibrational energy     123691.9 (Joules/Mol)
                                   29.56308 (Kcal/Mol)
 Warning -- explicit consideration of  15 degrees of freedom as
           vibrations may cause significant error
 Vibrational temperatures:     83.90    91.79   199.82   282.18   313.04
          (Kelvin)            344.87   411.13   446.99   466.55   562.53
                              623.09   673.26   730.23   850.53   861.86
                              916.96  1098.39  1197.35  1455.92  1618.22
                             1633.22  1703.66  1767.02  1851.26  1980.19
                             2071.39  5518.09

 Zero-point correction=                           0.047112 (Hartree/Particle)
 Thermal correction to Energy=                    0.056897
 Thermal correction to Enthalpy=                  0.057841
 Thermal correction to Gibbs Free Energy=         0.010504
 Sum of electronic and zero-point Energies=          -1099.855364
 Sum of electronic and thermal Energies=             -1099.845579
 Sum of electronic and thermal Enthalpies=           -1099.844635
 Sum of electronic and thermal Free Energies=        -1099.891972

                     E (Thermal)             CV                S
                      KCal/Mol        Cal/Mol-Kelvin    Cal/Mol-Kelvin
 Total                   35.703             33.673             99.630
 Electronic               0.000              0.000              1.377
 Translational            0.889              2.981             41.486
 Rotational               0.889              2.981             29.697
 Vibrational             33.926             27.712             27.069
 Vibration     1          0.596              1.974              4.514
 Vibration     2          0.597              1.972              4.336
 Vibration     3          0.614              1.914              2.819
 Vibration     4          0.636              1.845              2.169
 Vibration     5          0.646              1.814              1.979
 Vibration     6          0.657              1.780              1.805
 Vibration     7          0.684              1.700              1.499
 Vibration     8          0.700              1.653              1.359
 Vibration     9          0.709              1.627              1.288
 Vibration    10          0.759              1.489              0.996
 Vibration    11          0.794              1.398              0.849
 Vibration    12          0.825              1.321              0.743
 Vibration    13          0.863              1.233              0.640
 Vibration    14          0.949              1.051              0.465
 Vibration    15          0.957              1.034              0.451

 Optimization completed.
    -- Stationary point found.
 Normal termination of Gaussian 16 at Fri May 23 02:10:41 2025.
