 Gaussian 16, Revision C.01,
 Gaussian 16:  ES64L-G16RevC.01  3-Jul-2019

 ----------------------------------------------------------------------
 #P wb97xd/6-311++G(d,p) Symm(None) scf(xqc) pop(None) freq opt(CalcFC,
  Tight)
 ----------------------------------------------------------------------

 ------------------------------
 Gaussian input prepared by ASE
 ------------------------------
 Symbolic Z-matrix:
 Charge =  0 Multiplicity = 2

 SCF Done:  E(UwB97XD) =  -1099.90721741     A.U. after   18 cycles
 SCF Done:  E(UwB97XD) =  -1099.91432341     A.U. after   15 cycles
 SCF Done:  E(UwB97XD) =  -1099.91582839     A.U. after   14 cycles
 SCF Done:  E(UwB97XD) =  -1099.91619387     A.U. after   15 cycles
 SCF Done:  E(UwB97XD) =  -1099.91639394     A.U. after   15 cycles
 SCF Done:  E(UwB97XD) =  -1099.91643511     A.U. after   13 cycles
 SCF Done:  E(UwB97XD) =  -1099.91644002     A.U. after   12 cycles
 SCF Done:  E(UwB97XD) =  -1099.91644165     A.U. after   12 cycles
 SCF Done:  E(UwB97XD) =  -1099.91644189     A.U. after   11 cycles
 SCF Done:  E(UwB97XD) =  -1099.91644190     A.U. after    8 cycles
 SCF Done:  E(UwB97XD) =  -1099.91644190     A.U. after    7 cycles
 SCF Done:  E(UwB97XD) =  -1099.91644190     A.U. after    5 cycles
 Optimization completed.
    -- Stationary point found.
 Normal termination of Gaussian 16 at Fri May 23 02:10:19 2025.

 ----------------------------------------------------------------------
 #P Geom=AllCheck Guess=TCheck SCRF=Check GenChk UwB97XD/6-311++G(d,p)
 Freq
 ----------------------------------------------------------------------

 Structure from the checkpoint file:  "1813535465033480600002_well.chk"
 ------------------------------
 Gaussian input prepared by ASE
 ------------------------------
 Charge =  0 Multiplicity = 2

                          Input orientation:
 ---------------------------------------------------------------------
 Center     Atomic      Atomic             Coordinates (Angstroms)
 Number     Number       Type             X           Y           Z
 ---------------------------------------------------------------------
      1          6           0       -0.720516    0.299633    1.348585
      2          6           0        0.021397    0.099147    0.044822
      3          9           0       -0.606269    0.468055   -1.042789
      4         16           0        1.797646    0.096249   -0.051282
      5          8           0        2.265601   -0.471653    1.182441
      6          8           0        2.152973   -0.384957   -1.346667
      7          8           0        2.134211    1.670977   -0.054221
      8          9           0       -0.599807   -0.757048    2.142648
      9          9           0       -0.234099    1.367301    2.014142
     10          9           0       -2.007864    0.516764    1.109026
     11          1           0        2.233100    1.990131    0.852769
 ---------------------------------------------------------------------

 SCF Done:  E(UwB97XD) =  -1099.91644190     A.U. after    1 cycles

 Isotropic polarizability for W=    0.000000       53.47 Bohr**3.
 End of Minotr F.D. properties file   721 does not exist.

                      1                      2                      3
                      A                      A                      A
 Frequencies --     30.7582                56.0010               120.7117
 Red. masses --     17.8892                11.8835                 9.2469
 Frc consts  --      0.0100                 0.0220                 0.0794
 IR Inten    --      0.2546                 2.3690                 6.2909

                      4                      5                      6
                      A                      A                      A
 Frequencies --    147.7436               242.4686               261.8450
 Red. masses --     15.8113                14.9238                 9.1846
 Frc consts  --      0.2033                 0.5169                 0.3710
 IR Inten    --      1.8860                 1.2500                 1.7421

                      7                      8                      9
                      A                      A                      A
 Frequencies --    301.6553               322.3569               360.5927
 Red. masses --     14.2148                 5.1525                 1.8504
 Frc consts  --      0.7621                 0.3155                 0.1418
 IR Inten    --      7.3168                21.6155                66.4967

                     10                     11                     12
                      A                      A                      A
 Frequencies --    435.6603               451.9314               485.6594
 Red. masses --      5.7776                 5.5730                10.9355
 Frc consts  --      0.6461                 0.6706                 1.5197
 IR Inten    --     22.8955                35.2973                 2.0464

                     13                     14                     15
                      A                      A                      A
 Frequencies --    509.6087               585.3506               604.3996
 Red. masses --     15.8582                16.7970                17.7966
 Frc consts  --      2.4265                 3.3909                 3.8303
 IR Inten    --     11.4259                 3.2812                72.3750

                     16                     17                     18
                      A                      A                      A
 Frequencies --    612.5340               746.3421               813.9944
 Red. masses --     15.4547                17.1967                17.2071
 Frc consts  --      3.4164                 5.6438                 6.7174
 IR Inten    --     81.3829                11.9811               188.8092

                     19                     20                     21
                      A                      A                      A
 Frequencies --   1003.4976              1131.6194              1150.6902
 Red. masses --     13.3880                 1.6435                 3.2009
 Frc consts  --      7.9432                 1.2400                 2.4971
 IR Inten    --     55.0629               273.8197                81.8682

                     22                     23                     24
                      A                      A                      A
 Frequencies --   1194.9798              1226.3867              1266.1854
 Red. masses --     17.2524                13.5758                12.7973
 Frc consts  --     14.5152                12.0301                12.0882
 IR Inten    --     93.7577               359.0759               224.2370

                     25                     26                     27
                      A                      A                      A
 Frequencies --   1405.3621              1446.1844              3828.4127
 Red. masses --     12.9229                14.2121                 1.0663
 Frc consts  --     15.0379                17.5128                 9.2080
 IR Inten    --    116.0663               299.3319               145.9425

 - Thermochemistry -
 -------------------
 Temperature   298.150 Kelvin.  Pressure   1.00000 Atm.
 Atom     1 has atomic number  6 and mass  12.00000

 Molecular mass:   180.95825 amu.
 Principal axes and moments of inertia in atomic units:
                           1         2         3
     Eigenvalues --   922.144451990.326112235.14349
           X            0.87078   0.48463   0.08298
           Y           -0.03614  -0.10523   0.99379
           Z           -0.49035   0.86837   0.07412
 This molecule is an asymmetric top.
 Rotational symmetry number  1.
 Warning -- assumption of classical behavior for rotation
           may cause significant error
 Rotational temperatures (Kelvin)      0.09393     0.04352     0.03875
 Rotational constants (GHZ):           1.95711     0.90676     0.80744
 Zero-point vibrational energy     124070.3 (Joules/Mol)
                                   29.65351 (Kcal/Mol)
 Warning -- explicit consideration of  16 degrees of freedom as
           vibrations may cause significant error
 Vibrational temperatures:     44.25    80.57   173.68   212.57   348.86
          (Kelvin)            376.74   434.01   463.80   518.81   626.82
                              650.23   698.76   733.21   842.19   869.60
                              881.30  1073.82  1171.16  1443.81  1628.15
                             1655.59  1719.31  1764.50  1821.76  2022.00
                             2080.74  5508.23

 Zero-point correction=                           0.047256 (Hartree/Particle)
 Thermal correction to Energy=                    0.057034
 Thermal correction to Enthalpy=                  0.057978
 Thermal correction to Gibbs Free Energy=         0.009904
 Sum of electronic and zero-point Energies=          -1099.869186
 Sum of electronic and thermal Energies=             -1099.859408
 Sum of electronic and thermal Enthalpies=           -1099.858464
 Sum of electronic and thermal Free Energies=        -1099.906538

                     E (Thermal)             CV                S
                      KCal/Mol        Cal/Mol-Kelvin    Cal/Mol-Kelvin
 Total                   35.789             33.474            101.181
 Electronic               0.000              0.000              1.377
 Translational            0.889              2.981             41.486
 Rotational               0.889              2.981             29.796
 Vibrational             34.012             27.513             28.522
 Vibration     1          0.594              1.984              5.780
 Vibration     2          0.596              1.975              4.593
 Vibration     3          0.609              1.932              3.089
 Vibration     4          0.617              1.905              2.701
 Vibration     5          0.659              1.775              1.785
 Vibration     6          0.669              1.743              1.649
 Vibration     7          0.694              1.671              1.408
 Vibration     8          0.707              1.631              1.298
 Vibration     9          0.735              1.553              1.120
 Vibration    10          0.796              1.392              0.840
 Vibration    11          0.811              1.357              0.790
 Vibration    12          0.842              1.282              0.695
 Vibration    13          0.865              1.229              0.635
 Vibration    14          0.942              1.063              0.476
 Vibration    15          0.963              1.022              0.442
 Vibration    16          0.972              1.005              0.429

 Optimization completed.
    -- Stationary point found.
 Normal termination of Gaussian 16 at Fri May 23 02:11:46 2025.
