 Gaussian 16, Revision C.01,
 Gaussian 16:  ES64L-G16RevC.01  3-Jul-2019

 ----------------------------------------------------------------------
 #P wb97xd/6-311++G(d,p) Symm(None) scf(xqc) pop(None) freq opt(CalcFC,
  Tight)
 ----------------------------------------------------------------------

 ------------------------------
 Gaussian input prepared by ASE
 ------------------------------
 Symbolic Z-matrix:
 Charge =  0 Multiplicity = 1

 SCF Done:  E(RwB97XD) =  -1124.60836917     A.U. after   15 cycles
 SCF Done:  E(RwB97XD) =  -1124.61475004     A.U. after   14 cycles
 SCF Done:  E(RwB97XD) =  -1124.61437692     A.U. after   14 cycles
 SCF Done:  E(RwB97XD) =  -1124.61587843     A.U. after   12 cycles
 SCF Done:  E(RwB97XD) =  -1124.61634797     A.U. after   14 cycles
 SCF Done:  E(RwB97XD) =  -1124.61664163     A.U. after   13 cycles
 SCF Done:  E(RwB97XD) =  -1124.61684001     A.U. after   15 cycles
 SCF Done:  E(RwB97XD) =  -1124.61724938     A.U. after   13 cycles
 SCF Done:  E(RwB97XD) =  -1124.61726140     A.U. after   12 cycles
 SCF Done:  E(RwB97XD) =  -1124.61727241     A.U. after   12 cycles
 SCF Done:  E(RwB97XD) =  -1124.61727344     A.U. after   10 cycles
 SCF Done:  E(RwB97XD) =  -1124.61727350     A.U. after    8 cycles
 SCF Done:  E(RwB97XD) =  -1124.61727350     A.U. after    6 cycles
 SCF Done:  E(RwB97XD) =  -1124.61727351     A.U. after    5 cycles
 Optimization completed.
    -- Stationary point found.
 Normal termination of Gaussian 16 at Fri May 23 02:11:02 2025.

 ----------------------------------------------------------------------
 #P Geom=AllCheck Guess=TCheck SCRF=Check GenChk RwB97XD/6-311++G(d,p)
 Freq
 ----------------------------------------------------------------------

 Structure from the checkpoint file:  "1843365746072630600001_well.chk"
 ------------------------------
 Gaussian input prepared by ASE
 ------------------------------
 Charge =  0 Multiplicity = 1

                          Input orientation:
 ---------------------------------------------------------------------
 Center     Atomic      Atomic             Coordinates (Angstroms)
 Number     Number       Type             X           Y           Z
 ---------------------------------------------------------------------
      1          6           0       -0.761842    0.341613    1.292928
      2          6           0       -0.112709   -0.012999   -0.071615
      3          9           0       -0.479836   -1.260972   -0.404306
      4          9           0       -0.528111    0.829515   -1.009650
      5         16           0        1.790470   -0.081970   -0.064818
      6          8           0        2.149317   -0.168790   -1.477947
      7          8           0        1.848005    1.496923    0.446872
      8          9           0       -0.096649   -0.286085    2.270439
      9          9           0       -0.737528    1.643093    1.522804
     10          9           0       -2.026433   -0.069835    1.314955
     11          1           0        2.723178    1.680607    0.803968
 ---------------------------------------------------------------------

 SCF Done:  E(RwB97XD) =  -1124.61727351     A.U. after    1 cycles

 Isotropic polarizability for W=    0.000000       54.69 Bohr**3.
 End of Minotr F.D. properties file   721 does not exist.

                      1                      2                      3
                      A                      A                      A
 Frequencies --     43.8395                65.1938               142.4568
 Red. masses --      9.9228                17.9098                11.6990
 Frc consts  --      0.0112                 0.0448                 0.1399
 IR Inten    --      3.8717                 0.9526                 5.0676

                      4                      5                      6
                      A                      A                      A
 Frequencies --    207.1092               228.6563               234.2401
 Red. masses --      5.8006                14.9656                 7.1163
 Frc consts  --      0.1466                 0.4610                 0.2301
 IR Inten    --     13.4896                 5.5491                17.3755

                      7                      8                      9
                      A                      A                      A
 Frequencies --    265.0540               276.7760               328.2885
 Red. masses --      1.5463                17.0223                 7.7036
 Frc consts  --      0.0640                 0.7683                 0.4892
 IR Inten    --     74.1081                 1.7907                 4.3175

                     10                     11                     12
                      A                      A                      A
 Frequencies --    371.7580               412.1012               421.9611
 Red. masses --     13.2383                16.3600                17.9772
 Frc consts  --      1.0780                 1.6370                 1.8859
 IR Inten    --      0.8538                26.7726                 6.6579

                     13                     14                     15
                      A                      A                      A
 Frequencies --    515.7647               548.7360               598.2827
 Red. masses --     13.8958                16.9222                16.9370
 Frc consts  --      2.1779                 3.0022                 3.5719
 IR Inten    --     27.3416                 0.5147                 3.9540

                     16                     17                     18
                      A                      A                      A
 Frequencies --    655.1597               742.6785               760.1646
 Red. masses --     16.7230                15.6665                17.2357
 Frc consts  --      4.2292                 5.0912                 5.8681
 IR Inten    --     16.8671               113.6058                27.2448

                     19                     20                     21
                      A                      A                      A
 Frequencies --    974.0932              1099.8736              1147.7400
 Red. masses --     11.9570                 1.1826                13.3045
 Frc consts  --      6.6846                 0.8429                10.3261
 IR Inten    --    119.2129               140.5200               136.4148

                     22                     23                     24
                      A                      A                      A
 Frequencies --   1211.5699              1227.8255              1235.3713
 Red. masses --     12.9395                 9.2660                17.7897
 Frc consts  --     11.1909                 8.2303                15.9961
 IR Inten    --    258.6457                89.6800               275.7782

                     25                     26                     27
                      A                      A                      A
 Frequencies --   1252.8914              1351.1597              3875.3119
 Red. masses --     13.5447                12.7552                 1.0672
 Frc consts  --     12.5269                13.7199                 9.4433
 IR Inten    --    318.0261               123.2231               150.5936

 - Thermochemistry -
 -------------------
 Temperature   298.150 Kelvin.  Pressure   1.00000 Atm.
 Atom     1 has atomic number  6 and mass  12.00000

 Molecular mass:   183.96174 amu.
 Principal axes and moments of inertia in atomic units:
                           1         2         3
     Eigenvalues --   976.382471869.547312118.39287
           X            0.82594   0.46565  -0.31780
           Y           -0.03746   0.60779   0.79321
           Z           -0.56251   0.64324  -0.51945
 This molecule is an asymmetric top.
 Rotational symmetry number  1.
 Warning -- assumption of classical behavior for rotation
           may cause significant error
 Rotational temperatures (Kelvin)      0.08871     0.04633     0.04089
 Rotational constants (GHZ):           1.84840     0.96534     0.85194
 Zero-point vibrational energy     120787.3 (Joules/Mol)
                                   28.86885 (Kcal/Mol)
 Warning -- explicit consideration of  15 degrees of freedom as
           vibrations may cause significant error
 Vibrational temperatures:     63.08    93.80   204.96   297.98   328.99
          (Kelvin)            337.02   381.35   398.22   472.33   534.88
                              592.92   607.11   742.07   789.51   860.80
                              942.63  1068.55  1093.71  1401.50  1582.47
                             1651.34  1743.18  1766.57  1777.42  1802.63
                             1944.02  5575.71

 Zero-point correction=                           0.046005 (Hartree/Particle)
 Thermal correction to Energy=                    0.055985
 Thermal correction to Enthalpy=                  0.056930
 Thermal correction to Gibbs Free Energy=         0.009694
 Sum of electronic and zero-point Energies=          -1124.571268
 Sum of electronic and thermal Energies=             -1124.561288
 Sum of electronic and thermal Enthalpies=           -1124.560344
 Sum of electronic and thermal Free Energies=        -1124.607579

                     E (Thermal)             CV                S
                      KCal/Mol        Cal/Mol-Kelvin    Cal/Mol-Kelvin
 Total                   35.131             34.280             99.416
 Electronic               0.000              0.000              0.000
 Translational            0.889              2.981             41.535
 Rotational               0.889              2.981             29.737
 Vibrational             33.354             28.318             28.143
 Vibration     1          0.595              1.980              5.078
 Vibration     2          0.597              1.971              4.293
 Vibration     3          0.616              1.911              2.771
 Vibration     4          0.641              1.830              2.069
 Vibration     5          0.651              1.797              1.889
 Vibration     6          0.654              1.788              1.846
 Vibration     7          0.671              1.737              1.628
 Vibration     8          0.678              1.716              1.554
 Vibration     9          0.712              1.619              1.268
 Vibration    10          0.743              1.530              1.073
 Vibration    11          0.776              1.444              0.919
 Vibration    12          0.784              1.422              0.885
 Vibration    13          0.871              1.215              0.620
 Vibration    14          0.904              1.142              0.547
 Vibration    15          0.956              1.035              0.453

 Optimization completed.
    -- Stationary point found.
 Normal termination of Gaussian 16 at Fri May 23 02:13:15 2025.
