 Gaussian 16, Revision C.01,
 Gaussian 16:  ES64L-G16RevC.01  3-Jul-2019

 ----------------------------------------------------------------------
 #P wb97xd/6-311++G(d,p) Symm(None) scf(xqc) pop(None) opt(NoFreeze,TS,
 CalcAll,NoEigentest,MaxCycle=999)
 ----------------------------------------------------------------------

 ------------------------------
 Gaussian input prepared by ASE
 ------------------------------
 Symbolic Z-matrix:
 Charge =  0 Multiplicity = 1

 SCF Done:  E(RwB97XD) =  -1199.70860759     A.U. after   15 cycles
 SCF Done:  E(RwB97XD) =  -1199.77188889     A.U. after   13 cycles
 SCF Done:  E(RwB97XD) =  -1199.80688148     A.U. after   13 cycles
 SCF Done:  E(RwB97XD) =  -1199.81834310     A.U. after   13 cycles
 SCF Done:  E(RwB97XD) =  -1199.82113827     A.U. after   12 cycles
 SCF Done:  E(RwB97XD) =  -1199.82201188     A.U. after   12 cycles
 SCF Done:  E(RwB97XD) =  -1199.82202791     A.U. after   10 cycles

 Isotropic polarizability for W=    0.000000       55.62 Bohr**3.
 End of Minotr F.D. properties file   721 does not exist.

 Optimization completed.
    -- Stationary point found.

                          Input orientation:
 ---------------------------------------------------------------------
 Center     Atomic      Atomic             Coordinates (Angstroms)
 Number     Number       Type             X           Y           Z
 ---------------------------------------------------------------------
      1          6           0       -0.893937   -0.276039    1.230376
      2          6           0       -0.010975    0.598588    0.255214
      3          9           0       -0.255378    0.248677   -1.012642
      4          9           0       -0.304889    1.885263    0.411218
      5         16           0        1.832149    0.389775    0.526956
      6          8           0        2.159892    0.987383    1.781368
      7          8           0        2.170889   -0.955436    0.154870
      8          8           0        2.345119    1.391156   -0.616263
      9          9           0       -0.124780   -0.996114    2.040349
     10          9           0       -1.665874    0.509431    1.965708
     11          9           0       -1.660691   -1.099187    0.530139
     12          1           0        2.458897    0.914536   -1.449009
 ---------------------------------------------------------------------

 ******    1 imaginary frequencies (negative Signs) ******

                      1                      2                      3
                      A                      A                      A
 Frequencies --    -47.9957                72.7421               141.3175
 Red. masses --     17.8068                11.8714                12.6495
 Frc consts  --      0.0242                 0.0370                 0.1488
 IR Inten    --      0.1327                 2.1495                 2.0608

                      4                      5                      6
                      A                      A                      A
 Frequencies --    186.3626               237.7817               279.4769
 Red. masses --     11.3453                 8.4530                12.5734
 Frc consts  --      0.2322                 0.2816                 0.5786
 IR Inten    --      6.4335                 7.2616                 0.7346

                      7                      8                      9
                      A                      A                      A
 Frequencies --    281.7098               310.3215               335.2482
 Red. masses --     17.2877                 4.3025                17.8177
 Frc consts  --      0.8083                 0.2441                 1.1799
 IR Inten    --      4.7962                21.3224                 0.4854

                     10                     11                     12
                      A                      A                      A
 Frequencies --    352.0918               375.6005               431.0865
 Red. masses --      2.0217                16.1426                 4.1722
 Frc consts  --      0.1477                 1.3418                 0.4568
 IR Inten    --     53.8424                 0.7000                27.0201

                     13                     14                     15
                      A                      A                      A
 Frequencies --    484.5840               489.4468               542.5167
 Red. masses --     12.3574                 8.7051                17.8957
 Frc consts  --      1.7097                 1.2287                 3.1033
 IR Inten    --     33.7488                 5.1198                31.1385

                     16                     17                     18
                      A                      A                      A
 Frequencies --    595.7698               609.5240               656.4672
 Red. masses --     17.3605                19.9657                17.3368
 Frc consts  --      3.6305                 4.3703                 4.4019
 IR Inten    --      3.1233               113.8282                28.6814

                     19                     20                     21
                      A                      A                      A
 Frequencies --    765.2650               823.9309               996.9379
 Red. masses --     17.0319                17.1512                13.8585
 Frc consts  --      5.8767                 6.8600                 8.1152
 IR Inten    --     46.6519               219.5163                39.8428

                     22                     23                     24
                      A                      A                      A
 Frequencies --   1131.5971              1157.3202              1193.9831
 Red. masses --      1.1992                12.0920                16.0818
 Frc consts  --      0.9047                 9.5424                13.5077
 IR Inten    --    109.1636               281.9675                 3.6502

                     25                     26                     27
                      A                      A                      A
 Frequencies --   1219.7222              1250.7687              1255.2533
 Red. masses --     13.1703                13.1475                13.4998
 Frc consts  --     11.5443                12.1185                12.5326
 IR Inten    --    161.1071               247.9431               277.7665

                     28                     29                     30
                      A                      A                      A
 Frequencies --   1317.8051              1441.4913              3835.1583
 Red. masses --     12.7659                14.0877                 1.0663
 Frc consts  --     13.0619                17.2470                 9.2402
 IR Inten    --    110.5478               305.6612               163.2480

 - Thermochemistry -
 -------------------
 Temperature   298.150 Kelvin.  Pressure   1.00000 Atm.
 Atom     1 has atomic number  6 and mass  12.00000

 Molecular mass:   199.95666 amu.
 Principal axes and moments of inertia in atomic units:
                           1         2         3
     Eigenvalues --  1137.407702208.434272338.67512
           X            0.92980   0.36782  -0.01349
           Y            0.24796  -0.59889   0.76148
           Z           -0.27200   0.71137   0.64805
 This molecule is an asymmetric top.
 Rotational symmetry number  1.
 Warning -- assumption of classical behavior for rotation
           may cause significant error
 Rotational temperatures (Kelvin)      0.07615     0.03922     0.03704
 Rotational constants (GHZ):           1.58671     0.81720     0.77169
    1 imaginary frequencies ignored.
 Zero-point vibrational energy     136202.5 (Joules/Mol)
                                   32.55318 (Kcal/Mol)
 Warning -- explicit consideration of  16 degrees of freedom as
           vibrations may cause significant error
 Vibrational temperatures:    104.66   203.32   268.13   342.11   402.10
          (Kelvin)            405.32   446.48   482.35   506.58   540.41
                              620.24   697.21   704.20   780.56   857.18
                              876.97   944.51  1101.05  1185.45  1434.37
                             1628.12  1665.13  1717.88  1754.91  1799.58
                             1806.03  1896.03  2073.98  5517.94

 Zero-point correction=                           0.051877 (Hartree/Particle)
 Thermal correction to Energy=                    0.061318
 Thermal correction to Enthalpy=                  0.062262
 Thermal correction to Gibbs Free Energy=         0.016832
 Sum of electronic and zero-point Energies=          -1199.770151
 Sum of electronic and thermal Energies=             -1199.760710
 Sum of electronic and thermal Enthalpies=           -1199.759766
 Sum of electronic and thermal Free Energies=        -1199.805196

                     E (Thermal)             CV                S
                      KCal/Mol        Cal/Mol-Kelvin    Cal/Mol-Kelvin
 Total                   38.478             34.505             95.615
 Electronic               0.000              0.000              0.000
 Translational            0.889              2.981             41.783
 Rotational               0.889              2.981             30.153
 Vibrational             36.700             28.544             23.679
 Vibration     1          0.599              1.967              4.078
 Vibration     2          0.615              1.912              2.786
 Vibration     3          0.632              1.859              2.264
 Vibration     4          0.656              1.783              1.819
 Vibration     5          0.680              1.712              1.537
 Vibration     6          0.681              1.707              1.523
 Vibration     7          0.699              1.654              1.361
 Vibration     8          0.716              1.605              1.235
 Vibration     9          0.729              1.571              1.157
 Vibration    10          0.746              1.522              1.057
 Vibration    11          0.792              1.403              0.855
 Vibration    12          0.841              1.284              0.698
 Vibration    13          0.845              1.273              0.685
 Vibration    14          0.898              1.156              0.560
 Vibration    15          0.954              1.041              0.457
 Vibration    16          0.968              1.012              0.434

 Normal termination of Gaussian 16 at Fri May 23 03:24:46 2025.
