 Gaussian 16, Revision C.01,
 Gaussian 16:  ES64L-G16RevC.01  3-Jul-2019

 ----------------------------------------------------------------------
 #P wb97xd/6-311++G(d,p) Symm(None) scf(xqc) pop(None) geom(AllCheck,No
 KeepConstants) guess(Read) irc(RCFC,reverse,MaxPoints=100,StepSize=2)
 ----------------------------------------------------------------------

 Structure from the checkpoint file:  "2003846667223680600001_intra_H_migration_5_12_IRC_R.chk"
 ------------------------------
 Gaussian input prepared by ASE
 ------------------------------
 Charge =  0 Multiplicity = 1

 SCF Done:  E(RwB97XD) =  -1199.76592501     A.U. after    9 cycles
 SCF Done:  E(RwB97XD) =  -1199.76601643     A.U. after   10 cycles
 SCF Done:  E(RwB97XD) =  -1199.76616790     A.U. after   10 cycles
 SCF Done:  E(RwB97XD) =  -1199.76637843     A.U. after   10 cycles
 SCF Done:  E(RwB97XD) =  -1199.76664726     A.U. after   10 cycles
 SCF Done:  E(RwB97XD) =  -1199.76697370     A.U. after   10 cycles
 SCF Done:  E(RwB97XD) =  -1199.76735684     A.U. after   10 cycles
 SCF Done:  E(RwB97XD) =  -1199.76779516     A.U. after   10 cycles
 SCF Done:  E(RwB97XD) =  -1199.76828655     A.U. after   10 cycles
 SCF Done:  E(RwB97XD) =  -1199.76882857     A.U. after   10 cycles
 SCF Done:  E(RwB97XD) =  -1199.81602825     A.U. after    9 cycles
 SCF Done:  E(RwB97XD) =  -1199.81627054     A.U. after    9 cycles
 SCF Done:  E(RwB97XD) =  -1199.81650820     A.U. after    9 cycles
 SCF Done:  E(RwB97XD) =  -1199.81674132     A.U. after    9 cycles
 SCF Done:  E(RwB97XD) =  -1199.81697001     A.U. after    9 cycles
 SCF Done:  E(RwB97XD) =  -1199.81719435     A.U. after    9 cycles
 SCF Done:  E(RwB97XD) =  -1199.81741442     A.U. after    9 cycles
 SCF Done:  E(RwB97XD) =  -1199.81763031     A.U. after    9 cycles
 SCF Done:  E(RwB97XD) =  -1199.81784210     A.U. after    9 cycles
 SCF Done:  E(RwB97XD) =  -1199.81804985     A.U. after    9 cycles

                          Input orientation:
 ---------------------------------------------------------------------
 Center     Atomic      Atomic             Coordinates (Angstroms)
 Number     Number       Type             X           Y           Z
 ---------------------------------------------------------------------
      1          6           0       -1.146646    0.095819    0.910543
      2          6           0       -0.509881   -0.214250   -0.475617
      3          9           0       -0.781131   -1.479334   -0.793360
      4          9           0       -1.025570    0.595974   -1.397304
      5         16           0        1.375207   -0.047899   -0.500178
      6          8           0        1.891478   -0.342926    0.814033
      7          8           0        1.791669   -0.744322   -1.679008
      8          8           0        1.616885    1.533911   -0.534264
      9          9           0       -0.802835   -0.820826    1.798639
     10          9           0       -0.758398    1.295122    1.338674
     11          9           0       -2.469133    0.097201    0.781018
     12          1           0        2.015697    1.719726    0.327862
 ---------------------------------------------------------------------

 Normal termination of Gaussian 16 at Fri May 23 02:47:46 2025.
