 Gaussian 16, Revision C.01,
 Gaussian 16:  ES64L-G16RevC.01  3-Jul-2019

 ----------------------------------------------------------------------
 #P wb97xd/6-311++G(d,p) Symm(None) scf(xqc) pop(None) geom(AllCheck,No
 KeepConstants) guess(Read) irc(RCFC,forward,MaxPoints=100,StepSize=2)
 ----------------------------------------------------------------------

 Structure from the checkpoint file:  "2003846667223680600001_intra_H_migration_5_12_IRC_F.chk"
 ------------------------------
 Gaussian input prepared by ASE
 ------------------------------
 Charge =  0 Multiplicity = 1

 SCF Done:  E(RwB97XD) =  -1199.76592507     A.U. after   10 cycles
 SCF Done:  E(RwB97XD) =  -1199.76601637     A.U. after   10 cycles
 SCF Done:  E(RwB97XD) =  -1199.76616748     A.U. after   10 cycles
 SCF Done:  E(RwB97XD) =  -1199.76637746     A.U. after   10 cycles
 SCF Done:  E(RwB97XD) =  -1199.76664555     A.U. after   10 cycles
 SCF Done:  E(RwB97XD) =  -1199.76697098     A.U. after   10 cycles
 SCF Done:  E(RwB97XD) =  -1199.76735265     A.U. after   10 cycles
 SCF Done:  E(RwB97XD) =  -1199.76778890     A.U. after   10 cycles
 SCF Done:  E(RwB97XD) =  -1199.76827755     A.U. after   10 cycles
 SCF Done:  E(RwB97XD) =  -1199.76881617     A.U. after   10 cycles
 SCF Done:  E(RwB97XD) =  -1199.81510266     A.U. after    9 cycles
 SCF Done:  E(RwB97XD) =  -1199.81533814     A.U. after    9 cycles
 SCF Done:  E(RwB97XD) =  -1199.81556904     A.U. after    9 cycles
 SCF Done:  E(RwB97XD) =  -1199.81579545     A.U. after    9 cycles
 SCF Done:  E(RwB97XD) =  -1199.81601746     A.U. after    9 cycles
 SCF Done:  E(RwB97XD) =  -1199.81623516     A.U. after    9 cycles
 SCF Done:  E(RwB97XD) =  -1199.81644864     A.U. after    9 cycles
 SCF Done:  E(RwB97XD) =  -1199.81665797     A.U. after    9 cycles
 SCF Done:  E(RwB97XD) =  -1199.81686322     A.U. after    9 cycles
 SCF Done:  E(RwB97XD) =  -1199.81706446     A.U. after    9 cycles

                          Input orientation:
 ---------------------------------------------------------------------
 Center     Atomic      Atomic             Coordinates (Angstroms)
 Number     Number       Type             X           Y           Z
 ---------------------------------------------------------------------
      1          6           0       -1.149200    0.097372    0.909835
      2          6           0       -0.509823   -0.226258   -0.468015
      3          9           0       -0.784649   -1.485139   -0.792229
      4          9           0       -1.020729    0.590369   -1.391623
      5         16           0        1.359987    0.053455   -0.575882
      6          8           0        1.927740   -0.331672    0.872772
      7          8           0        1.800218   -0.798294   -1.638392
      8          8           0        1.589746    1.475641   -0.556454
      9          9           0       -0.801475   -0.821685    1.800201
     10          9           0       -0.758918    1.292732    1.339612
     11          9           0       -2.470249    0.096775    0.781864
     12          1           0        2.228096    0.515975    1.231258
 ---------------------------------------------------------------------

 Normal termination of Gaussian 16 at Fri May 23 03:00:02 2025.
