 Gaussian 16, Revision C.01,
 Gaussian 16:  ES64L-G16RevC.01  3-Jul-2019

 ----------------------------------------------------------------------
 #P wb97xd/6-311++G(d,p) Symm(None) scf(xqc) pop(None) geom(AllCheck,No
 KeepConstants) guess(Read) irc(RCFC,reverse,MaxPoints=100,StepSize=2)
 ----------------------------------------------------------------------

 Structure from the checkpoint file:  "2003846667223680600001_r13_insertion_ROR_1_2_5_6_IRC_R.chk"
 ------------------------------
 Gaussian input prepared by ASE
 ------------------------------
 Charge =  0 Multiplicity = 1

 SCF Done:  E(RwB97XD) =  -1199.65969859     A.U. after   11 cycles
 SCF Done:  E(RwB97XD) =  -1199.65976970     A.U. after   11 cycles
 SCF Done:  E(RwB97XD) =  -1199.65988708     A.U. after   11 cycles
 SCF Done:  E(RwB97XD) =  -1199.66004958     A.U. after   11 cycles
 SCF Done:  E(RwB97XD) =  -1199.66025586     A.U. after   11 cycles
 SCF Done:  E(RwB97XD) =  -1199.66050441     A.U. after   11 cycles
 SCF Done:  E(RwB97XD) =  -1199.66079354     A.U. after   11 cycles
 SCF Done:  E(RwB97XD) =  -1199.66112146     A.U. after   11 cycles
 SCF Done:  E(RwB97XD) =  -1199.66148650     A.U. after   11 cycles
 SCF Done:  E(RwB97XD) =  -1199.66188738     A.U. after   11 cycles
 SCF Done:  E(RwB97XD) =  -1199.74588209     A.U. after   10 cycles
 SCF Done:  E(RwB97XD) =  -1199.74705942     A.U. after   10 cycles
 SCF Done:  E(RwB97XD) =  -1199.74823258     A.U. after   10 cycles
 SCF Done:  E(RwB97XD) =  -1199.74940114     A.U. after   10 cycles
 SCF Done:  E(RwB97XD) =  -1199.75056474     A.U. after   10 cycles
 SCF Done:  E(RwB97XD) =  -1199.75172309     A.U. after   10 cycles
 SCF Done:  E(RwB97XD) =  -1199.75287595     A.U. after   10 cycles
 SCF Done:  E(RwB97XD) =  -1199.75402315     A.U. after   10 cycles
 SCF Done:  E(RwB97XD) =  -1199.75516453     A.U. after   10 cycles
 SCF Done:  E(RwB97XD) =  -1199.75629992     A.U. after   10 cycles

                          Input orientation:
 ---------------------------------------------------------------------
 Center     Atomic      Atomic             Coordinates (Angstroms)
 Number     Number       Type             X           Y           Z
 ---------------------------------------------------------------------
      1          6           0       -1.385883   -0.540312    0.335651
      2          6           0        0.335347   -0.706233   -0.327882
      3          9           0        1.066724   -1.661006    0.255369
      4          9           0        0.400009   -0.998597   -1.633907
      5         16           0        1.047870    0.974755    0.044446
      6          8           0       -0.092993    1.590974    0.634876
      7          8           0        2.319682    0.926760    0.707357
      8          8           0        1.194956    1.654584   -1.398954
      9          9           0       -2.054514    0.472952    0.923757
     10          9           0       -2.104257   -0.780915   -0.748850
     11          9           0       -1.400341   -1.484083    1.262597
     12          1           0        2.107195    1.619224   -1.713903
 ---------------------------------------------------------------------

 Normal termination of Gaussian 16 at Fri May 23 04:53:32 2025.
