 Gaussian 16, Revision C.01,
 Gaussian 16:  ES64L-G16RevC.01  3-Jul-2019

 ----------------------------------------------------------------------
 #P wb97xd/6-311++G(d,p) Symm(None) scf(xqc) pop(None) freq opt(CalcFC)
 ----------------------------------------------------------------------

 ------------------------------
 Gaussian input prepared by ASE
 ------------------------------
 Symbolic Z-matrix:
 Charge =  0 Multiplicity = 1

 SCF Done:  E(RwB97XD) =  -1199.69462744     A.U. after   20 cycles
 SCF Done:  E(RwB97XD) =  -1199.72019759     A.U. after   16 cycles
 SCF Done:  E(RwB97XD) =  -1199.77008092     A.U. after   15 cycles
 SCF Done:  E(RwB97XD) =  -1199.80002211     A.U. after   14 cycles
 SCF Done:  E(RwB97XD) =  -1199.70935239     A.U. after   15 cycles
 SCF Done:  E(RwB97XD) =  -1199.82186519     A.U. after   13 cycles
 SCF Done:  E(RwB97XD) =  -1199.81060632     A.U. after   13 cycles
 SCF Done:  E(RwB97XD) =  -1199.77653009     A.U. after   14 cycles
 SCF Done:  E(RwB97XD) =  -1199.78111869     A.U. after   14 cycles
 SCF Done:  E(RwB97XD) =  -1199.82304687     A.U. after   10 cycles
 SCF Done:  E(RwB97XD) =  -1199.82503748     A.U. after   12 cycles
 SCF Done:  E(RwB97XD) =  -1199.82526304     A.U. after   13 cycles
 SCF Done:  E(RwB97XD) =  -1199.82556434     A.U. after   12 cycles
 SCF Done:  E(RwB97XD) =  -1199.82583918     A.U. after   11 cycles
 SCF Done:  E(RwB97XD) =  -1199.82587962     A.U. after   11 cycles
 SCF Done:  E(RwB97XD) =  -1199.82588419     A.U. after   10 cycles
 SCF Done:  E(RwB97XD) =  -1199.82589088     A.U. after    9 cycles
 SCF Done:  E(RwB97XD) =  -1199.82589098     A.U. after    9 cycles
 Optimization completed.
    -- Stationary point found.
 Normal termination of Gaussian 16 at Fri May 23 05:08:55 2025.

 ----------------------------------------------------------------------
 #P Geom=AllCheck Guess=TCheck SCRF=Check GenChk RwB97XD/6-311++G(d,p)
 Freq
 ----------------------------------------------------------------------

 Structure from the checkpoint file:  "2003846667223680600001_r13_insertion_ROR_12_8_5_6_IRC_R_prod.chk"
 ------------------------------
 Gaussian input prepared by ASE
 ------------------------------
 Charge =  0 Multiplicity = 1

                          Input orientation:
 ---------------------------------------------------------------------
 Center     Atomic      Atomic             Coordinates (Angstroms)
 Number     Number       Type             X           Y           Z
 ---------------------------------------------------------------------
      1          6           0        0.802569    0.742514    0.730319
      2          6           0        0.236468   -0.605923    0.197692
      3          9           0        1.217376   -1.278737   -0.403072
      4          9           0       -0.229068   -1.317311    1.223350
      5         16           0       -1.146135   -0.419479   -1.059295
      6          8           0       -2.355701    0.007294   -0.101666
      7          8           0       -0.803986    0.680443   -1.917859
      8          8           0       -1.437126   -1.735403   -1.528286
      9          9           0        1.509126    1.360274   -0.198239
     10          9           0       -0.204979    1.539361    1.112338
     11          9           0        1.575145    0.511090    1.782879
     12          1           0       -2.382406    0.967899    0.000597
 ---------------------------------------------------------------------

 SCF Done:  E(RwB97XD) =  -1199.82589098     A.U. after    1 cycles

 Isotropic polarizability for W=    0.000000       55.69 Bohr**3.
 End of Minotr F.D. properties file   721 does not exist.

                      1                      2                      3
                      A                      A                      A
 Frequencies --     57.7334                68.8236               144.8699
 Red. masses --     12.9740                15.9295                16.0275
 Frc consts  --      0.0255                 0.0445                 0.1982
 IR Inten    --      1.6359                 0.8089                 0.8968

                      4                      5                      6
                      A                      A                      A
 Frequencies --    201.1596               226.5974               239.3368
 Red. masses --     14.8725                17.8917                11.9240
 Frc consts  --      0.3546                 0.5413                 0.4024
 IR Inten    --      3.4827                 1.6446                 1.6827

                      7                      8                      9
                      A                      A                      A
 Frequencies --    277.0701               308.5824               318.2183
 Red. masses --     17.6156                13.4922                10.9854
 Frc consts  --      0.7968                 0.7570                 0.6554
 IR Inten    --      4.1743                 2.2335                 5.2989

                     10                     11                     12
                      A                      A                      A
 Frequencies --    363.4431               396.5107               440.9681
 Red. masses --      5.8623                 2.7554                13.9873
 Frc consts  --      0.4562                 0.2552                 1.6025
 IR Inten    --     14.4083                48.6569                14.8747

                     13                     14                     15
                      A                      A                      A
 Frequencies --    494.3017               510.6188               537.7924
 Red. masses --      1.8660                16.1328                17.7665
 Frc consts  --      0.2686                 2.4783                 3.0275
 IR Inten    --     67.9853                 9.6314                27.7108

                     16                     17                     18
                      A                      A                      A
 Frequencies --    599.4355               609.2612               656.6805
 Red. masses --     17.8121                20.4683                15.7295
 Frc consts  --      3.7709                 4.4765                 3.9965
 IR Inten    --      2.9524               119.0998                28.8005

                     19                     20                     21
                      A                      A                      A
 Frequencies --    763.8243               835.6649              1002.3961
 Red. masses --     17.2417                17.0813                12.7989
 Frc consts  --      5.9268                 7.0281                 7.5771
 IR Inten    --     18.8661               193.9947               100.8741

                     22                     23                     24
                      A                      A                      A
 Frequencies --   1142.8008              1155.9611              1209.0385
 Red. masses --      1.2281                11.4061                13.6240
 Frc consts  --      0.9450                 8.9799                11.7337
 IR Inten    --    154.4721               144.9931                79.9727

                     25                     26                     27
                      A                      A                      A
 Frequencies --   1226.6293              1228.3103              1262.4904
 Red. masses --     12.2323                13.0200                13.3197
 Frc consts  --     10.8438                11.5738                12.5083
 IR Inten    --    123.0339               193.1784               374.0990

                     28                     29                     30
                      A                      A                      A
 Frequencies --   1348.5015              1444.0846              3834.1828
 Red. masses --     12.6965                13.9001                 1.0661
 Frc consts  --     13.6031                17.0786                 9.2343
 IR Inten    --    113.5962               293.9799               150.0628

 - Thermochemistry -
 -------------------
 Temperature   298.150 Kelvin.  Pressure   1.00000 Atm.
 Atom     1 has atomic number  6 and mass  12.00000

 Molecular mass:   199.95666 amu.
 Principal axes and moments of inertia in atomic units:
                           1         2         3
     Eigenvalues --  1152.612662137.626962288.73897
           X            0.70961  -0.33102  -0.62199
           Y            0.37712   0.92412  -0.06156
           Z            0.59517  -0.19088   0.78060
 This molecule is an asymmetric top.
 Rotational symmetry number  1.
 Warning -- assumption of classical behavior for rotation
           may cause significant error
 Rotational temperatures (Kelvin)      0.07515     0.04052     0.03784
 Rotational constants (GHZ):           1.56578     0.84427     0.78853
 Zero-point vibrational energy     137004.0 (Joules/Mol)
                                   32.74475 (Kcal/Mol)
 Warning -- explicit consideration of  17 degrees of freedom as
           vibrations may cause significant error
 Vibrational temperatures:     83.07    99.02   208.44   289.42   326.02
          (Kelvin)            344.35   398.64   443.98   457.85   522.91
                              570.49   634.45   711.19   734.67   773.76
                              862.45   876.59   944.82  1098.97  1202.34
                             1442.22  1644.24  1663.17  1739.54  1764.85
                             1767.26  1816.44  1940.19  2077.72  5516.53

 Zero-point correction=                           0.052182 (Hartree/Particle)
 Thermal correction to Energy=                    0.062450
 Thermal correction to Enthalpy=                  0.063394
 Thermal correction to Gibbs Free Energy=         0.015760
 Sum of electronic and zero-point Energies=          -1199.773709
 Sum of electronic and thermal Energies=             -1199.763441
 Sum of electronic and thermal Enthalpies=           -1199.762497
 Sum of electronic and thermal Free Energies=        -1199.810131

                     E (Thermal)             CV                S
                      KCal/Mol        Cal/Mol-Kelvin    Cal/Mol-Kelvin
 Total                   39.188             36.385            100.255
 Electronic               0.000              0.000              0.000
 Translational            0.889              2.981             41.783
 Rotational               0.889              2.981             30.112
 Vibrational             37.410             30.424             28.359
 Vibration     1          0.596              1.974              4.533
 Vibration     2          0.598              1.969              4.187
 Vibration     3          0.616              1.908              2.739
 Vibration     4          0.638              1.838              2.122
 Vibration     5          0.650              1.800              1.906
 Vibration     6          0.657              1.780              1.808
 Vibration     7          0.678              1.716              1.552
 Vibration     8          0.698              1.657              1.370
 Vibration     9          0.705              1.639              1.319
 Vibration    10          0.737              1.548              1.107
 Vibration    11          0.763              1.478              0.976
 Vibration    12          0.801              1.381              0.824
 Vibration    13          0.850              1.263              0.673
 Vibration    14          0.866              1.226              0.632
 Vibration    15          0.893              1.166              0.570
 Vibration    16          0.958              1.033              0.451
 Vibration    17          0.968              1.012              0.434

 Optimization completed.
    -- Stationary point found.
 Normal termination of Gaussian 16 at Fri May 23 05:10:15 2025.
