 Gaussian 16, Revision C.01,
 Gaussian 16:  ES64L-G16RevC.01  3-Jul-2019

 ----------------------------------------------------------------------
 #P wb97xd/6-311++G(d,p) Symm(None) scf(xqc) pop(None) opt(NoFreeze,TS,
 CalcAll,NoEigentest,MaxCycle=999)
 ----------------------------------------------------------------------

 ------------------------------
 Gaussian input prepared by ASE
 ------------------------------
 Symbolic Z-matrix:
 Charge =  0 Multiplicity = 1

 SCF Done:  E(RwB97XD) =  -1199.66227375     A.U. after   18 cycles
 SCF Done:  E(RwB97XD) =  -1199.66209044     A.U. after   17 cycles
 SCF Done:  E(RwB97XD) =  -1199.65439461     A.U. after   17 cycles
 SCF Done:  E(RwB97XD) =  -1199.64331266     A.U. after   19 cycles
 SCF Done:  E(RwB97XD) =  -1199.63261822     A.U. after   20 cycles
 SCF Done:  E(RwB97XD) =  -1199.62351605     A.U. after   22 cycles
 SCF Done:  E(RwB97XD) =  -1199.62227094     A.U. after   21 cycles
 SCF Done:  E(RwB97XD) =  -1199.62217836     A.U. after   19 cycles
 SCF Done:  E(RwB97XD) =  -1199.62230294     A.U. after   21 cycles
 SCF Done:  E(RwB97XD) =  -1199.62239736     A.U. after   21 cycles
 SCF Done:  E(RwB97XD) =  -1199.62481509     A.U. after   19 cycles
 SCF Done:  E(RwB97XD) =  -1199.62483979     A.U. after   19 cycles
 SCF Done:  E(RwB97XD) =  -1199.62484171     A.U. after   17 cycles
 SCF Done:  E(RwB97XD) =  -1199.62484191     A.U. after   11 cycles
 SCF Done:  E(RwB97XD) =  -1199.61860381     A.U. after   21 cycles
 SCF Done:  E(RwB97XD) =  -1199.62472986     A.U. after   21 cycles
 SCF Done:  E(RwB97XD) =  -1199.62491388     A.U. after   20 cycles
 SCF Done:  E(RwB97XD) =  -1199.62492720     A.U. after   19 cycles
 SCF Done:  E(RwB97XD) =  -1199.62492870     A.U. after   18 cycles
 SCF Done:  E(RwB97XD) =  -1199.62492894     A.U. after   17 cycles

 Isotropic polarizability for W=    0.000000       84.17 Bohr**3.
 End of Minotr F.D. properties file   721 does not exist.

 Optimization completed.
    -- Stationary point found.

                          Input orientation:
 ---------------------------------------------------------------------
 Center     Atomic      Atomic             Coordinates (Angstroms)
 Number     Number       Type             X           Y           Z
 ---------------------------------------------------------------------
      1          6           0       -0.942472   -0.311172    1.345273
      2          6           0       -0.156510    0.353281    0.172573
      3          9           0       -0.446485   -0.224571   -0.974429
      4          9           0       -0.381586    1.645218    0.127500
      5         16           0        1.767931    0.153828    0.409384
      6          8           0        2.229969    1.150766    1.349930
      7          8           0        2.101188   -1.249381    0.448613
      8          8           0        2.880895    2.106627   -1.335690
      9          9           0       -0.794608   -1.623436    1.304547
     10          9           0       -0.489767    0.151973    2.501940
     11          9           0       -2.224876   -0.005303    1.217723
     12          1           0        2.506747    1.450203   -0.749077
 ---------------------------------------------------------------------

 ******    2 imaginary frequencies (negative Signs) ******

                      1                      2                      3
                      A                      A                      A
 Frequencies --  -1068.5723              -598.1365                19.6977
 Red. masses --      1.0428                 1.1360                16.0241
 Frc consts  --      0.7016                 0.2395                 0.0037
 IR Inten    --    123.1376                48.3982                 0.8509

                      4                      5                      6
                      A                      A                      A
 Frequencies --     55.7254                60.1345               129.0679
 Red. masses --     16.8931                13.4038                16.7122
 Frc consts  --      0.0309                 0.0286                 0.1640
 IR Inten    --      1.0121                 4.6520                 2.2236

                      7                      8                      9
                      A                      A                      A
 Frequencies --    151.5285               178.3089               219.1408
 Red. masses --      8.6350                14.4761                18.6043
 Frc consts  --      0.1168                 0.2712                 0.5264
 IR Inten    --     10.6049                 3.1983                 1.5985

                     10                     11                     12
                      A                      A                      A
 Frequencies --    234.2090               241.2203               295.4663
 Red. masses --     10.5788                16.9945                17.7331
 Frc consts  --      0.3419                 0.5826                 0.9121
 IR Inten    --      0.7127                12.9977                 0.3704

                     13                     14                     15
                      A                      A                      A
 Frequencies --    321.2503               361.3658               436.0309
 Red. masses --     18.4283                18.0968                16.2668
 Frc consts  --      1.1205                 1.3923                 1.8222
 IR Inten    --      2.1675                 1.6918               105.4026

                     16                     17                     18
                      A                      A                      A
 Frequencies --    452.9754               498.0151               550.2830
 Red. masses --     18.0102                17.8397                18.1864
 Frc consts  --      2.1773                 2.6069                 3.2447
 IR Inten    --      4.9632                53.6822                 3.4041

                     19                     20                     21
                      A                      A                      A
 Frequencies --    597.8278               651.7351               760.1668
 Red. masses --     17.8411                17.1885                16.5117
 Frc consts  --      3.7569                 4.3016                 5.6216
 IR Inten    --      1.2485                 1.3500                62.1975

                     22                     23                     24
                      A                      A                      A
 Frequencies --    912.9357              1127.1402              1149.4082
 Red. masses --     13.7658                17.4217                13.9619
 Frc consts  --      6.7598                13.0405                10.8678
 IR Inten    --    175.5961                99.7442               159.1762

                     25                     26                     27
                      A                      A                      A
 Frequencies --   1246.2210              1262.7974              1287.3957
 Red. masses --     13.1302                13.0808                13.4313
 Frc consts  --     12.0147                12.2900                13.1157
 IR Inten    --    219.5518               176.8561               205.7192

                     28                     29                     30
                      A                      A                      A
 Frequencies --   1315.2914              1386.9901              3893.4392
 Red. masses --     12.7606                19.9992                 1.0634
 Frc consts  --     13.0066                22.6678                 9.4978
 IR Inten    --    463.5787               207.8026               169.7647

 - Thermochemistry -
 -------------------
 Temperature   298.150 Kelvin.  Pressure   1.00000 Atm.
 Atom     1 has atomic number  6 and mass  12.00000

 Molecular mass:   199.95666 amu.
 Principal axes and moments of inertia in atomic units:
                           1         2         3
     Eigenvalues --  1209.791452575.502702802.75295
           X            0.86369  -0.49958   0.06679
           Y            0.34048   0.67601   0.65352
           Z           -0.37163  -0.54170   0.75396
 This molecule is an asymmetric top.
 Rotational symmetry number  1.
 Warning -- assumption of classical behavior for rotation
           may cause significant error
 Rotational temperatures (Kelvin)      0.07159     0.03363     0.03090
 Rotational constants (GHZ):           1.49178     0.70073     0.64392
    2 imaginary frequencies ignored.
 Zero-point vibrational energy     118405.0 (Joules/Mol)
                                   28.29947 (Kcal/Mol)
 Warning -- explicit consideration of  17 degrees of freedom as
           vibrations may cause significant error
 Vibrational temperatures:     28.34    80.18    86.52   185.70   218.02
          (Kelvin)            256.55   315.29   336.97   347.06   425.11
                              462.21   519.92   627.35   651.73   716.53
                              791.73   860.14   937.70  1093.71  1313.51
                             1621.70  1653.74  1793.03  1816.88  1852.28
                             1892.41  1995.57  5601.79

 Zero-point correction=                           0.045098 (Hartree/Particle)
 Thermal correction to Energy=                    0.056582
 Thermal correction to Enthalpy=                  0.057526
 Thermal correction to Gibbs Free Energy=         0.005378
 Sum of electronic and zero-point Energies=          -1199.579831
 Sum of electronic and thermal Energies=             -1199.568347
 Sum of electronic and thermal Enthalpies=           -1199.567403
 Sum of electronic and thermal Free Energies=        -1199.619551

                     E (Thermal)             CV                S
                      KCal/Mol        Cal/Mol-Kelvin    Cal/Mol-Kelvin
 Total                   35.505             37.384            109.754
 Electronic               0.000              0.000              0.000
 Translational            0.889              2.981             41.783
 Rotational               0.889              2.981             30.547
 Vibrational             33.728             31.422             37.424
 Vibration     1          0.593              1.986              6.664
 Vibration     2          0.596              1.975              4.603
 Vibration     3          0.597              1.973              4.453
 Vibration     4          0.612              1.924              2.960
 Vibration     5          0.619              1.901              2.653
 Vibration     6          0.629              1.869              2.346
 Vibration     7          0.647              1.812              1.966
 Vibration     8          0.654              1.789              1.846
 Vibration     9          0.658              1.777              1.794
 Vibration    10          0.690              1.682              1.442
 Vibration    11          0.707              1.633              1.304
 Vibration    12          0.736              1.552              1.116
 Vibration    13          0.796              1.392              0.839
 Vibration    14          0.812              1.354              0.787
 Vibration    15          0.854              1.254              0.663
 Vibration    16          0.906              1.139              0.544
 Vibration    17          0.956              1.036              0.453

 Normal termination of Gaussian 16 at Fri May 23 04:30:18 2025.
