 Gaussian 16, Revision C.01,
 Gaussian 16:  ES64L-G16RevC.01  3-Jul-2019

 ----------------------------------------------------------------------
 #P wb97xd/6-311++G(d,p) Symm(None) scf(xqc) pop(None) opt(NoFreeze,TS,
 CalcAll,NoEigentest,MaxCycle=999)
 ----------------------------------------------------------------------

 ------------------------------
 Gaussian input prepared by ASE
 ------------------------------
 Symbolic Z-matrix:
 Charge =  0 Multiplicity = 1

 SCF Done:  E(RwB97XD) =  -1199.72281294     A.U. after   15 cycles
 SCF Done:  E(RwB97XD) =  -1199.75635354     A.U. after   13 cycles
 SCF Done:  E(RwB97XD) =  -1199.76524961     A.U. after   13 cycles
 SCF Done:  E(RwB97XD) =  -1199.76586757     A.U. after   12 cycles
 SCF Done:  E(RwB97XD) =  -1199.76589792     A.U. after   11 cycles
 SCF Done:  E(RwB97XD) =  -1199.76589815     A.U. after    9 cycles

 Isotropic polarizability for W=    0.000000       56.21 Bohr**3.
 End of Minotr F.D. properties file   721 does not exist.

 Optimization completed.
    -- Stationary point found.

                          Input orientation:
 ---------------------------------------------------------------------
 Center     Atomic      Atomic             Coordinates (Angstroms)
 Number     Number       Type             X           Y           Z
 ---------------------------------------------------------------------
      1          6           0        2.194951   -1.869278   -1.503022
      2          6           0        2.362854   -0.502360   -0.774859
      3          9           0        2.704480   -0.724765    0.489880
      4          9           0        3.313146    0.208946   -1.378820
      5         16           0        0.821608    0.576358   -0.758565
      6          8           0       -0.396829   -0.337589   -0.808929
      7          8           0        0.991570    1.505385    0.311008
      8          8           0        0.614175    1.061553   -2.185389
      9          9           0        1.399867   -2.666186   -0.807514
     10          9           0        1.691510   -1.692408   -2.718982
     11          9           0        3.390273   -2.438117   -1.611133
     12          1           0       -0.356185    0.245473   -1.953478
 ---------------------------------------------------------------------

 ******    1 imaginary frequencies (negative Signs) ******

                      1                      2                      3
                      A                      A                      A
 Frequencies --  -1930.4044                37.4265                67.1296
 Red. masses --      1.0884                13.6383                18.2344
 Frc consts  --      2.3897                 0.0113                 0.0484
 IR Inten    --    624.9752                 0.3281                 0.0184

                      4                      5                      6
                      A                      A                      A
 Frequencies --    135.0322               189.2613               221.5689
 Red. masses --     13.7603                16.3751                18.4738
 Frc consts  --      0.1478                 0.3456                 0.5343
 IR Inten    --      1.3185                 2.4184                 1.4299

                      7                      8                      9
                      A                      A                      A
 Frequencies --    238.0936               276.7519               305.0754
 Red. masses --     14.4457                16.6291                17.6799
 Frc consts  --      0.4825                 0.7504                 0.9695
 IR Inten    --      2.4675                 3.0534                 0.7975

                     10                     11                     12
                      A                      A                      A
 Frequencies --    317.9820               372.6111               425.2628
 Red. masses --     17.0293                18.0349                17.7875
 Frc consts  --      1.0145                 1.4753                 1.8953
 IR Inten    --      0.5796                 0.2568                10.0615

                     13                     14                     15
                      A                      A                      A
 Frequencies --    491.3187               521.2597               557.0385
 Red. masses --     18.0255                11.5633                12.8497
 Frc consts  --      2.5637                 1.8512                 2.3492
 IR Inten    --      6.8376                45.4049                11.9699

                     16                     17                     18
                      A                      A                      A
 Frequencies --    600.1931               644.2437               709.8429
 Red. masses --     17.8446                16.8232                15.9125
 Frc consts  --      3.7874                 4.1140                 4.7240
 IR Inten    --      2.2470                17.7650                96.9309

                     19                     20                     21
                      A                      A                      A
 Frequencies --    770.4578               964.5434               984.5477
 Red. masses --     15.8538                13.1281                 1.2584
 Frc consts  --      5.5447                 7.1961                 0.7187
 IR Inten    --     17.4081               167.4682               116.2538

                     22                     23                     24
                      A                      A                      A
 Frequencies --   1056.0857              1110.9926              1168.3184
 Red. masses --      7.9647                11.4454                12.9946
 Frc consts  --      5.2338                 8.3234                10.4504
 IR Inten    --     66.9831               223.3072               134.4716

                     25                     26                     27
                      A                      A                      A
 Frequencies --   1227.0015              1239.0576              1259.8833
 Red. masses --     13.1962                12.7692                12.9283
 Frc consts  --     11.7055                11.5504                12.0908
 IR Inten    --    115.5254               225.2528               417.8379

                     28                     29                     30
                      A                      A                      A
 Frequencies --   1343.4855              1379.5109              2163.1511
 Red. masses --     12.6906                16.9615                 1.0280
 Frc consts  --     13.4958                19.0180                 2.8342
 IR Inten    --    134.4973               308.2682               131.9539

 - Thermochemistry -
 -------------------
 Temperature   298.150 Kelvin.  Pressure   1.00000 Atm.
 Atom     1 has atomic number  6 and mass  12.00000

 Molecular mass:   199.95666 amu.
 Principal axes and moments of inertia in atomic units:
                           1         2         3
     Eigenvalues --  1156.163462112.347852339.13513
           X           -0.52886   0.75438  -0.38887
           Y            0.82151   0.33994  -0.45779
           Z            0.21315   0.56156   0.79951
 This molecule is an asymmetric top.
 Rotational symmetry number  1.
 Warning -- assumption of classical behavior for rotation
           may cause significant error
 Rotational temperatures (Kelvin)      0.07491     0.04100     0.03703
 Rotational constants (GHZ):           1.56097     0.85438     0.77154
    1 imaginary frequencies ignored.
 Zero-point vibrational energy     124274.8 (Joules/Mol)
                                   29.70239 (Kcal/Mol)
 Warning -- explicit consideration of  15 degrees of freedom as
           vibrations may cause significant error
 Vibrational temperatures:     53.85    96.58   194.28   272.30   318.79
          (Kelvin)            342.56   398.18   438.94   457.51   536.10
                              611.86   706.90   749.98   801.45   863.54
                              926.92  1021.31  1108.52  1387.76  1416.54
                             1519.47  1598.47  1680.95  1765.38  1782.73
                             1812.69  1932.98  1984.81  3112.29

 Zero-point correction=                           0.047334 (Hartree/Particle)
 Thermal correction to Energy=                    0.057322
 Thermal correction to Enthalpy=                  0.058267
 Thermal correction to Gibbs Free Energy=         0.010600
 Sum of electronic and zero-point Energies=          -1199.718564
 Sum of electronic and thermal Energies=             -1199.708576
 Sum of electronic and thermal Enthalpies=           -1199.707631
 Sum of electronic and thermal Free Energies=        -1199.755298

                     E (Thermal)             CV                S
                      KCal/Mol        Cal/Mol-Kelvin    Cal/Mol-Kelvin
 Total                   35.970             34.733            100.322
 Electronic               0.000              0.000              0.000
 Translational            0.889              2.981             41.783
 Rotational               0.889              2.981             30.125
 Vibrational             34.193             28.772             28.414
 Vibration     1          0.594              1.982              5.391
 Vibration     2          0.598              1.970              4.236
 Vibration     3          0.613              1.918              2.873
 Vibration     4          0.633              1.855              2.235
 Vibration     5          0.648              1.808              1.946
 Vibration     6          0.656              1.782              1.817
 Vibration     7          0.678              1.716              1.554
 Vibration     8          0.696              1.664              1.389
 Vibration     9          0.704              1.639              1.320
 Vibration    10          0.744              1.528              1.069
 Vibration    11          0.787              1.415              0.874
 Vibration    12          0.847              1.269              0.680
 Vibration    13          0.876              1.203              0.607
 Vibration    14          0.913              1.124              0.530
 Vibration    15          0.958              1.031              0.449

 Normal termination of Gaussian 16 at Fri May 23 03:43:07 2025.
