 Gaussian 16, Revision C.01,
 Gaussian 16:  ES64L-G16RevC.01  3-Jul-2019

 ----------------------------------------------------------------------
 #P wb97xd/6-311++G(d,p) Symm(None) scf(xqc) pop(None) freq opt(CalcFC)
 ----------------------------------------------------------------------

 ------------------------------
 Gaussian input prepared by ASE
 ------------------------------
 Symbolic Z-matrix:
 Charge =  0 Multiplicity = 1

 SCF Done:  E(RwB97XD) =  -1199.75629993     A.U. after   14 cycles
 SCF Done:  E(RwB97XD) =  -1199.78797787     A.U. after   13 cycles
 SCF Done:  E(RwB97XD) =  -1199.80191433     A.U. after   14 cycles
 SCF Done:  E(RwB97XD) =  -1199.80722319     A.U. after   13 cycles
 SCF Done:  E(RwB97XD) =  -1199.80770094     A.U. after   13 cycles
 SCF Done:  E(RwB97XD) =  -1199.81124106     A.U. after   14 cycles
 SCF Done:  E(RwB97XD) =  -1199.74619899     A.U. after   15 cycles
 SCF Done:  E(RwB97XD) =  -1199.81264535     A.U. after   13 cycles
 SCF Done:  E(RwB97XD) =  -1199.81595219     A.U. after   12 cycles
 SCF Done:  E(RwB97XD) =  -1199.81853022     A.U. after   12 cycles
 SCF Done:  E(RwB97XD) =  -1199.82372510     A.U. after   12 cycles
 SCF Done:  E(RwB97XD) =  -1199.82450899     A.U. after   13 cycles
 SCF Done:  E(RwB97XD) =  -1199.82554055     A.U. after   12 cycles
 SCF Done:  E(RwB97XD) =  -1199.82587864     A.U. after   12 cycles
 SCF Done:  E(RwB97XD) =  -1199.82591257     A.U. after   12 cycles
 SCF Done:  E(RwB97XD) =  -1199.82597679     A.U. after   11 cycles
 SCF Done:  E(RwB97XD) =  -1199.82597874     A.U. after    9 cycles
 SCF Done:  E(RwB97XD) =  -1199.82597918     A.U. after    9 cycles
 SCF Done:  E(RwB97XD) =  -1199.82597922     A.U. after    8 cycles
 Optimization completed.
    -- Stationary point found.
 Normal termination of Gaussian 16 at Fri May 23 05:02:48 2025.

 ----------------------------------------------------------------------
 #P Geom=AllCheck Guess=TCheck SCRF=Check GenChk RwB97XD/6-311++G(d,p)
 Freq
 ----------------------------------------------------------------------

 Structure from the checkpoint file:  "2003846667223680600001_r13_insertion_ROR_1_2_5_6_IRC_R_prod.chk"
 ------------------------------
 Gaussian input prepared by ASE
 ------------------------------
 Charge =  0 Multiplicity = 1

                          Input orientation:
 ---------------------------------------------------------------------
 Center     Atomic      Atomic             Coordinates (Angstroms)
 Number     Number       Type             X           Y           Z
 ---------------------------------------------------------------------
      1          6           0       -1.239868   -0.674400    0.107946
      2          6           0        0.313177   -0.588955    0.098253
      3          9           0        0.785685   -1.166945    1.200607
      4          9           0        0.779379   -1.238688   -0.976807
      5         16           0        1.024836    1.146795    0.044697
      6          8           0        0.204905    1.996514    0.847507
      7          8           0        2.439679    0.990549    0.230137
      8          8           0        0.733526    1.521493   -1.484742
      9          9           0       -1.723866   -0.204550    1.245532
     10          9           0       -1.749154    0.011434   -0.908352
     11          9           0       -1.595517   -1.950787   -0.016560
     12          1           0        1.461013    1.225643   -2.047661
 ---------------------------------------------------------------------

 SCF Done:  E(RwB97XD) =  -1199.82597922     A.U. after    1 cycles

 Isotropic polarizability for W=    0.000000       55.75 Bohr**3.
 End of Minotr F.D. properties file   721 does not exist.

                      1                      2                      3
                      A                      A                      A
 Frequencies --     43.3384                66.3076               130.7317
 Red. masses --     12.8387                16.5960                16.7498
 Frc consts  --      0.0142                 0.0430                 0.1687
 IR Inten    --      2.1065                 0.2699                 0.7415

                      4                      5                      6
                      A                      A                      A
 Frequencies --    189.5994               223.4951               239.2577
 Red. masses --      5.5648                17.1462                14.7045
 Frc consts  --      0.1179                 0.5046                 0.4959
 IR Inten    --     14.3504                 1.2897                 7.4253

                      7                      8                      9
                      A                      A                      A
 Frequencies --    276.2086               311.0219               316.7233
 Red. masses --     12.2876                15.9903                 5.4451
 Frc consts  --      0.5523                 0.9114                 0.3218
 IR Inten    --      0.8170                 0.4752                12.6996

                     10                     11                     12
                      A                      A                      A
 Frequencies --    343.8127               373.9019               436.0045
 Red. masses --      1.9988                 7.5723                11.7762
 Frc consts  --      0.1392                 0.6237                 1.3190
 IR Inten    --     54.2558                 7.9763                16.7195

                     13                     14                     15
                      A                      A                      A
 Frequencies --    457.4481               509.9629               537.9810
 Red. masses --      4.4166                14.2640                17.9990
 Frc consts  --      0.5445                 2.1856                 3.0693
 IR Inten    --     35.6887                13.2817                23.7325

                     16                     17                     18
                      A                      A                      A
 Frequencies --    600.6401               608.9816               654.2161
 Red. masses --     17.4329                20.2688                17.1060
 Frc consts  --      3.7055                 4.4288                 4.3136
 IR Inten    --      4.1270               119.9868                25.1056

                     19                     20                     21
                      A                      A                      A
 Frequencies --    764.9884               833.6008              1005.8943
 Red. masses --     17.1725                17.4253                13.5217
 Frc consts  --      5.9210                 7.1342                 8.0610
 IR Inten    --     20.3730               194.9977               113.3300

                     22                     23                     24
                      A                      A                      A
 Frequencies --   1131.3248              1152.5760              1205.3243
 Red. masses --      1.1913                14.1188                13.9681
 Frc consts  --      0.8983                11.0507                11.9563
 IR Inten    --     90.5677               132.7191                48.4988

                     25                     26                     27
                      A                      A                      A
 Frequencies --   1223.7817              1234.9995              1260.6209
 Red. masses --     13.9211                13.2804                13.2752
 Frc consts  --     12.2838                11.9342                12.4297
 IR Inten    --    196.2171               218.2150               391.4702

                     28                     29                     30
                      A                      A                      A
 Frequencies --   1345.3588              1441.2241              3833.5957
 Red. masses --     12.6767                14.0710                 1.0663
 Frc consts  --     13.5186                17.2203                 9.2327
 IR Inten    --     97.1836               294.1657               163.7429

 - Thermochemistry -
 -------------------
 Temperature   298.150 Kelvin.  Pressure   1.00000 Atm.
 Atom     1 has atomic number  6 and mass  12.00000

 Molecular mass:   199.95666 amu.
 Principal axes and moments of inertia in atomic units:
                           1         2         3
     Eigenvalues --  1146.393102162.286602301.90196
           X            0.76259  -0.64677   0.01213
           Y            0.64321   0.76013   0.09211
           Z           -0.06879  -0.06244   0.99567
 This molecule is an asymmetric top.
 Rotational symmetry number  1.
 Warning -- assumption of classical behavior for rotation
           may cause significant error
 Rotational temperatures (Kelvin)      0.07555     0.04006     0.03763
 Rotational constants (GHZ):           1.57428     0.83464     0.78402
 Zero-point vibrational energy     136092.7 (Joules/Mol)
                                   32.52693 (Kcal/Mol)
 Warning -- explicit consideration of  17 degrees of freedom as
           vibrations may cause significant error
 Vibrational temperatures:     62.35    95.40   188.09   272.79   321.56
          (Kelvin)            344.24   397.40   447.49   455.69   494.67
                              537.96   627.31   658.17   733.72   774.03
                              864.19   876.19   941.27  1100.65  1199.37
                             1447.26  1627.72  1658.30  1734.19  1760.75
                             1776.89  1813.75  1935.67  2073.60  5515.69

 Zero-point correction=                           0.051835 (Hartree/Particle)
 Thermal correction to Energy=                    0.062266
 Thermal correction to Enthalpy=                  0.063210
 Thermal correction to Gibbs Free Energy=         0.014967
 Sum of electronic and zero-point Energies=          -1199.774144
 Sum of electronic and thermal Energies=             -1199.763713
 Sum of electronic and thermal Enthalpies=           -1199.762769
 Sum of electronic and thermal Free Energies=        -1199.811012

                     E (Thermal)             CV                S
                      KCal/Mol        Cal/Mol-Kelvin    Cal/Mol-Kelvin
 Total                   39.073             36.625            101.537
 Electronic               0.000              0.000              0.000
 Translational            0.889              2.981             41.783
 Rotational               0.889              2.981             30.124
 Vibrational             37.295             30.663             29.629
 Vibration     1          0.595              1.980              5.100
 Vibration     2          0.598              1.970              4.260
 Vibration     3          0.612              1.923              2.935
 Vibration     4          0.633              1.854              2.232
 Vibration     5          0.649              1.805              1.931
 Vibration     6          0.657              1.780              1.808
 Vibration     7          0.678              1.717              1.557
 Vibration     8          0.700              1.653              1.357
 Vibration     9          0.704              1.642              1.327
 Vibration    10          0.723              1.588              1.194
 Vibration    11          0.745              1.526              1.064
 Vibration    12          0.796              1.392              0.839
 Vibration    13          0.816              1.344              0.774
 Vibration    14          0.865              1.228              0.634
 Vibration    15          0.893              1.166              0.570
 Vibration    16          0.959              1.030              0.449
 Vibration    17          0.968              1.013              0.434

 Optimization completed.
    -- Stationary point found.
 Normal termination of Gaussian 16 at Fri May 23 05:04:09 2025.
