 Gaussian 16, Revision C.01,
 Gaussian 16:  ES64L-G16RevC.01  3-Jul-2019

 ----------------------------------------------------------------------
 #P wb97xd/6-311++G(d,p) Symm(None) scf(xqc) pop(None) geom(AllCheck,No
 KeepConstants) guess(Read) irc(RCFC,forward,MaxPoints=100,StepSize=2)
 ----------------------------------------------------------------------

 Structure from the checkpoint file:  "2003846667223680600001_intra_H_migration_6_12_IRC_F.chk"
 ------------------------------
 Gaussian input prepared by ASE
 ------------------------------
 Charge =  0 Multiplicity = 1

 SCF Done:  E(RwB97XD) =  -1199.76592870     A.U. after   10 cycles
 SCF Done:  E(RwB97XD) =  -1199.76602009     A.U. after   10 cycles
 SCF Done:  E(RwB97XD) =  -1199.76617133     A.U. after   10 cycles
 SCF Done:  E(RwB97XD) =  -1199.76638132     A.U. after   10 cycles
 SCF Done:  E(RwB97XD) =  -1199.76664917     A.U. after   10 cycles
 SCF Done:  E(RwB97XD) =  -1199.76697411     A.U. after   10 cycles
 SCF Done:  E(RwB97XD) =  -1199.76735525     A.U. after   10 cycles
 SCF Done:  E(RwB97XD) =  -1199.76779114     A.U. after   10 cycles
 SCF Done:  E(RwB97XD) =  -1199.76827969     A.U. after   10 cycles
 SCF Done:  E(RwB97XD) =  -1199.76881836     A.U. after   10 cycles
 SCF Done:  E(RwB97XD) =  -1199.81510812     A.U. after    9 cycles
 SCF Done:  E(RwB97XD) =  -1199.81534363     A.U. after    9 cycles
 SCF Done:  E(RwB97XD) =  -1199.81557457     A.U. after    9 cycles
 SCF Done:  E(RwB97XD) =  -1199.81580103     A.U. after    9 cycles
 SCF Done:  E(RwB97XD) =  -1199.81602310     A.U. after    9 cycles
 SCF Done:  E(RwB97XD) =  -1199.81624087     A.U. after    9 cycles
 SCF Done:  E(RwB97XD) =  -1199.81645442     A.U. after    9 cycles
 SCF Done:  E(RwB97XD) =  -1199.81666382     A.U. after    9 cycles
 SCF Done:  E(RwB97XD) =  -1199.81686916     A.U. after    9 cycles
 SCF Done:  E(RwB97XD) =  -1199.81707050     A.U. after    9 cycles

                          Input orientation:
 ---------------------------------------------------------------------
 Center     Atomic      Atomic             Coordinates (Angstroms)
 Number     Number       Type             X           Y           Z
 ---------------------------------------------------------------------
      1          6           0        0.510103   -1.303016   -0.447265
      2          6           0        0.668409    0.058709    0.282635
      3          9           0        1.016315   -0.160577    1.546079
      4          9           0        1.620836    0.772196   -0.321342
      5         16           0       -0.857042    1.179837    0.239522
      6          8           0       -2.112690    0.185607    0.302504
      7          8           0       -0.715667    2.039856    1.374648
      8          8           0       -1.001169    1.667821   -1.108446
      9          9           0       -0.288515   -2.101671    0.247503
     10          9           0        0.003746   -1.128037   -1.663379
     11          9           0        1.703242   -1.873991   -0.556437
     12          1           0       -2.518503    0.277282   -0.571650
 ---------------------------------------------------------------------

 Normal termination of Gaussian 16 at Fri May 23 04:11:29 2025.
