 Gaussian 16, Revision C.01,
 Gaussian 16:  ES64L-G16RevC.01  3-Jul-2019

 ----------------------------------------------------------------------
 #P wb97xd/6-311++G(d,p) Symm(None) scf(xqc) pop(None) geom(AllCheck,No
 KeepConstants) guess(Read) irc(RCFC,forward,MaxPoints=100,StepSize=2)
 ----------------------------------------------------------------------

 Structure from the checkpoint file:  "2003846667223680600001_r12_insertion_R_12_8_5_IRC_F.chk"
 ------------------------------
 Gaussian input prepared by ASE
 ------------------------------
 Charge =  0 Multiplicity = 1

 SCF Done:  E(RwB97XD) =  -1199.76704938     A.U. after   10 cycles
 SCF Done:  E(RwB97XD) =  -1199.76713930     A.U. after   10 cycles
 SCF Done:  E(RwB97XD) =  -1199.76728883     A.U. after   10 cycles
 SCF Done:  E(RwB97XD) =  -1199.76749773     A.U. after   10 cycles
 SCF Done:  E(RwB97XD) =  -1199.76776550     A.U. after   10 cycles
 SCF Done:  E(RwB97XD) =  -1199.76809108     A.U. after   10 cycles
 SCF Done:  E(RwB97XD) =  -1199.76847284     A.U. after   10 cycles
 SCF Done:  E(RwB97XD) =  -1199.76890880     A.U. after   10 cycles
 SCF Done:  E(RwB97XD) =  -1199.76939689     A.U. after   10 cycles
 SCF Done:  E(RwB97XD) =  -1199.76993508     A.U. after   10 cycles
 SCF Done:  E(RwB97XD) =  -1199.81646244     A.U. after    9 cycles
 SCF Done:  E(RwB97XD) =  -1199.81669907     A.U. after    9 cycles
 SCF Done:  E(RwB97XD) =  -1199.81693110     A.U. after    9 cycles
 SCF Done:  E(RwB97XD) =  -1199.81715860     A.U. after    9 cycles
 SCF Done:  E(RwB97XD) =  -1199.81738168     A.U. after    9 cycles
 SCF Done:  E(RwB97XD) =  -1199.81760043     A.U. after    9 cycles
 SCF Done:  E(RwB97XD) =  -1199.81781491     A.U. after    9 cycles
 SCF Done:  E(RwB97XD) =  -1199.81802522     A.U. after    9 cycles
 SCF Done:  E(RwB97XD) =  -1199.81823143     A.U. after    9 cycles
 SCF Done:  E(RwB97XD) =  -1199.81843361     A.U. after    9 cycles

                          Input orientation:
 ---------------------------------------------------------------------
 Center     Atomic      Atomic             Coordinates (Angstroms)
 Number     Number       Type             X           Y           Z
 ---------------------------------------------------------------------
      1          6           0       -1.242314   -0.365924    0.762507
      2          6           0       -0.462433    0.154113   -0.488830
      3          9           0       -0.780898   -0.589456   -1.546410
      4          9           0       -0.798712    1.422608   -0.712997
      5         16           0        1.404462    0.121325   -0.229517
      6          8           0        1.773075    1.253535    0.581590
      7          8           0        1.740970   -1.229370    0.107469
      8          8           0        1.949857    0.619105   -1.651169
      9          9           0       -1.122076   -1.678461    0.875008
     10          9           0       -0.778500    0.216560    1.861077
     11          9           0       -2.529517   -0.062483    0.624060
     12          1           0        2.315409    1.494295   -1.457980
 ---------------------------------------------------------------------

 Normal termination of Gaussian 16 at Fri May 23 04:09:07 2025.
