 Gaussian 16, Revision C.01,
 Gaussian 16:  ES64L-G16RevC.01  3-Jul-2019

 ----------------------------------------------------------------------
 #P wb97xd/6-311++G(d,p) Symm(None) scf(xqc) pop(None) freq opt(CalcFC)
 ----------------------------------------------------------------------

 ------------------------------
 Gaussian input prepared by ASE
 ------------------------------
 Symbolic Z-matrix:
 Charge =  0 Multiplicity = 1

 SCF Done:  E(RwB97XD) =  -1199.73423774     A.U. after   17 cycles
 SCF Done:  E(RwB97XD) =  -1199.77628252     A.U. after   14 cycles
 SCF Done:  E(RwB97XD) =  -1199.81346873     A.U. after   15 cycles
 SCF Done:  E(RwB97XD) =  -1199.82054615     A.U. after   15 cycles
 SCF Done:  E(RwB97XD) =  -1199.82261018     A.U. after   15 cycles
 SCF Done:  E(RwB97XD) =  -1199.82380523     A.U. after   12 cycles
 SCF Done:  E(RwB97XD) =  -1199.82463949     A.U. after   12 cycles
 SCF Done:  E(RwB97XD) =  -1199.82505007     A.U. after   12 cycles
 SCF Done:  E(RwB97XD) =  -1199.82550834     A.U. after   12 cycles
 SCF Done:  E(RwB97XD) =  -1199.82574066     A.U. after   12 cycles
 SCF Done:  E(RwB97XD) =  -1199.82587326     A.U. after   12 cycles
 SCF Done:  E(RwB97XD) =  -1199.82595892     A.U. after   14 cycles
 SCF Done:  E(RwB97XD) =  -1199.82591492     A.U. after   13 cycles
 SCF Done:  E(RwB97XD) =  -1199.82602590     A.U. after   12 cycles
 SCF Done:  E(RwB97XD) =  -1199.82604453     A.U. after   12 cycles
 SCF Done:  E(RwB97XD) =  -1199.82602480     A.U. after   12 cycles
 SCF Done:  E(RwB97XD) =  -1199.82604895     A.U. after   12 cycles
 SCF Done:  E(RwB97XD) =  -1199.82604897     A.U. after   10 cycles
 SCF Done:  E(RwB97XD) =  -1199.82604950     A.U. after   10 cycles
 Optimization completed.
    -- Stationary point found.
 Normal termination of Gaussian 16 at Fri May 23 07:02:05 2025.

 ----------------------------------------------------------------------
 #P Geom=AllCheck Guess=TCheck SCRF=Check GenChk RwB97XD/6-311++G(d,p)
 Freq
 ----------------------------------------------------------------------

 Structure from the checkpoint file:  "2003846667223680600001_r12_insertion_R_2_5_6_IRC_R_prod.chk"
 ------------------------------
 Gaussian input prepared by ASE
 ------------------------------
 Charge =  0 Multiplicity = 1

                          Input orientation:
 ---------------------------------------------------------------------
 Center     Atomic      Atomic             Coordinates (Angstroms)
 Number     Number       Type             X           Y           Z
 ---------------------------------------------------------------------
      1          6           0       -1.276179   -0.441421    0.620792
      2          6           0       -0.397386    0.277642   -0.442192
      3          9           0       -0.743768   -0.142424   -1.655721
      4          9           0       -0.606077    1.598945   -0.354092
      5         16           0        1.443516   -0.012423   -0.227303
      6          8           0        1.791549    0.432879    1.093061
      7          8           0        1.753649   -1.306944   -0.740341
      8          8           0        1.971332    1.052412   -1.302930
      9          9           0       -0.974034   -1.732891    0.665564
     10          9           0       -1.092177    0.094145    1.817814
     11          9           0       -2.554371   -0.307458    0.281272
     12          1           0        2.068469    1.923224   -0.895534
 ---------------------------------------------------------------------

 SCF Done:  E(RwB97XD) =  -1199.82604950     A.U. after    1 cycles

 Isotropic polarizability for W=    0.000000       55.70 Bohr**3.
 End of Minotr F.D. properties file   721 does not exist.

                      1                      2                      3
                      A                      A                      A
 Frequencies --     31.0430                68.3196               132.0284
 Red. masses --     14.3208                14.2923                14.7318
 Frc consts  --      0.0081                 0.0393                 0.1513
 IR Inten    --      1.2289                 0.7782                 1.2418

                      4                      5                      6
                      A                      A                      A
 Frequencies --    194.5752               222.6015               234.6790
 Red. masses --      9.3000                17.9255                 8.1074
 Frc consts  --      0.2074                 0.5233                 0.2631
 IR Inten    --      8.2577                 1.1951                 9.5258

                      7                      8                      9
                      A                      A                      A
 Frequencies --    275.3289               311.2265               318.1421
 Red. masses --     15.2509                 5.1792                18.2065
 Frc consts  --      0.6812                 0.2956                 1.0857
 IR Inten    --      1.4196                16.0063                 0.3246

                     10                     11                     12
                      A                      A                      A
 Frequencies --    359.8083               371.4470               437.1329
 Red. masses --      1.8659                17.5978                 4.0614
 Frc consts  --      0.1423                 1.4305                 0.4573
 IR Inten    --     56.8746                 0.1919                31.5021

                     13                     14                     15
                      A                      A                      A
 Frequencies --    484.8651               489.8548               539.4119
 Red. masses --     12.8492                 8.4576                17.8447
 Frc consts  --      1.7798                 1.1957                 3.0592
 IR Inten    --     13.7930                21.8041                28.4978

                     16                     17                     18
                      A                      A                      A
 Frequencies --    600.3754               609.6060               653.7111
 Red. masses --     17.3783                20.1330                17.3595
 Frc consts  --      3.6906                 4.4082                 4.3708
 IR Inten    --      3.5384               118.6332                30.4712

                     19                     20                     21
                      A                      A                      A
 Frequencies --    764.7884               826.0371              1005.6489
 Red. masses --     17.1265                17.1181                13.8187
 Frc consts  --      5.9020                 6.8818                 8.2340
 IR Inten    --     40.5905               218.4428                52.3220

                     22                     23                     24
                      A                      A                      A
 Frequencies --   1131.2526              1157.9644              1203.1662
 Red. masses --      1.1959                12.0163                15.9818
 Frc consts  --      0.9017                 9.4931                13.6310
 IR Inten    --    109.2420               238.9693                 7.1135

                     25                     26                     27
                      A                      A                      A
 Frequencies --   1218.9492              1249.5344              1254.1276
 Red. masses --     13.1304                13.7635                13.1771
 Frc consts  --     11.4948                12.6612                12.2110
 IR Inten    --    109.9093               334.4331               260.3556

                     28                     29                     30
                      A                      A                      A
 Frequencies --   1344.6592              1446.7074              3832.4933
 Red. masses --     12.6467                14.3396                 1.0663
 Frc consts  --     13.4726                17.6827                 9.2273
 IR Inten    --    106.9122               312.8238               161.4748

 - Thermochemistry -
 -------------------
 Temperature   298.150 Kelvin.  Pressure   1.00000 Atm.
 Atom     1 has atomic number  6 and mass  12.00000

 Molecular mass:   199.95666 amu.
 Principal axes and moments of inertia in atomic units:
                           1         2         3
     Eigenvalues --  1133.469132197.703422320.41362
           X            0.93647   0.34721   0.04973
           Y            0.17165  -0.57730   0.79829
           Z           -0.30588   0.73904   0.60022
 This molecule is an asymmetric top.
 Rotational symmetry number  1.
 Warning -- assumption of classical behavior for rotation
           may cause significant error
 Rotational temperatures (Kelvin)      0.07641     0.03941     0.03733
 Rotational constants (GHZ):           1.59223     0.82119     0.77777
 Zero-point vibrational energy     136191.8 (Joules/Mol)
                                   32.55061 (Kcal/Mol)
 Warning -- explicit consideration of  17 degrees of freedom as
           vibrations may cause significant error
 Vibrational temperatures:     44.66    98.30   189.96   279.95   320.27
          (Kelvin)            337.65   396.14   447.79   457.74   517.68
                              534.43   628.94   697.61   704.79   776.09
                              863.81   877.09   940.54  1100.36  1188.48
                             1446.90  1627.62  1666.05  1731.09  1753.80
                             1797.80  1804.41  1934.66  2081.49  5514.10

 Zero-point correction=                           0.051873 (Hartree/Particle)
 Thermal correction to Energy=                    0.062300
 Thermal correction to Enthalpy=                  0.063245
 Thermal correction to Gibbs Free Energy=         0.014765
 Sum of electronic and zero-point Energies=          -1199.774177
 Sum of electronic and thermal Energies=             -1199.763749
 Sum of electronic and thermal Enthalpies=           -1199.762805
 Sum of electronic and thermal Free Energies=        -1199.811284

                     E (Thermal)             CV                S
                      KCal/Mol        Cal/Mol-Kelvin    Cal/Mol-Kelvin
 Total                   39.094             36.584            102.034
 Electronic               0.000              0.000              0.000
 Translational            0.889              2.981             41.783
 Rotational               0.889              2.981             30.137
 Vibrational             37.317             30.622             30.114
 Vibration     1          0.594              1.983              5.762
 Vibration     2          0.598              1.969              4.201
 Vibration     3          0.612              1.921              2.916
 Vibration     4          0.635              1.847              2.184
 Vibration     5          0.648              1.807              1.938
 Vibration     6          0.654              1.788              1.843
 Vibration     7          0.677              1.719              1.563
 Vibration     8          0.700              1.652              1.356
 Vibration     9          0.705              1.639              1.320
 Vibration    10          0.734              1.555              1.123
 Vibration    11          0.743              1.531              1.074
 Vibration    12          0.797              1.389              0.836
 Vibration    13          0.841              1.284              0.697
 Vibration    14          0.846              1.273              0.684
 Vibration    15          0.894              1.163              0.567
 Vibration    16          0.959              1.031              0.449
 Vibration    17          0.969              1.011              0.433

                           ! Non-Optimized Parameters !
 Normal termination of Gaussian 16 at Fri May 23 07:03:28 2025.
