 Gaussian 16, Revision C.01,
 Gaussian 16:  ES64L-G16RevC.01  3-Jul-2019

 ----------------------------------------------------------------------
 #P mp2/6-31G Symm(None) scf(xqc) pop(None) guess(Mix,Always) opt(NoFre
 eze,TS,CalcAll,NoEigentest,MaxCycle=999,Cartesian)
 ----------------------------------------------------------------------

 ------------------------------
 Gaussian input prepared by ASE
 ------------------------------
 Symbolic Z-matrix:
 Charge =  0 Multiplicity = 1

 SCF Done:  E(RHF) =  -1194.96619701     A.U. after   19 cycles
 E2 =    -0.1288493116D+01 EUMP2 =    -0.11962546901296D+04
 E2 =    -0.1288493116D+01 EUMP2 =    -0.11962546901296D+04
 SCF Done:  E(RHF) =  -1194.96587216     A.U. after   19 cycles
 E2 =    -0.1288834385D+01 EUMP2 =    -0.11962547065426D+04
 E2 =    -0.1288834385D+01 EUMP2 =    -0.11962547065426D+04
 SCF Done:  E(RHF) =  -1194.96562882     A.U. after   19 cycles
 E2 =    -0.1289075288D+01 EUMP2 =    -0.11962547041047D+04
 E2 =    -0.1289075288D+01 EUMP2 =    -0.11962547041047D+04
 SCF Done:  E(RHF) =  -1194.96598977     A.U. after   19 cycles
 E2 =    -0.1288753583D+01 EUMP2 =    -0.11962547433559D+04
 E2 =    -0.1288753583D+01 EUMP2 =    -0.11962547433559D+04
 SCF Done:  E(RHF) =  -1194.96517268     A.U. after   19 cycles
 E2 =    -0.1289466598D+01 EUMP2 =    -0.11962546392784D+04
 E2 =    -0.1289466598D+01 EUMP2 =    -0.11962546392784D+04
 SCF Done:  E(RHF) =  -1194.96568528     A.U. after   19 cycles
 E2 =    -0.1288996513D+01 EUMP2 =    -0.11962546817918D+04
 E2 =    -0.1288996513D+01 EUMP2 =    -0.11962546817918D+04
 SCF Done:  E(RHF) =  -1194.96429833     A.U. after   19 cycles
 E2 =    -0.1290208860D+01 EUMP2 =    -0.11962545071913D+04
 E2 =    -0.1290208860D+01 EUMP2 =    -0.11962545071913D+04
 SCF Done:  E(RHF) =  -1194.96517053     A.U. after   19 cycles
 E2 =    -0.1289447479D+01 EUMP2 =    -0.11962546180132D+04
 E2 =    -0.1289447479D+01 EUMP2 =    -0.11962546180132D+04
 SCF Done:  E(RHF) =  -1194.96398976     A.U. after   19 cycles
 E2 =    -0.1290591997D+01 EUMP2 =    -0.11962545817620D+04
 E2 =    -0.1290591997D+01 EUMP2 =    -0.11962545817620D+04
 SCF Done:  E(RHF) =  -1194.96494021     A.U. after   19 cycles
 E2 =    -0.1289791865D+01 EUMP2 =    -0.11962547320728D+04
 E2 =    -0.1289791865D+01 EUMP2 =    -0.11962547320728D+04
 SCF Done:  E(RHF) =  -1194.96591426     A.U. after   19 cycles
 E2 =    -0.1289470775D+01 EUMP2 =    -0.11962553850324D+04
 E2 =    -0.1289470775D+01 EUMP2 =    -0.11962553850324D+04
 SCF Done:  E(RHF) =  -1194.96524923     A.U. after   19 cycles
 E2 =    -0.1290071700D+01 EUMP2 =    -0.11962553209336D+04
 E2 =    -0.1290071700D+01 EUMP2 =    -0.11962553209336D+04
 SCF Done:  E(RHF) =  -1194.96595356     A.U. after   19 cycles
 E2 =    -0.1289441944D+01 EUMP2 =    -0.11962553955011D+04
 E2 =    -0.1289441944D+01 EUMP2 =    -0.11962553955011D+04
 SCF Done:  E(RHF) =  -1194.96557450     A.U. after   19 cycles
 E2 =    -0.1289820736D+01 EUMP2 =    -0.11962553952343D+04
 E2 =    -0.1289820736D+01 EUMP2 =    -0.11962553952343D+04
 SCF Done:  E(RHF) =  -1194.96588417     A.U. after   19 cycles
 E2 =    -0.1289517279D+01 EUMP2 =    -0.11962554014538D+04
 E2 =    -0.1289517279D+01 EUMP2 =    -0.11962554014538D+04
 SCF Done:  E(RHF) =  -1194.96564023     A.U. after   19 cycles
 E2 =    -0.1289759673D+01 EUMP2 =    -0.11962553998983D+04
 E2 =    -0.1289759673D+01 EUMP2 =    -0.11962553998983D+04
 SCF Done:  E(RHF) =  -1194.96587081     A.U. after   19 cycles
 E2 =    -0.1289533256D+01 EUMP2 =    -0.11962554040701D+04
 E2 =    -0.1289533256D+01 EUMP2 =    -0.11962554040701D+04
 SCF Done:  E(RHF) =  -1194.96569255     A.U. after   18 cycles
 E2 =    -0.1289709658D+01 EUMP2 =    -0.11962554022105D+04
 E2 =    -0.1289709658D+01 EUMP2 =    -0.11962554022105D+04
 SCF Done:  E(RHF) =  -1194.96586493     A.U. after   18 cycles
 E2 =    -0.1289539883D+01 EUMP2 =    -0.11962554048124D+04
 E2 =    -0.1289539883D+01 EUMP2 =    -0.11962554048124D+04
 SCF Done:  E(RHF) =  -1194.96586209     A.U. after   18 cycles
 E2 =    -0.1289542727D+01 EUMP2 =    -0.11962554048187D+04
 E2 =    -0.1289542727D+01 EUMP2 =    -0.11962554048187D+04
 Optimization completed.
    -- Stationary point found.

                          Input orientation:
 ---------------------------------------------------------------------
 Center     Atomic      Atomic             Coordinates (Angstroms)
 Number     Number       Type             X           Y           Z
 ---------------------------------------------------------------------
      1          6           0       -0.535061   -0.245008    1.558340
      2          6           0        0.078002    0.444786    0.330020
      3          9           0       -0.300776   -0.223262   -0.826121
      4          9           0       -0.298043    1.780505    0.300503
      5         16           0        2.081387    0.430976    0.349767
      6          8           0        2.618153    1.358362    1.528598
      7          8           0        2.614893   -1.059231    0.169559
      8          8           0        2.084601    1.322782   -1.236687
      9          9           0       -0.120378   -1.571389    1.607947
     10          9           0       -0.117513    0.400812    2.716910
     11          9           0       -1.922911   -0.201211    1.484034
     12          1           0        3.023612    1.481257   -1.521327
 ---------------------------------------------------------------------

 ******    1 imaginary frequencies (negative Signs) ******

                      1                      2                      3
                      A                      A                      A
 Frequencies --    -94.9816                11.3314                62.5978
 Red. masses --      1.2672                 6.7549                10.4235
 Frc consts  --      0.0067                 0.0005                 0.0241
 IR Inten    --    116.7553                12.5884                 2.8268

                      4                      5                      6
                      A                      A                      A
 Frequencies --    116.9326               140.5401               192.1039
 Red. masses --     14.2681                11.2318                10.1246
 Frc consts  --      0.1149                 0.1307                 0.2201
 IR Inten    --      0.2653                 1.2179                 4.3276

                      7                      8                      9
                      A                      A                      A
 Frequencies --    207.6035               215.0692               260.8665
 Red. masses --     16.5207                13.2129                15.8374
 Frc consts  --      0.4195                 0.3601                 0.6350
 IR Inten    --      9.4379                 4.0246                10.2041

                     10                     11                     12
                      A                      A                      A
 Frequencies --    280.4220               343.2274               347.1191
 Red. masses --     18.1915                17.6826                16.7208
 Frc consts  --      0.8428                 1.2273                 1.1870
 IR Inten    --      2.4640                 1.2244                32.9327

                     13                     14                     15
                      A                      A                      A
 Frequencies --    364.8543               416.5584               452.6029
 Red. masses --     12.5811                18.0818                14.2928
 Frc consts  --      0.9868                 1.8486                 1.7250
 IR Inten    --     22.1342                 0.0112               106.9280

                     16                     17                     18
                      A                      A                      A
 Frequencies --    492.4779               560.4677               571.6319
 Red. masses --     16.1427                17.7962                16.4157
 Frc consts  --      2.3067                 3.2937                 3.1604
 IR Inten    --      8.5495                 2.7211               104.4984

                     19                     20                     21
                      A                      A                      A
 Frequencies --    614.1404               689.1425               905.5649
 Red. masses --     18.1920                17.0192                13.6268
 Frc consts  --      4.0427                 4.7622                 6.5839
 IR Inten    --    132.3006                 5.0472                98.3751

                     22                     23                     24
                      A                      A                      A
 Frequencies --    976.7893              1073.3365              1115.5108
 Red. masses --     11.0645                 2.3640                 2.0590
 Frc consts  --      6.2199                 1.6046                 1.5095
 IR Inten    --     56.6406               219.7337                 8.0841

                     25                     26                     27
                      A                      A                      A
 Frequencies --   1122.2211              1203.6183              1206.7786
 Red. masses --     19.8715                13.1401                12.4914
 Frc consts  --     14.7448                11.2157                10.7181
 IR Inten    --    122.0203                54.3183               158.0754

                     28                     29                     30
                      A                      A                      A
 Frequencies --   1217.2162              1314.6526              3509.3163
 Red. masses --     13.3581                11.1208                 1.0663
 Frc consts  --     11.6609                11.3242                 7.7368
 IR Inten    --    294.0795               127.6988                96.3844

 - Thermochemistry -
 -------------------
 Temperature   298.150 Kelvin.  Pressure   1.00000 Atm.
 Atom     1 has atomic number  6 and mass  12.00000

 Molecular mass:   199.95666 amu.
 Principal axes and moments of inertia in atomic units:
                           1         2         3
     Eigenvalues --  1293.007762369.680912517.50620
           X            0.87215   0.48924   0.00118
           Y            0.23888  -0.42792   0.87168
           Z           -0.42697   0.75995   0.49008
 This molecule is an asymmetric top.
 Rotational symmetry number  1.
 Warning -- assumption of classical behavior for rotation
           may cause significant error
 Rotational temperatures (Kelvin)      0.06699     0.03655     0.03440
 Rotational constants (GHZ):           1.39577     0.76160     0.71688
    1 imaginary frequencies ignored.
 Zero-point vibrational energy     119535.0 (Joules/Mol)
                                   28.56955 (Kcal/Mol)
 Warning -- explicit consideration of  18 degrees of freedom as
           vibrations may cause significant error
 Vibrational temperatures:     16.30    90.06   168.24   202.21   276.39
          (Kelvin)            298.70   309.44   375.33   403.46   493.83
                              499.43   524.94   599.33   651.19   708.57
                              806.39   822.45   883.61   991.52  1302.91
                             1405.38  1544.29  1604.97  1614.63  1731.74
                             1736.29  1751.30  1891.49  5049.12

 Zero-point correction=                           0.045528 (Hartree/Particle)
 Thermal correction to Energy=                    0.056746
 Thermal correction to Enthalpy=                  0.057690
 Thermal correction to Gibbs Free Energy=         0.006407
 Sum of electronic and zero-point Energies=          -1196.209876
 Sum of electronic and thermal Energies=             -1196.198659
 Sum of electronic and thermal Enthalpies=           -1196.197715
 Sum of electronic and thermal Free Energies=        -1196.248998

                     E (Thermal)             CV                S
                      KCal/Mol        Cal/Mol-Kelvin    Cal/Mol-Kelvin
 Total                   35.608             38.019            107.935
 Electronic               0.000              0.000              0.000
 Translational            0.889              2.981             41.783
 Rotational               0.889              2.981             30.423
 Vibrational             33.831             32.057             35.728
 Vibration     1          0.593              1.987              7.763
 Vibration     2          0.597              1.972              4.374
 Vibration     3          0.608              1.935              3.150
 Vibration     4          0.615              1.913              2.797
 Vibration     5          0.634              1.851              2.207
 Vibration     6          0.641              1.829              2.065
 Vibration     7          0.645              1.818              2.000
 Vibration     8          0.669              1.744              1.656
 Vibration     9          0.680              1.710              1.531
 Vibration    10          0.722              1.589              1.197
 Vibration    11          0.725              1.581              1.179
 Vibration    12          0.738              1.545              1.101
 Vibration    13          0.780              1.434              0.904
 Vibration    14          0.811              1.355              0.788
 Vibration    15          0.848              1.267              0.677
 Vibration    16          0.916              1.117              0.523
 Vibration    17          0.928              1.093              0.501
 Vibration    18          0.974              1.002              0.426

 Normal termination of Gaussian 16 at Fri May 23 04:30:29 2025.
