 Gaussian 16, Revision C.01,
 Gaussian 16:  ES64L-G16RevC.01  3-Jul-2019

 ----------------------------------------------------------------------
 #P wb97xd/6-311++G(d,p) Symm(None) scf(xqc) pop(None) geom(AllCheck,No
 KeepConstants) guess(Read) irc(RCFC,reverse,MaxPoints=100,StepSize=2)
 ----------------------------------------------------------------------

 Structure from the checkpoint file:  "2003846667223680600001_intra_H_migration_suprafacial_6_12_IRC_R.chk"
 ------------------------------
 Gaussian input prepared by ASE
 ------------------------------
 Charge =  0 Multiplicity = 1

 SCF Done:  E(RwB97XD) =  -1199.76592814     A.U. after    9 cycles
 SCF Done:  E(RwB97XD) =  -1199.76601994     A.U. after   10 cycles
 SCF Done:  E(RwB97XD) =  -1199.76617260     A.U. after   10 cycles
 SCF Done:  E(RwB97XD) =  -1199.76638491     A.U. after   10 cycles
 SCF Done:  E(RwB97XD) =  -1199.76665539     A.U. after   10 cycles
 SCF Done:  E(RwB97XD) =  -1199.76698283     A.U. after   10 cycles
 SCF Done:  E(RwB97XD) =  -1199.76736629     A.U. after   10 cycles
 SCF Done:  E(RwB97XD) =  -1199.76780474     A.U. after   10 cycles
 SCF Done:  E(RwB97XD) =  -1199.76829665     A.U. after   10 cycles
 SCF Done:  E(RwB97XD) =  -1199.76883978     A.U. after   10 cycles
 SCF Done:  E(RwB97XD) =  -1199.81604308     A.U. after    9 cycles
 SCF Done:  E(RwB97XD) =  -1199.81628532     A.U. after    9 cycles
 SCF Done:  E(RwB97XD) =  -1199.81652292     A.U. after    9 cycles
 SCF Done:  E(RwB97XD) =  -1199.81675598     A.U. after    9 cycles
 SCF Done:  E(RwB97XD) =  -1199.81698460     A.U. after    9 cycles
 SCF Done:  E(RwB97XD) =  -1199.81720886     A.U. after    9 cycles
 SCF Done:  E(RwB97XD) =  -1199.81742886     A.U. after    9 cycles
 SCF Done:  E(RwB97XD) =  -1199.81764467     A.U. after    9 cycles
 SCF Done:  E(RwB97XD) =  -1199.81785637     A.U. after    9 cycles
 SCF Done:  E(RwB97XD) =  -1199.81806404     A.U. after    9 cycles

                          Input orientation:
 ---------------------------------------------------------------------
 Center     Atomic      Atomic             Coordinates (Angstroms)
 Number     Number       Type             X           Y           Z
 ---------------------------------------------------------------------
      1          6           0        0.859673   -1.128879   -0.374817
      2          6           0        0.595751    0.218133    0.359322
      3          9           0        0.814935    0.041205    1.661520
      4          9           0        1.421095    1.152369   -0.107510
      5         16           0       -1.184985    0.837811    0.195724
      6          8           0       -2.067129   -0.294539    0.054095
      7          8           0       -1.330040    1.818509    1.227856
      8          8           0       -1.250905    1.417328   -1.294734
      9          9           0        0.197466   -2.115024    0.205007
     10          9           0        0.491953   -1.038576   -1.651136
     11          9           0        2.160836   -1.393761   -0.323990
     12          1           0       -1.849923    0.806879   -1.747894
 ---------------------------------------------------------------------

 Normal termination of Gaussian 16 at Fri May 23 04:12:13 2025.
