 Gaussian 16, Revision C.01,
 Gaussian 16:  ES64L-G16RevC.01  3-Jul-2019

 ----------------------------------------------------------------------
 #P wb97xd/6-311++G(d,p) Symm(None) scf(xqc) pop(None) freq opt(CalcFC)
 ----------------------------------------------------------------------

 ------------------------------
 Gaussian input prepared by ASE
 ------------------------------
 Symbolic Z-matrix:
 Charge =  0 Multiplicity = 1

 SCF Done:  E(RwB97XD) =  -1199.82201503     A.U. after   14 cycles
 SCF Done:  E(RwB97XD) =  -1199.82242838     A.U. after   13 cycles
 SCF Done:  E(RwB97XD) =  -1199.82377398     A.U. after   14 cycles
 SCF Done:  E(RwB97XD) =  -1199.82542347     A.U. after   14 cycles
 SCF Done:  E(RwB97XD) =  -1199.82549908     A.U. after   12 cycles
 SCF Done:  E(RwB97XD) =  -1199.82457677     A.U. after   14 cycles
 SCF Done:  E(RwB97XD) =  -1199.82570430     A.U. after   14 cycles
 SCF Done:  E(RwB97XD) =  -1199.82538460     A.U. after   11 cycles
 SCF Done:  E(RwB97XD) =  -1199.82579201     A.U. after   12 cycles
 SCF Done:  E(RwB97XD) =  -1199.82590912     A.U. after   12 cycles
 SCF Done:  E(RwB97XD) =  -1199.82598388     A.U. after   13 cycles
 SCF Done:  E(RwB97XD) =  -1199.82602875     A.U. after   12 cycles
 SCF Done:  E(RwB97XD) =  -1199.82569056     A.U. after   14 cycles
 SCF Done:  E(RwB97XD) =  -1199.82604606     A.U. after   13 cycles
 SCF Done:  E(RwB97XD) =  -1199.82603547     A.U. after   11 cycles
 SCF Done:  E(RwB97XD) =  -1199.82604710     A.U. after   11 cycles
 SCF Done:  E(RwB97XD) =  -1199.82604705     A.U. after   10 cycles
 SCF Done:  E(RwB97XD) =  -1199.82604714     A.U. after    9 cycles
 Optimization completed.
    -- Stationary point found.
 Normal termination of Gaussian 16 at Fri May 23 03:49:03 2025.

 ----------------------------------------------------------------------
 #P Geom=AllCheck Guess=TCheck SCRF=Check GenChk RwB97XD/6-311++G(d,p)
 Freq
 ----------------------------------------------------------------------

 Structure from the checkpoint file:  "2003846667223680600001_r12_insertion_R_8_5_6_IRC_F_prod.chk"
 ------------------------------
 Gaussian input prepared by ASE
 ------------------------------
 Charge =  0 Multiplicity = 1

                          Input orientation:
 ---------------------------------------------------------------------
 Center     Atomic      Atomic             Coordinates (Angstroms)
 Number     Number       Type             X           Y           Z
 ---------------------------------------------------------------------
      1          6           0       -1.212541   -0.242336    0.845463
      2          6           0       -0.404712    0.461705   -0.281891
      3          9           0       -1.072659    0.363498   -1.427887
      4          9           0       -0.256509    1.755718    0.035378
      5         16           0        1.311453   -0.249275   -0.543961
      6          8           0        2.007849   -0.148965    0.708144
      7          8           0        1.183562   -1.457782   -1.291171
      8          8           0        1.870124    0.863945   -1.552963
      9          9           0       -0.671815    0.001856    2.029336
     10          9           0       -2.456967    0.224952    0.836251
     11          9           0       -1.241346   -1.552602    0.636807
     12          1           0        2.257460    1.600346   -1.061629
 ---------------------------------------------------------------------

 SCF Done:  E(RwB97XD) =  -1199.82604714     A.U. after    1 cycles

 Isotropic polarizability for W=    0.000000       55.71 Bohr**3.
 End of Minotr F.D. properties file   721 does not exist.

                      1                      2                      3
                      A                      A                      A
 Frequencies --     29.0305                68.2846               132.0893
 Red. masses --     14.0241                14.6237                14.6569
 Frc consts  --      0.0070                 0.0402                 0.1507
 IR Inten    --      1.3209                 0.7001                 1.2897

                      4                      5                      6
                      A                      A                      A
 Frequencies --    193.1731               222.7412               234.5080
 Red. masses --      9.3821                18.0369                 8.0652
 Frc consts  --      0.2063                 0.5272                 0.2613
 IR Inten    --      8.1609                 1.1719                 9.6481

                      7                      8                      9
                      A                      A                      A
 Frequencies --    275.2705               311.4628               318.0907
 Red. masses --     15.2832                 5.3372                18.1616
 Frc consts  --      0.6823                 0.3051                 1.0827
 IR Inten    --      1.4417                15.2472                 0.3802

                     10                     11                     12
                      A                      A                      A
 Frequencies --    360.4089               371.4945               437.0880
 Red. masses --      1.8553                17.3695                 4.0217
 Frc consts  --      0.1420                 1.4123                 0.4527
 IR Inten    --     57.0956                 0.2589                31.7409

                     13                     14                     15
                      A                      A                      A
 Frequencies --    484.4904               489.6284               539.5239
 Red. masses --     13.2447                 8.3054                17.8439
 Frc consts  --      1.8317                 1.1731                 3.0603
 IR Inten    --     14.9909                20.4774                28.9317

                     16                     17                     18
                      A                      A                      A
 Frequencies --    600.3799               608.8295               653.8038
 Red. masses --     17.3805                20.1385                17.3448
 Frc consts  --      3.6912                 4.3981                 4.3683
 IR Inten    --      3.5526               118.7093                29.6470

                     19                     20                     21
                      A                      A                      A
 Frequencies --    764.7740               826.0036              1005.8420
 Red. masses --     17.1227                17.1197                13.8145
 Frc consts  --      5.9005                 6.8819                 8.2347
 IR Inten    --     40.7327               218.4451                52.8190

                     22                     23                     24
                      A                      A                      A
 Frequencies --   1130.7771              1157.7412              1201.5703
 Red. masses --      1.1953                12.2069                15.9999
 Frc consts  --      0.9005                 9.6401                13.6102
 IR Inten    --    107.6580               242.1712                 6.2185

                     25                     26                     27
                      A                      A                      A
 Frequencies --   1219.4638              1249.0974              1254.0307
 Red. masses --     13.1188                13.6947                13.1788
 Frc consts  --     11.4943                12.5891                12.2108
 IR Inten    --    109.5356               332.8495               260.7385

                     28                     29                     30
                      A                      A                      A
 Frequencies --   1344.8437              1442.9222              3832.3707
 Red. masses --     12.6428                14.2329                 1.0663
 Frc consts  --     13.4722                17.4594                 9.2267
 IR Inten    --    106.8872               313.4129               161.5854

 - Thermochemistry -
 -------------------
 Temperature   298.150 Kelvin.  Pressure   1.00000 Atm.
 Atom     1 has atomic number  6 and mass  12.00000

 Molecular mass:   199.95666 amu.
 Principal axes and moments of inertia in atomic units:
                           1         2         3
     Eigenvalues --  1133.439162197.844762320.52558
           X            0.87232  -0.32845   0.36219
           Y            0.02317   0.76770   0.64039
           Z           -0.48839  -0.55023   0.67729
 This molecule is an asymmetric top.
 Rotational symmetry number  1.
 Warning -- assumption of classical behavior for rotation
           may cause significant error
 Rotational temperatures (Kelvin)      0.07642     0.03941     0.03733
 Rotational constants (GHZ):           1.59227     0.82114     0.77773
 Zero-point vibrational energy     136133.4 (Joules/Mol)
                                   32.53667 (Kcal/Mol)
 Warning -- explicit consideration of  17 degrees of freedom as
           vibrations may cause significant error
 Vibrational temperatures:     41.77    98.25   190.05   277.93   320.47
          (Kelvin)            337.40   396.05   448.13   457.66   518.55
                              534.50   628.87   697.07   704.47   776.25
                              863.81   875.97   940.68  1100.34  1188.43
                             1447.18  1626.94  1665.73  1728.79  1754.54
                             1797.17  1804.27  1934.93  2076.04  5513.93

 Zero-point correction=                           0.051850 (Hartree/Particle)
 Thermal correction to Energy=                    0.062285
 Thermal correction to Enthalpy=                  0.063229
 Thermal correction to Gibbs Free Energy=         0.014680
 Sum of electronic and zero-point Energies=          -1199.774197
 Sum of electronic and thermal Energies=             -1199.763762
 Sum of electronic and thermal Enthalpies=           -1199.762818
 Sum of electronic and thermal Free Energies=        -1199.811367

                     E (Thermal)             CV                S
                      KCal/Mol        Cal/Mol-Kelvin    Cal/Mol-Kelvin
 Total                   39.084             36.590            102.180
 Electronic               0.000              0.000              0.000
 Translational            0.889              2.981             41.783
 Rotational               0.889              2.981             30.137
 Vibrational             37.307             30.628             30.260
 Vibration     1          0.593              1.984              5.895
 Vibration     2          0.598              1.969              4.202
 Vibration     3          0.612              1.921              2.915
 Vibration     4          0.635              1.849              2.197
 Vibration     5          0.648              1.806              1.937
 Vibration     6          0.654              1.788              1.844
 Vibration     7          0.677              1.719              1.563
 Vibration     8          0.700              1.652              1.355
 Vibration     9          0.704              1.639              1.320
 Vibration    10          0.735              1.554              1.120
 Vibration    11          0.743              1.531              1.074
 Vibration    12          0.797              1.389              0.836
 Vibration    13          0.841              1.284              0.698
 Vibration    14          0.845              1.273              0.685
 Vibration    15          0.895              1.163              0.566
 Vibration    16          0.959              1.031              0.449
 Vibration    17          0.968              1.013              0.435

 Optimization completed.
    -- Stationary point found.
 Normal termination of Gaussian 16 at Fri May 23 03:50:19 2025.
