 Gaussian 16, Revision C.01,
 Gaussian 16:  ES64L-G16RevC.01  3-Jul-2019

 ----------------------------------------------------------------------
 #P wb97xd/6-311++G(d,p) Symm(None) scf(xqc) pop(None) opt(NoFreeze,TS,
 CalcAll,NoEigentest,MaxCycle=999)
 ----------------------------------------------------------------------

 ------------------------------
 Gaussian input prepared by ASE
 ------------------------------
 Symbolic Z-matrix:
 Charge =  0 Multiplicity = 1

 SCF Done:  E(RwB97XD) =  -1199.27610808     A.U. after   18 cycles
 SCF Done:  E(RwB97XD) =  -1199.45081990     A.U. after   17 cycles
 SCF Done:  E(RwB97XD) =  -1199.60909468     A.U. after   16 cycles
 SCF Done:  E(RwB97XD) =  -1199.68039999     A.U. after   15 cycles
 SCF Done:  E(RwB97XD) =  -1199.71719116     A.U. after   13 cycles
 SCF Done:  E(RwB97XD) =  -1199.74119163     A.U. after   13 cycles
 SCF Done:  E(RwB97XD) =  -1199.75723731     A.U. after   12 cycles
 SCF Done:  E(RwB97XD) =  -1199.76514504     A.U. after   13 cycles
 SCF Done:  E(RwB97XD) =  -1199.76606260     A.U. after   13 cycles
 SCF Done:  E(RwB97XD) =  -1199.76646117     A.U. after   14 cycles
 SCF Done:  E(RwB97XD) =  -1199.76696281     A.U. after   14 cycles
 SCF Done:  E(RwB97XD) =  -1199.76701917     A.U. after   11 cycles
 SCF Done:  E(RwB97XD) =  -1199.76701932     A.U. after    8 cycles

 Isotropic polarizability for W=    0.000000       56.17 Bohr**3.
 End of Minotr F.D. properties file   721 does not exist.

 Optimization completed.
    -- Stationary point found.

                          Input orientation:
 ---------------------------------------------------------------------
 Center     Atomic      Atomic             Coordinates (Angstroms)
 Number     Number       Type             X           Y           Z
 ---------------------------------------------------------------------
      1          6           0       -0.856566   -0.186267    1.289167
      2          6           0       -0.080729    0.333979    0.043608
      3          9           0       -0.390287   -0.408112   -1.017612
      4          9           0       -0.407412    1.602110   -0.184558
      5         16           0        1.783409    0.262284    0.241208
      6          8           0        2.202301    1.482051    1.048477
      7          8           0        2.130362   -1.054589    0.670649
      8          8           0        2.337209    0.833741   -1.056698
      9          9           0       -0.732363   -1.497952    1.401122
     10          9           0       -0.387107    0.397647    2.386483
     11          9           0       -2.141522    0.117883    1.151408
     12          1           0        2.593122    1.715250   -0.154955
 ---------------------------------------------------------------------

 ******    1 imaginary frequencies (negative Signs) ******

                      1                      2                      3
                      A                      A                      A
 Frequencies --  -1910.4765                43.4054                61.8015
 Red. masses --      1.0904                15.5901                15.4647
 Frc consts  --      2.3448                 0.0173                 0.0348
 IR Inten    --    630.4821                 0.4053                 0.0929

                      4                      5                      6
                      A                      A                      A
 Frequencies --    127.8594               192.6859               221.1034
 Red. masses --     16.1575                14.2576                18.0508
 Frc consts  --      0.1556                 0.3119                 0.5199
 IR Inten    --      0.7562                 2.7924                 1.5620

                      7                      8                      9
                      A                      A                      A
 Frequencies --    231.3298               273.3517               303.2488
 Red. masses --     14.9932                15.3245                17.2538
 Frc consts  --      0.4727                 0.6747                 0.9348
 IR Inten    --      2.3691                 3.7089                 0.5490

                     10                     11                     12
                      A                      A                      A
 Frequencies --    329.4911               371.1781               434.2826
 Red. masses --     18.0077                18.3848                17.7124
 Frc consts  --      1.1518                 1.4924                 1.9682
 IR Inten    --      0.3142                 0.3566                12.2504

                     13                     14                     15
                      A                      A                      A
 Frequencies --    480.1757               527.3903               556.2181
 Red. masses --     17.9500                11.5489                13.0234
 Frc consts  --      2.4385                 1.8926                 2.3739
 IR Inten    --      7.8041                43.0274                 5.2504

                     16                     17                     18
                      A                      A                      A
 Frequencies --    599.5546               654.5348               701.4701
 Red. masses --     17.4042                16.5001                16.1534
 Frc consts  --      3.6860                 4.1649                 4.6831
 IR Inten    --      3.2520                14.8189               150.8148

                     19                     20                     21
                      A                      A                      A
 Frequencies --    771.5459               964.7959               978.1062
 Red. masses --     15.8185                 9.0309                 1.3253
 Frc consts  --      5.5480                 4.9528                 0.7470
 IR Inten    --      4.9071               199.6608                51.0340

                     22                     23                     24
                      A                      A                      A
 Frequencies --   1059.4943              1114.6373              1171.5828
 Red. masses --      7.6331                11.2779                13.6123
 Frc consts  --      5.0483                 8.2555                11.0085
 IR Inten    --     41.1305               206.9315               236.1814

                     25                     26                     27
                      A                      A                      A
 Frequencies --   1230.9054              1242.2483              1257.4798
 Red. masses --     12.8871                12.9759                13.1821
 Frc consts  --     11.5041                11.7979                12.2811
 IR Inten    --     88.2234               267.8717               307.3886

                     28                     29                     30
                      A                      A                      A
 Frequencies --   1343.6396              1378.9223              2165.8199
 Red. masses --     12.6686                16.9586                 1.0279
 Frc consts  --     13.4755                18.9985                 2.8410
 IR Inten    --    131.5633               344.5142               140.8492

 - Thermochemistry -
 -------------------
 Temperature   298.150 Kelvin.  Pressure   1.00000 Atm.
 Atom     1 has atomic number  6 and mass  12.00000

 Molecular mass:   199.95666 amu.
 Principal axes and moments of inertia in atomic units:
                           1         2         3
     Eigenvalues --  1120.088162209.723012335.28771
           X            0.91650   0.40002   0.00352
           Y            0.20831  -0.48474   0.84949
           Z           -0.34152   0.77782   0.52759
 This molecule is an asymmetric top.
 Rotational symmetry number  1.
 Warning -- assumption of classical behavior for rotation
           may cause significant error
 Rotational temperatures (Kelvin)      0.07733     0.03920     0.03709
 Rotational constants (GHZ):           1.61125     0.81673     0.77281
    1 imaginary frequencies ignored.
 Zero-point vibrational energy     124341.4 (Joules/Mol)
                                   29.71831 (Kcal/Mol)
 Warning -- explicit consideration of  15 degrees of freedom as
           vibrations may cause significant error
 Vibrational temperatures:     62.45    88.92   183.96   277.23   318.12
          (Kelvin)            332.83   393.29   436.31   474.06   534.04
                              624.84   690.87   758.80   800.27   862.63
                              941.73  1009.26  1110.08  1388.13  1407.28
                             1524.38  1603.71  1685.65  1771.00  1787.32
                             1809.23  1933.20  1983.96  3116.13

 Zero-point correction=                           0.047359 (Hartree/Particle)
 Thermal correction to Energy=                    0.057354
 Thermal correction to Enthalpy=                  0.058298
 Thermal correction to Gibbs Free Energy=         0.010646
 Sum of electronic and zero-point Energies=          -1199.719660
 Sum of electronic and thermal Energies=             -1199.709666
 Sum of electronic and thermal Enthalpies=           -1199.708722
 Sum of electronic and thermal Free Energies=        -1199.756373

                     E (Thermal)             CV                S
                      KCal/Mol        Cal/Mol-Kelvin    Cal/Mol-Kelvin
 Total                   35.990             34.721            100.292
 Electronic               0.000              0.000              0.000
 Translational            0.889              2.981             41.783
 Rotational               0.889              2.981             30.137
 Vibrational             34.212             28.760             28.371
 Vibration     1          0.595              1.980              5.097
 Vibration     2          0.597              1.973              4.399
 Vibration     3          0.611              1.925              2.978
 Vibration     4          0.635              1.850              2.202
 Vibration     5          0.648              1.809              1.950
 Vibration     6          0.653              1.793              1.869
 Vibration     7          0.676              1.722              1.575
 Vibration     8          0.695              1.668              1.399
 Vibration     9          0.712              1.617              1.263
 Vibration    10          0.743              1.531              1.075
 Vibration    11          0.795              1.396              0.845
 Vibration    12          0.837              1.294              0.710
 Vibration    13          0.882              1.189              0.593
 Vibration    14          0.912              1.126              0.531
 Vibration    15          0.958              1.033              0.450

 Normal termination of Gaussian 16 at Fri May 23 03:40:44 2025.
