 Gaussian 16, Revision C.01,
 Gaussian 16:  ES64L-G16RevC.01  3-Jul-2019

 ----------------------------------------------------------------------
 #P wb97xd/6-311++G(d,p) Symm(None) scf(xqc) pop(None) opt(NoFreeze,TS,
 CalcAll,NoEigentest,MaxCycle=999)
 ----------------------------------------------------------------------

 ------------------------------
 Gaussian input prepared by ASE
 ------------------------------
 Symbolic Z-matrix:
 Charge =  0 Multiplicity = 1

 SCF Done:  E(RwB97XD) =  -1199.58050440     A.U. after   17 cycles
 SCF Done:  E(RwB97XD) =  -1199.59069367     A.U. after   16 cycles
 SCF Done:  E(RwB97XD) =  -1199.61513512     A.U. after   17 cycles
 SCF Done:  E(RwB97XD) =  -1199.63203183     A.U. after   17 cycles
 SCF Done:  E(RwB97XD) =  -1199.63551131     A.U. after   15 cycles
 SCF Done:  E(RwB97XD) =  -1199.63662367     A.U. after   14 cycles
 SCF Done:  E(RwB97XD) =  -1199.63680777     A.U. after   13 cycles
 SCF Done:  E(RwB97XD) =  -1199.63681407     A.U. after   12 cycles

 Isotropic polarizability for W=    0.000000       65.52 Bohr**3.
 End of Minotr F.D. properties file   721 does not exist.

 Optimization completed.
    -- Stationary point found.

                          Input orientation:
 ---------------------------------------------------------------------
 Center     Atomic      Atomic             Coordinates (Angstroms)
 Number     Number       Type             X           Y           Z
 ---------------------------------------------------------------------
      1          6           0       -1.200993   -0.610679    1.220153
      2          6           0        0.202412    0.907559    0.576749
      3          9           0       -0.319272   -0.351828   -0.297138
      4          9           0       -0.109350    1.920975   -0.210250
      5         16           0        2.017533    0.651679    0.507639
      6          8           0        2.595794    1.821174    1.121587
      7          8           0        2.284805   -0.680698    0.962791
      8          8           0        2.371066    0.675339   -1.071015
      9          9           0       -1.667540   -1.740431    0.770580
     10          9           0       -0.525255   -0.834426    2.289898
     11          9           0       -2.150022    0.257067    1.295134
     12          1           0        2.551246    1.582300   -1.347839
 ---------------------------------------------------------------------

 ******    1 imaginary frequencies (negative Signs) ******

                      1                      2                      3
                      A                      A                      A
 Frequencies --   -633.0069                41.8335                56.0418
 Red. masses --     14.9317                17.8167                11.6768
 Frc consts  --      3.5251                 0.0184                 0.0216
 IR Inten    --     53.6615                 0.3486                 3.7052

                      4                      5                      6
                      A                      A                      A
 Frequencies --     68.0299               160.3410               177.8564
 Red. masses --     15.2172                16.5450                10.9757
 Frc consts  --      0.0415                 0.2506                 0.2046
 IR Inten    --      0.8246                94.8576                14.4973

                      7                      8                      9
                      A                      A                      A
 Frequencies --    191.8657               269.5401               296.1754
 Red. masses --      5.7880                 7.1371                 3.5874
 Frc consts  --      0.1255                 0.3055                 0.1854
 IR Inten    --      2.6326                32.2411                37.4669

                     10                     11                     12
                      A                      A                      A
 Frequencies --    326.2073               329.5431               394.4716
 Red. masses --      3.1842                10.0024                 5.8551
 Frc consts  --      0.1996                 0.6400                 0.5368
 IR Inten    --     34.0464                25.6913                51.5013

                     13                     14                     15
                      A                      A                      A
 Frequencies --    430.2644               460.8194               485.6865
 Red. masses --     13.1499                 6.1365                12.7631
 Frc consts  --      1.4343                 0.7678                 1.7739
 IR Inten    --    108.9250                76.6118                14.4516

                     16                     17                     18
                      A                      A                      A
 Frequencies --    529.1032               587.0969               597.3531
 Red. masses --     16.9535                18.7109                18.1635
 Frc consts  --      2.7963                 3.7998                 3.8187
 IR Inten    --     89.0226               267.1765                 9.5390

                     19                     20                     21
                      A                      A                      A
 Frequencies --    653.1646               718.2678               739.8619
 Red. masses --     15.2515                14.6340                13.2412
 Frc consts  --      3.8336                 4.4482                 4.2705
 IR Inten    --     61.9980               349.5531                31.9800

                     22                     23                     24
                      A                      A                      A
 Frequencies --    849.3256               945.2919              1120.2720
 Red. masses --     17.6510                17.2552                 1.1872
 Frc consts  --      7.5018                 9.0845                 0.8778
 IR Inten    --    217.3534               343.4687                67.7644

                     25                     26                     27
                      A                      A                      A
 Frequencies --   1177.2883              1216.3950              1283.5459
 Red. masses --     16.1177                14.4350                13.4189
 Frc consts  --     13.1619                12.5839                13.0253
 IR Inten    --    243.9011                79.7988               446.4491

                     28                     29                     30
                      A                      A                      A
 Frequencies --   1400.3788              1420.8541              3846.5859
 Red. masses --     13.2247                13.5739                 1.0662
 Frc consts  --     15.2801                16.1455                 9.2945
 IR Inten    --    266.9541               428.6985               164.5461

 - Thermochemistry -
 -------------------
 Temperature   298.150 Kelvin.  Pressure   1.00000 Atm.
 Atom     1 has atomic number  6 and mass  12.00000

 Molecular mass:   199.95666 amu.
 Principal axes and moments of inertia in atomic units:
                           1         2         3
     Eigenvalues --  1024.463632719.276512949.84406
           X            0.88971  -0.45647  -0.00747
           Y            0.39765   0.76682   0.50385
           Z           -0.22427  -0.45125   0.86376
 This molecule is an asymmetric top.
 Rotational symmetry number  1.
 Warning -- assumption of classical behavior for rotation
           may cause significant error
 Rotational temperatures (Kelvin)      0.08455     0.03185     0.02936
 Rotational constants (GHZ):           1.76164     0.66368     0.61181
    1 imaginary frequencies ignored.
 Zero-point vibrational energy     124252.9 (Joules/Mol)
                                   29.69715 (Kcal/Mol)
 Warning -- explicit consideration of  17 degrees of freedom as
           vibrations may cause significant error
 Vibrational temperatures:     60.19    80.63    97.88   230.69   255.90
          (Kelvin)            276.05   387.81   426.13   469.34   474.14
                              567.56   619.05   663.02   698.79   761.26
                              844.70   859.46   939.76  1033.43  1064.50
                             1221.99  1360.06  1611.82  1693.86  1750.12
                             1846.74  2014.83  2044.29  5534.38

 Zero-point correction=                           0.047325 (Hartree/Particle)
 Thermal correction to Energy=                    0.058231
 Thermal correction to Enthalpy=                  0.059175
 Thermal correction to Gibbs Free Energy=         0.009215
 Sum of electronic and zero-point Energies=          -1199.589489
 Sum of electronic and thermal Energies=             -1199.578583
 Sum of electronic and thermal Enthalpies=           -1199.577639
 Sum of electronic and thermal Free Energies=        -1199.627599

                     E (Thermal)             CV                S
                      KCal/Mol        Cal/Mol-Kelvin    Cal/Mol-Kelvin
 Total                   36.540             37.459            105.148
 Electronic               0.000              0.000              0.000
 Translational            0.889              2.981             41.783
 Rotational               0.889              2.981             30.486
 Vibrational             34.763             31.497             32.879
 Vibration     1          0.594              1.980              5.170
 Vibration     2          0.596              1.975              4.592
 Vibration     3          0.598              1.969              4.210
 Vibration     4          0.622              1.891              2.546
 Vibration     5          0.628              1.870              2.351
 Vibration     6          0.634              1.851              2.210
 Vibration     7          0.674              1.729              1.599
 Vibration     8          0.690              1.681              1.438
 Vibration     9          0.710              1.623              1.279
 Vibration    10          0.712              1.616              1.262
 Vibration    11          0.761              1.482              0.983
 Vibration    12          0.791              1.404              0.858
 Vibration    13          0.819              1.337              0.764
 Vibration    14          0.842              1.282              0.695
 Vibration    15          0.884              1.186              0.589
 Vibration    16          0.944              1.059              0.472
 Vibration    17          0.955              1.037              0.454

 Normal termination of Gaussian 16 at Fri May 23 03:27:35 2025.
