 Gaussian 16, Revision C.01,
 Gaussian 16:  ES64L-G16RevC.01  3-Jul-2019

 ----------------------------------------------------------------------
 #P wb97xd/6-311++G(d,p) Symm(None) scf(xqc) pop(None) geom(AllCheck,No
 KeepConstants) guess(Read) irc(RCFC,reverse,MaxPoints=100,StepSize=2)
 ----------------------------------------------------------------------

 Structure from the checkpoint file:  "2003846667223680600001_r13_insertion_RSR_9_1_2_5_IRC_R.chk"
 ------------------------------
 Gaussian input prepared by ASE
 ------------------------------
 Charge =  0 Multiplicity = 1

 SCF Done:  E(RwB97XD) =  -1199.67458105     A.U. after   13 cycles
 SCF Done:  E(RwB97XD) =  -1199.67471067     A.U. after   13 cycles
 SCF Done:  E(RwB97XD) =  -1199.67492357     A.U. after   13 cycles
 SCF Done:  E(RwB97XD) =  -1199.67521655     A.U. after   13 cycles
 SCF Done:  E(RwB97XD) =  -1199.67558592     A.U. after   13 cycles
 SCF Done:  E(RwB97XD) =  -1199.67602758     A.U. after   13 cycles
 SCF Done:  E(RwB97XD) =  -1199.67653743     A.U. after   13 cycles
 SCF Done:  E(RwB97XD) =  -1199.67711164     A.U. after   13 cycles
 SCF Done:  E(RwB97XD) =  -1199.67774679     A.U. after   13 cycles
 SCF Done:  E(RwB97XD) =  -1199.67843970     A.U. after   13 cycles
 SCF Done:  E(RwB97XD) =  -1199.75241736     A.U. after    9 cycles
 SCF Done:  E(RwB97XD) =  -1199.75283643     A.U. after    9 cycles
 SCF Done:  E(RwB97XD) =  -1199.75324639     A.U. after    9 cycles
 SCF Done:  E(RwB97XD) =  -1199.75364744     A.U. after    9 cycles
 SCF Done:  E(RwB97XD) =  -1199.75403980     A.U. after    9 cycles
 SCF Done:  E(RwB97XD) =  -1199.75442368     A.U. after    9 cycles
 SCF Done:  E(RwB97XD) =  -1199.75479924     A.U. after    9 cycles
 SCF Done:  E(RwB97XD) =  -1199.75516666     A.U. after    9 cycles
 SCF Done:  E(RwB97XD) =  -1199.75552605     A.U. after    9 cycles
 SCF Done:  E(RwB97XD) =  -1199.75587752     A.U. after    9 cycles

                          Input orientation:
 ---------------------------------------------------------------------
 Center     Atomic      Atomic             Coordinates (Angstroms)
 Number     Number       Type             X           Y           Z
 ---------------------------------------------------------------------
      1          6           0        0.851468   -1.553367   -0.282454
      2          6           0        1.541174   -0.431467   -0.198448
      3          9           0        1.955407    0.084632    0.935360
      4          9           0        1.827116    0.301828   -1.247540
      5         16           0       -1.035105    1.084465    0.318207
      6          8           0       -0.709756    0.813598    1.677713
      7          8           0       -0.214362    1.857975   -0.540509
      8          8           0       -2.513627    1.604826    0.123156
      9          9           0       -1.322181   -0.354007   -0.347740
     10          9           0        0.407312   -2.029283   -1.421922
     11          9           0        0.424162   -2.230975    0.756686
     12          1           0       -3.145409    1.058569    0.609489
 ---------------------------------------------------------------------

 Normal termination of Gaussian 16 at Fri May 23 04:36:30 2025.
