 Gaussian 16, Revision C.01,
 Gaussian 16:  ES64L-G16RevC.01  3-Jul-2019

 ----------------------------------------------------------------------
 #P mp2/6-31G Symm(None) scf(xqc) pop(None) guess(Mix,Always) freq opt(
 CalcFC)
 ----------------------------------------------------------------------

 ------------------------------
 Gaussian input prepared by ASE
 ------------------------------
 Symbolic Z-matrix:
 Charge =  0 Multiplicity = 1

 SCF Done:  E(RHF) =  -1194.96585889     A.U. after   18 cycles
 E2 =    -0.1289546013D+01 EUMP2 =    -0.11962554049034D+04
 E2 =    -0.1289546013D+01 EUMP2 =    -0.11962554049034D+04
 SCF Done:  E(RHF) =  -1194.96599877     A.U. after   19 cycles
 E2 =    -0.1289577314D+01 EUMP2 =    -0.11962555760871D+04
 SCF Done:  E(RHF) =  -1194.96626445     A.U. after   19 cycles
 E2 =    -0.1289551933D+01 EUMP2 =    -0.11962558163837D+04
 SCF Done:  E(RHF) =  -1194.96642181     A.U. after   18 cycles
 E2 =    -0.1289171243D+01 EUMP2 =    -0.11962555930549D+04
 SCF Done:  E(RHF) =  -1194.96609431     A.U. after   19 cycles
 E2 =    -0.1289506138D+01 EUMP2 =    -0.11962556004508D+04
 SCF Done:  E(RHF) =  -1194.96639944     A.U. after   18 cycles
 E2 =    -0.1289469509D+01 EUMP2 =    -0.11962558689471D+04
 SCF Done:  E(RHF) =  -1194.96643671     A.U. after   18 cycles
 E2 =    -0.1289432746D+01 EUMP2 =    -0.11962558694608D+04
 SCF Done:  E(RHF) =  -1194.96644805     A.U. after   18 cycles
 E2 =    -0.1289421807D+01 EUMP2 =    -0.11962558698620D+04
 Optimization completed.
    -- Stationary point found.
 Normal termination of Gaussian 16 at Fri May 23 04:32:48 2025.

 -------------------------------------------------------------------
 #P Geom=AllCheck Guess=TCheck SCRF=Check GenChk RMP2(FC)/6-31G Freq
 -------------------------------------------------------------------

 Structure from the checkpoint file:  "2003846667223680600001_R_Addition_MultipleBond_5_2_1_IRC_R_prod.chk"
 ------------------------------
 Gaussian input prepared by ASE
 ------------------------------
 Charge =  0 Multiplicity = 1

                          Input orientation:
 ---------------------------------------------------------------------
 Center     Atomic      Atomic             Coordinates (Angstroms)
 Number     Number       Type             X           Y           Z
 ---------------------------------------------------------------------
      1          6           0       -1.174604   -0.537824    0.820505
      2          6           0       -0.565977    0.215511   -0.373261
      3          9           0       -0.948948   -0.382392   -1.563586
      4          9           0       -0.932776    1.555178   -0.332517
      5         16           0        1.436862    0.228593   -0.324897
      6          8           0        1.963341    1.393701    0.630362
      7          8           0        1.957132   -1.266892   -0.178332
      8          8           0        1.506755    0.803099   -2.050353
      9          9           0       -0.966468   -1.902074    0.685287
     10          9           0       -0.565716   -0.099036    1.995890
     11          9           0       -2.540806   -0.288334    0.895774
     12          1           0        2.311977    1.379775   -2.144177
 ---------------------------------------------------------------------

 SCF Done:  E(RHF) =  -1194.96644805     A.U. after    1 cycles
 E2 =    -0.1289421804D+01 EUMP2 =    -0.11962558698584D+04
 E2 =    -0.1289421804D+01 EUMP2 =    -0.11962558698584D+04

                      1                      2                      3
                      A                      A                      A
 Frequencies --     33.0427                57.5515               117.4276
 Red. masses --     12.6690                14.0908                13.2371
 Frc consts  --      0.0081                 0.0275                 0.1075
 IR Inten    --      1.7042                 0.8604                 0.7349

                      4                      5                      6
                      A                      A                      A
 Frequencies --    141.9103               152.9075               206.8040
 Red. masses --      6.4088                 2.5245                 3.4786
 Frc consts  --      0.0760                 0.0348                 0.0877
 IR Inten    --     22.7457                50.6865                40.4541

                      7                      8                      9
                      A                      A                      A
 Frequencies --    211.2942               219.7066               258.9201
 Red. masses --     12.7556                 7.0223                11.6930
 Frc consts  --      0.3355                 0.1997                 0.4619
 IR Inten    --     12.0856                 1.9266                14.9094

                     10                     11                     12
                      A                      A                      A
 Frequencies --    291.5897               339.7099               345.8572
 Red. masses --      7.8669                11.9374                18.0505
 Frc consts  --      0.3941                 0.8117                 1.2721
 IR Inten    --     12.8542                27.8590                 1.6153

                     13                     14                     15
                      A                      A                      A
 Frequencies --    366.3769               415.0089               454.8261
 Red. masses --      9.2430                17.2984                16.1431
 Frc consts  --      0.7310                 1.7554                 1.9676
 IR Inten    --     23.4805                 1.5313               105.6102

                     16                     17                     18
                      A                      A                      A
 Frequencies --    493.4638               559.1723               576.3124
 Red. masses --     16.5962                17.7324                16.1058
 Frc consts  --      2.3811                 3.2667                 3.1517
 IR Inten    --      9.8429                 3.1289                87.1064

                     19                     20                     21
                      A                      A                      A
 Frequencies --    615.8047               689.2039               903.0661
 Red. masses --     18.3690                17.1417                13.5809
 Frc consts  --      4.1041                 4.7973                 6.5256
 IR Inten    --    150.0926                 4.7080                94.4145

                     22                     23                     24
                      A                      A                      A
 Frequencies --    973.5348              1076.1940              1099.5829
 Red. masses --     12.2495                 2.3086                 5.5986
 Frc consts  --      6.8402                 1.5754                 3.9883
 IR Inten    --     61.7707               224.6476                33.3001

                     25                     26                     27
                      A                      A                      A
 Frequencies --   1146.6303              1199.8136              1203.5167
 Red. masses --      2.7977                12.2920                12.9486
 Frc consts  --      2.1672                10.4256                11.0504
 IR Inten    --     85.3694               148.8433                94.4165

                     28                     29                     30
                      A                      A                      A
 Frequencies --   1219.9161              1313.5471              3498.1756
 Red. masses --     13.0573                11.5207                 1.0661
 Frc consts  --     11.4488                11.7118                 7.6865
 IR Inten    --    249.9317               133.3639                96.3484

 - Thermochemistry -
 -------------------
 Temperature   298.150 Kelvin.  Pressure   1.00000 Atm.
 Atom     1 has atomic number  6 and mass  12.00000

 Molecular mass:   199.95666 amu.
 Principal axes and moments of inertia in atomic units:
                           1         2         3
     Eigenvalues --  1289.727392371.370842518.88527
           X            0.87125   0.49048  -0.01871
           Y            0.27242  -0.45149   0.84967
           Z           -0.40830   0.74537   0.52698
 This molecule is an asymmetric top.
 Rotational symmetry number  1.
 Warning -- assumption of classical behavior for rotation
           may cause significant error
 Rotational temperatures (Kelvin)      0.06716     0.03652     0.03439
 Rotational constants (GHZ):           1.39932     0.76105     0.71648
 Zero-point vibrational energy     120708.4 (Joules/Mol)
                                   28.85000 (Kcal/Mol)
 Warning -- explicit consideration of  19 degrees of freedom as
           vibrations may cause significant error
 Vibrational temperatures:     47.54    82.80   168.95   204.18   220.00
          (Kelvin)            297.54   304.01   316.11   372.53   419.53
                              488.77   497.61   527.13   597.11   654.39
                              709.98   804.52   829.19   886.01   991.61
                             1299.31  1400.70  1548.40  1582.05  1649.75
                             1726.26  1731.59  1755.19  1889.90  5033.09

 Zero-point correction=                           0.045975 (Hartree/Particle)
 Thermal correction to Energy=                    0.057743
 Thermal correction to Enthalpy=                  0.058687
 Thermal correction to Gibbs Free Energy=         0.007217
 Sum of electronic and zero-point Energies=          -1196.209894
 Sum of electronic and thermal Energies=             -1196.198127
 Sum of electronic and thermal Enthalpies=           -1196.197183
 Sum of electronic and thermal Free Energies=        -1196.248653

                     E (Thermal)             CV                S
                      KCal/Mol        Cal/Mol-Kelvin    Cal/Mol-Kelvin
 Total                   36.234             39.859            108.328
 Electronic               0.000              0.000              0.000
 Translational            0.889              2.981             41.783
 Rotational               0.889              2.981             30.422
 Vibrational             34.457             33.897             36.122
 Vibration     1          0.594              1.983              5.638
 Vibration     2          0.596              1.974              4.539
 Vibration     3          0.608              1.935              3.142
 Vibration     4          0.615              1.911              2.778
 Vibration     5          0.619              1.899              2.636
 Vibration     6          0.641              1.830              2.072
 Vibration     7          0.643              1.824              2.032
 Vibration     8          0.647              1.811              1.962
 Vibration     9          0.668              1.748              1.669
 Vibration    10          0.687              1.689              1.465
 Vibration    11          0.720              1.596              1.214
 Vibration    12          0.724              1.584              1.185
 Vibration    13          0.739              1.541              1.095
 Vibration    14          0.778              1.438              0.909
 Vibration    15          0.813              1.350              0.781
 Vibration    16          0.849              1.265              0.675
 Vibration    17          0.915              1.120              0.525
 Vibration    18          0.933              1.082              0.492
 Vibration    19          0.975              0.998              0.423

 Optimization completed.
    -- Stationary point found.
 Normal termination of Gaussian 16 at Fri May 23 04:33:26 2025.
