 Gaussian 16, Revision C.01,
 Gaussian 16:  ES64L-G16RevC.01  3-Jul-2019

 ----------------------------------------------------------------------
 #P wb97xd/6-311++G(d,p) Symm(None) scf(xqc) pop(None) freq opt(CalcFC)
 ----------------------------------------------------------------------

 ------------------------------
 Gaussian input prepared by ASE
 ------------------------------
 Symbolic Z-matrix:
 Charge =  0 Multiplicity = 1

 SCF Done:  E(RwB97XD) =  -1199.82202211     A.U. after   14 cycles
 SCF Done:  E(RwB97XD) =  -1199.82247704     A.U. after   13 cycles
 SCF Done:  E(RwB97XD) =  -1199.82389734     A.U. after   13 cycles
 SCF Done:  E(RwB97XD) =  -1199.82575148     A.U. after   14 cycles
 SCF Done:  E(RwB97XD) =  -1199.82566944     A.U. after   12 cycles
 SCF Done:  E(RwB97XD) =  -1199.82600724     A.U. after   12 cycles
 SCF Done:  E(RwB97XD) =  -1199.82212872     A.U. after   14 cycles
 SCF Done:  E(RwB97XD) =  -1199.82602852     A.U. after   11 cycles
 SCF Done:  E(RwB97XD) =  -1199.82604358     A.U. after   11 cycles
 SCF Done:  E(RwB97XD) =  -1199.82604546     A.U. after   11 cycles
 SCF Done:  E(RwB97XD) =  -1199.82604558     A.U. after    9 cycles
 Optimization completed.
    -- Stationary point found.
 Normal termination of Gaussian 16 at Fri May 23 03:41:23 2025.

 ----------------------------------------------------------------------
 #P Geom=AllCheck Guess=TCheck SCRF=Check GenChk RwB97XD/6-311++G(d,p)
 Freq
 ----------------------------------------------------------------------

 Structure from the checkpoint file:  "2003846667223680600001_r12_insertion_R_8_5_2_IRC_R_prod.chk"
 ------------------------------
 Gaussian input prepared by ASE
 ------------------------------
 Charge =  0 Multiplicity = 1

                          Input orientation:
 ---------------------------------------------------------------------
 Center     Atomic      Atomic             Coordinates (Angstroms)
 Number     Number       Type             X           Y           Z
 ---------------------------------------------------------------------
      1          6           0       -1.267209   -0.303708    0.732382
      2          6           0       -0.405179    0.211791   -0.455115
      3          9           0       -0.744988   -0.443916   -1.561372
      4          9           0       -0.641220    1.520374   -0.625148
      5         16           0        1.441691    0.006457   -0.198780
      6          8           0        1.783924    0.712826    1.003984
      7          8           0        1.776827   -1.358138   -0.445499
      8          8           0        1.944670    0.845651   -1.468553
      9          9           0       -0.943833   -1.557855    1.021363
     10          9           0       -1.086960    0.453916    1.803428
     11          9           0       -2.548852   -0.256551    0.382680
     12          1           0        2.026156    1.781706   -1.242997
 ---------------------------------------------------------------------

 SCF Done:  E(RwB97XD) =  -1199.82604558     A.U. after    1 cycles

 Isotropic polarizability for W=    0.000000       55.71 Bohr**3.
 End of Minotr F.D. properties file   721 does not exist.

                      1                      2                      3
                      A                      A                      A
 Frequencies --     26.0450                67.4101               131.1453
 Red. masses --     14.2102                14.4386                14.6983
 Frc consts  --      0.0057                 0.0387                 0.1489
 IR Inten    --      1.2695                 0.7251                 1.3019

                      4                      5                      6
                      A                      A                      A
 Frequencies --    193.4843               222.4813               234.1216
 Red. masses --      9.2732                17.8522                 8.1160
 Frc consts  --      0.2045                 0.5206                 0.2621
 IR Inten    --      8.2551                 1.2526                 9.5062

                      7                      8                      9
                      A                      A                      A
 Frequencies --    275.1458               311.1943               318.0636
 Red. masses --     15.2653                 5.2231                18.1775
 Frc consts  --      0.6809                 0.2980                 1.0835
 IR Inten    --      1.4239                15.7557                 0.3655

                     10                     11                     12
                      A                      A                      A
 Frequencies --    359.8144               371.4807               436.8636
 Red. masses --      1.8654                17.4331                 4.0465
 Frc consts  --      0.1423                 1.4174                 0.4550
 IR Inten    --     56.8982                 0.2448                31.7010

                     13                     14                     15
                      A                      A                      A
 Frequencies --    484.5872               489.4711               539.4638
 Red. masses --     13.3659                 8.2798                17.8402
 Frc consts  --      1.8492                 1.1688                 3.0590
 IR Inten    --     15.4976                19.8938                28.5707

                     16                     17                     18
                      A                      A                      A
 Frequencies --    600.4039               609.0951               653.7759
 Red. masses --     17.3838                20.1242                17.3507
 Frc consts  --      3.6922                 4.3988                 4.3694
 IR Inten    --      3.5589               118.2171                30.0123

                     19                     20                     21
                      A                      A                      A
 Frequencies --    764.7341               824.9570              1006.0868
 Red. masses --     17.1204                17.1451                13.8207
 Frc consts  --      5.8991                 6.8747                 8.2423
 IR Inten    --     41.4521               218.0483                53.0813

                     22                     23                     24
                      A                      A                      A
 Frequencies --   1130.9049              1157.8145              1201.4652
 Red. masses --      1.1948                12.2451                15.9660
 Frc consts  --      0.9004                 9.6714                13.5791
 IR Inten    --    107.4445               242.7767                 6.1434

                     25                     26                     27
                      A                      A                      A
 Frequencies --   1219.3684              1249.1686              1253.9616
 Red. masses --     13.1200                13.6893                13.1762
 Frc consts  --     11.4935                12.5856                12.2070
 IR Inten    --    110.8479               332.2177               258.9904

                     28                     29                     30
                      A                      A                      A
 Frequencies --   1345.0029              1443.6392              3833.0953
 Red. masses --     12.6412                14.2574                 1.0663
 Frc consts  --     13.4737                17.5069                 9.2302
 IR Inten    --    106.7738               313.9448               161.6952

 - Thermochemistry -
 -------------------
 Temperature   298.150 Kelvin.  Pressure   1.00000 Atm.
 Atom     1 has atomic number  6 and mass  12.00000

 Molecular mass:   199.95666 amu.
 Principal axes and moments of inertia in atomic units:
                           1         2         3
     Eigenvalues --  1133.369492197.914002320.53186
           X            0.93214   0.36046   0.03440
           Y            0.12738  -0.41536   0.90069
           Z           -0.33895   0.83519   0.43309
 This molecule is an asymmetric top.
 Rotational symmetry number  1.
 Warning -- assumption of classical behavior for rotation
           may cause significant error
 Rotational temperatures (Kelvin)      0.07642     0.03941     0.03733
 Rotational constants (GHZ):           1.59237     0.82112     0.77773
 Zero-point vibrational energy     136100.6 (Joules/Mol)
                                   32.52883 (Kcal/Mol)
 Warning -- explicit consideration of  17 degrees of freedom as
           vibrations may cause significant error
 Vibrational temperatures:     37.47    96.99   188.69   278.38   320.10
          (Kelvin)            336.85   395.87   447.74   457.62   517.69
                              534.48   628.55   697.21   704.24   776.17
                              863.85   876.35   940.64  1100.28  1186.93
                             1447.53  1627.12  1665.84  1728.64  1754.40
                             1797.27  1804.17  1935.16  2077.07  5514.97

 Zero-point correction=                           0.051838 (Hartree/Particle)
 Thermal correction to Energy=                    0.062284
 Thermal correction to Enthalpy=                  0.063229
 Thermal correction to Gibbs Free Energy=         0.014555
 Sum of electronic and zero-point Energies=          -1199.774208
 Sum of electronic and thermal Energies=             -1199.763761
 Sum of electronic and thermal Enthalpies=           -1199.762817
 Sum of electronic and thermal Free Energies=        -1199.811491

                     E (Thermal)             CV                S
                      KCal/Mol        Cal/Mol-Kelvin    Cal/Mol-Kelvin
 Total                   39.084             36.596            102.443
 Electronic               0.000              0.000              0.000
 Translational            0.889              2.981             41.783
 Rotational               0.889              2.981             30.137
 Vibrational             37.307             30.634             30.523
 Vibration     1          0.593              1.985              6.110
 Vibration     2          0.598              1.970              4.228
 Vibration     3          0.612              1.922              2.929
 Vibration     4          0.635              1.849              2.194
 Vibration     5          0.648              1.807              1.939
 Vibration     6          0.654              1.789              1.847
 Vibration     7          0.677              1.719              1.564
 Vibration     8          0.700              1.652              1.356
 Vibration     9          0.704              1.639              1.320
 Vibration    10          0.734              1.555              1.123
 Vibration    11          0.743              1.531              1.074
 Vibration    12          0.797              1.390              0.837
 Vibration    13          0.841              1.284              0.698
 Vibration    14          0.845              1.273              0.685
 Vibration    15          0.895              1.163              0.566
 Vibration    16          0.959              1.031              0.449
 Vibration    17          0.968              1.013              0.434

 Optimization completed.
    -- Stationary point found.
 Normal termination of Gaussian 16 at Fri May 23 03:42:41 2025.
