 Gaussian 16, Revision C.01,
 Gaussian 16:  ES64L-G16RevC.01  3-Jul-2019

 ----------------------------------------------------------------------
 #P mp2/6-31G Symm(None) scf(xqc) pop(None) guess(Read,Mix) geom(AllChe
 ck,NoKeepConstants) irc(RCFC,reverse,MaxPoints=100,StepSize=2)
 ----------------------------------------------------------------------

 Structure from the checkpoint file:  "2003846667223680600001_R_Addition_MultipleBond_5_8_12_IRC_R.chk"
 ------------------------------
 Gaussian input prepared by ASE
 ------------------------------
 Charge =  0 Multiplicity = 1

 SCF Done:  E(RHF) =  -1194.90491656     A.U. after   19 cycles
 E2 =    -0.1296002720D+01 EUMP2 =    -0.11962009192821D+04
 SCF Done:  E(RHF) =  -1194.90505513     A.U. after   13 cycles
 E2 =    -0.1295935116D+01 EUMP2 =    -0.11962009902504D+04
 SCF Done:  E(RHF) =  -1194.90527609     A.U. after   13 cycles
 E2 =    -0.1295832228D+01 EUMP2 =    -0.11962011083177D+04
 SCF Done:  E(RHF) =  -1194.90557852     A.U. after   13 cycles
 E2 =    -0.1295694630D+01 EUMP2 =    -0.11962012731514D+04
 SCF Done:  E(RHF) =  -1194.90596119     A.U. after   13 cycles
 E2 =    -0.1295523076D+01 EUMP2 =    -0.11962014842650D+04
 SCF Done:  E(RHF) =  -1194.90642251     A.U. after   13 cycles
 E2 =    -0.1295318510D+01 EUMP2 =    -0.11962017410155D+04
 SCF Done:  E(RHF) =  -1194.90696054     A.U. after   13 cycles
 E2 =    -0.1295082056D+01 EUMP2 =    -0.11962020425980D+04
 SCF Done:  E(RHF) =  -1194.90757304     A.U. after   14 cycles
 E2 =    -0.1294815005D+01 EUMP2 =    -0.11962023880437D+04
 SCF Done:  E(RHF) =  -1194.90825742     A.U. after   14 cycles
 E2 =    -0.1294518782D+01 EUMP2 =    -0.11962027761990D+04
 SCF Done:  E(RHF) =  -1194.90901079     A.U. after   14 cycles
 E2 =    -0.1294194951D+01 EUMP2 =    -0.11962032057414D+04
 E2 =    -0.1293845184D+01 EUMP2 =    -0.11962036751603D+04
 E2 =    -0.1293471243D+01 EUMP2 =    -0.11962041827565D+04
 E2 =    -0.1293074968D+01 EUMP2 =    -0.11962047266400D+04
 E2 =    -0.1292658258D+01 EUMP2 =    -0.11962053047288D+04
 E2 =    -0.1292223058D+01 EUMP2 =    -0.11962059147511D+04
 E2 =    -0.1291771343D+01 EUMP2 =    -0.11962065542451D+04
 E2 =    -0.1291305128D+01 EUMP2 =    -0.11962072205819D+04
 E2 =    -0.1290826433D+01 EUMP2 =    -0.11962079109516D+04
 E2 =    -0.1290337297D+01 EUMP2 =    -0.11962086223927D+04
 E2 =    -0.1289839773D+01 EUMP2 =    -0.11962093518057D+04
 E2 =    -0.1284197429D+01 EUMP2 =    -0.11962384641192D+04
 E2 =    -0.1284327249D+01 EUMP2 =    -0.11962387274174D+04
 E2 =    -0.1284456328D+01 EUMP2 =    -0.11962389869835D+04
 E2 =    -0.1284584551D+01 EUMP2 =    -0.11962392428775D+04
 E2 =    -0.1284711810D+01 EUMP2 =    -0.11962394951582D+04
 E2 =    -0.1284838004D+01 EUMP2 =    -0.11962397438843D+04
 E2 =    -0.1284963038D+01 EUMP2 =    -0.11962399891132D+04
 E2 =    -0.1285086824D+01 EUMP2 =    -0.11962402309019D+04
 E2 =    -0.1285209281D+01 EUMP2 =    -0.11962404693066D+04
 E2 =    -0.1285330331D+01 EUMP2 =    -0.11962407043826D+04
 SCF Done:  E(RHF) =  -1194.95548628     A.U. after   12 cycles
 E2 =    -0.1285449906D+01 EUMP2 =    -0.11962409361843D+04
 SCF Done:  E(RHF) =  -1194.95559682     A.U. after   12 cycles
 E2 =    -0.1285567941D+01 EUMP2 =    -0.11962411647652D+04
 SCF Done:  E(RHF) =  -1194.95570580     A.U. after   12 cycles
 E2 =    -0.1285684377D+01 EUMP2 =    -0.11962413901778D+04
 SCF Done:  E(RHF) =  -1194.95581331     A.U. after   12 cycles
 E2 =    -0.1285799160D+01 EUMP2 =    -0.11962416124737D+04
 SCF Done:  E(RHF) =  -1194.95591946     A.U. after   12 cycles
 E2 =    -0.1285912242D+01 EUMP2 =    -0.11962418317034D+04
 SCF Done:  E(RHF) =  -1194.95602434     A.U. after   12 cycles
 E2 =    -0.1286023579D+01 EUMP2 =    -0.11962420479162D+04
 SCF Done:  E(RHF) =  -1194.95612803     A.U. after   12 cycles
 E2 =    -0.1286133132D+01 EUMP2 =    -0.11962422611606D+04
 SCF Done:  E(RHF) =  -1194.95623062     A.U. after   12 cycles
 E2 =    -0.1286240868D+01 EUMP2 =    -0.11962424714835D+04
 SCF Done:  E(RHF) =  -1194.95633218     A.U. after   12 cycles
 E2 =    -0.1286346756D+01 EUMP2 =    -0.11962426789311D+04
 SCF Done:  E(RHF) =  -1194.95643278     A.U. after   12 cycles
 E2 =    -0.1286450771D+01 EUMP2 =    -0.11962428835480D+04

                          Input orientation:
 ---------------------------------------------------------------------
 Center     Atomic      Atomic             Coordinates (Angstroms)
 Number     Number       Type             X           Y           Z
 ---------------------------------------------------------------------
      1          6           0       -1.197216    0.030532    0.919401
      2          6           0       -0.618839   -0.154659   -0.492790
      3          9           0       -0.921947   -1.420215   -0.979367
      4          9           0       -1.074195    0.831136   -1.353838
      5         16           0        1.418323   -0.076939   -0.510820
      6          8           0        2.017995   -0.131728    0.992521
      7          8           0        1.898268   -1.039727   -1.679536
      8          8           0        1.757871    1.683448   -0.654644
      9          9           0       -0.783161   -1.006480    1.741928
     10          9           0       -0.768262    1.244786    1.443145
     11          9           0       -2.588732    0.031319    0.856904
     12          1           0        2.250866    1.815059    0.206790
 ---------------------------------------------------------------------

 Normal termination of Gaussian 16 at Fri May 23 03:36:16 2025.
