 Gaussian 16, Revision C.01,
 Gaussian 16:  ES64L-G16RevC.01  3-Jul-2019

 ----------------------------------------------------------------------
 #P wb97xd/6-311++G(d,p) Symm(None) scf(xqc) pop(None) geom(AllCheck,No
 KeepConstants) guess(Read) irc(RCFC,reverse,MaxPoints=100,StepSize=2)
 ----------------------------------------------------------------------

 Structure from the checkpoint file:  "2003846667223680600001_r13_insertion_ROR_12_8_5_6_IRC_R.chk"
 ------------------------------
 Gaussian input prepared by ASE
 ------------------------------
 Charge =  0 Multiplicity = 1

 SCF Done:  E(RwB97XD) =  -1199.65884751     A.U. after   14 cycles
 SCF Done:  E(RwB97XD) =  -1199.65886197     A.U. after   14 cycles
 SCF Done:  E(RwB97XD) =  -1199.65888596     A.U. after   14 cycles
 SCF Done:  E(RwB97XD) =  -1199.65891948     A.U. after   14 cycles
 SCF Done:  E(RwB97XD) =  -1199.65896252     A.U. after   14 cycles
 SCF Done:  E(RwB97XD) =  -1199.65901509     A.U. after   15 cycles
 SCF Done:  E(RwB97XD) =  -1199.65907720     A.U. after   15 cycles
 SCF Done:  E(RwB97XD) =  -1199.65914884     A.U. after   15 cycles
 SCF Done:  E(RwB97XD) =  -1199.65923005     A.U. after   15 cycles
 SCF Done:  E(RwB97XD) =  -1199.65932083     A.U. after   15 cycles
 SCF Done:  E(RwB97XD) =  -1199.68963125     A.U. after   14 cycles
 SCF Done:  E(RwB97XD) =  -1199.69017857     A.U. after   14 cycles
 SCF Done:  E(RwB97XD) =  -1199.69072797     A.U. after   14 cycles
 SCF Done:  E(RwB97XD) =  -1199.69127938     A.U. after   14 cycles
 SCF Done:  E(RwB97XD) =  -1199.69183276     A.U. after   14 cycles
 SCF Done:  E(RwB97XD) =  -1199.69238807     A.U. after   14 cycles
 SCF Done:  E(RwB97XD) =  -1199.69294524     A.U. after   14 cycles
 SCF Done:  E(RwB97XD) =  -1199.69350423     A.U. after   14 cycles
 SCF Done:  E(RwB97XD) =  -1199.69406499     A.U. after   14 cycles
 SCF Done:  E(RwB97XD) =  -1199.69462746     A.U. after   14 cycles

                          Input orientation:
 ---------------------------------------------------------------------
 Center     Atomic      Atomic             Coordinates (Angstroms)
 Number     Number       Type             X           Y           Z
 ---------------------------------------------------------------------
      1          6           0        1.227898    0.719067    0.797845
      2          6           0        0.441509   -0.517066    0.309342
      3          9           0        1.226278   -1.288551   -0.425730
      4          9           0       -0.052201   -1.201902    1.310832
      5         16           0       -1.119295   -0.086979   -0.861575
      6          8           0       -3.257135   -0.181469   -0.573919
      7          8           0       -0.602537    0.796501   -1.889666
      8          8           0       -1.469228   -1.466070   -1.051876
      9          9           0        1.867228    1.301297   -0.199515
     10          9           0        0.375624    1.575016    1.348141
     11          9           0        2.109097    0.324141    1.710303
     12          1           0       -3.965955    0.478037   -0.635424
 ---------------------------------------------------------------------

 Normal termination of Gaussian 16 at Fri May 23 05:02:53 2025.
