 Gaussian 16, Revision C.01,
 Gaussian 16:  ES64L-G16RevC.01  3-Jul-2019

 ----------------------------------------------------------------------
 #P wb97xd/6-311++G(d,p) Symm(None) scf(xqc) pop(None) freq opt(CalcFC)
 ----------------------------------------------------------------------

 ------------------------------
 Gaussian input prepared by ASE
 ------------------------------
 Symbolic Z-matrix:
 Charge =  0 Multiplicity = 1

 SCF Done:  E(RwB97XD) =  -1199.81685076     A.U. after   14 cycles
 SCF Done:  E(RwB97XD) =  -1199.82542399     A.U. after   14 cycles
 SCF Done:  E(RwB97XD) =  -1199.82570233     A.U. after   15 cycles
 SCF Done:  E(RwB97XD) =  -1199.82539508     A.U. after   15 cycles
 SCF Done:  E(RwB97XD) =  -1199.82602972     A.U. after   13 cycles
 SCF Done:  E(RwB97XD) =  -1199.82604653     A.U. after   11 cycles
 SCF Done:  E(RwB97XD) =  -1199.82604679     A.U. after   11 cycles
 SCF Done:  E(RwB97XD) =  -1199.82604820     A.U. after   10 cycles
 Optimization completed.
    -- Stationary point found.
 Normal termination of Gaussian 16 at Fri May 23 04:17:38 2025.

 ----------------------------------------------------------------------
 #P Geom=AllCheck Guess=TCheck SCRF=Check GenChk RwB97XD/6-311++G(d,p)
 Freq
 ----------------------------------------------------------------------

 Structure from the checkpoint file:  "2003846667223680600001_r12_insertion_R_1_2_5_IRC_F_prod.chk"
 ------------------------------
 Gaussian input prepared by ASE
 ------------------------------
 Charge =  0 Multiplicity = 1

                          Input orientation:
 ---------------------------------------------------------------------
 Center     Atomic      Atomic             Coordinates (Angstroms)
 Number     Number       Type             X           Y           Z
 ---------------------------------------------------------------------
      1          6           0       -1.188148   -0.678421    0.581625
      2          6           0       -0.421397    0.196041   -0.451159
      3          9           0       -0.471954   -0.404331   -1.648683
      4          9           0       -1.002205    1.389908   -0.532730
      5         16           0        1.388678    0.454902   -0.032071
      6          8           0        1.471496    1.450230    0.986592
      7          8           0        1.992276   -0.844786    0.063716
      8          8           0        1.844407    1.152253   -1.401520
      9          9           0       -0.754545   -1.929181    0.547225
     10          9           0       -1.025059   -0.189869    1.804666
     11          9           0       -2.482311   -0.663196    0.278416
     12          1           0        2.100008    0.484341   -2.051350
 ---------------------------------------------------------------------

 SCF Done:  E(RwB97XD) =  -1199.82604820     A.U. after    1 cycles

 Isotropic polarizability for W=    0.000000       55.71 Bohr**3.
 End of Minotr F.D. properties file   721 does not exist.

                      1                      2                      3
                      A                      A                      A
 Frequencies --     31.6228                68.7653               131.7087
 Red. masses --     14.2553                14.3899                14.8595
 Frc consts  --      0.0084                 0.0401                 0.1519
 IR Inten    --      1.2563                 0.7424                 1.2350

                      4                      5                      6
                      A                      A                      A
 Frequencies --    194.5508               222.9625               234.6322
 Red. masses --      9.6101                18.0070                 8.3006
 Frc consts  --      0.2143                 0.5274                 0.2692
 IR Inten    --      7.7515                 1.1759                 9.1866

                      7                      8                      9
                      A                      A                      A
 Frequencies --    275.2053               311.7753               318.0336
 Red. masses --     15.3333                 5.5080                18.2107
 Frc consts  --      0.6842                 0.3154                 1.0852
 IR Inten    --      1.4553                14.5326                 0.3090

                     10                     11                     12
                      A                      A                      A
 Frequencies --    362.3554               371.5262               437.9255
 Red. masses --      1.8485                17.1245                 3.9207
 Frc consts  --      0.1430                 1.3927                 0.4430
 IR Inten    --     57.2820                 0.3566                32.5283

                     13                     14                     15
                      A                      A                      A
 Frequencies --    484.8583               490.0418               539.4577
 Red. masses --     12.9617                 8.1904                17.8301
 Frc consts  --      1.7953                 1.1588                 3.0572
 IR Inten    --     14.7028                21.2481                28.6338

                     16                     17                     18
                      A                      A                      A
 Frequencies --    600.4016               609.4954               653.6714
 Red. masses --     17.3781                20.1180                17.3524
 Frc consts  --      3.6909                 4.4033                 4.3685
 IR Inten    --      3.5115               118.8260                30.2823

                     19                     20                     21
                      A                      A                      A
 Frequencies --    764.7928               825.3546              1005.6960
 Red. masses --     17.1197                17.1163                13.8252
 Frc consts  --      5.8998                 6.8698                 8.2386
 IR Inten    --     41.1059               218.0988                52.4636

                     22                     23                     24
                      A                      A                      A
 Frequencies --   1132.6425              1158.0247              1203.1452
 Red. masses --      1.1973                11.8380                15.9828
 Frc consts  --      0.9049                 9.3532                13.6313
 IR Inten    --    111.5834               237.3837                 7.1360

                     25                     26                     27
                      A                      A                      A
 Frequencies --   1218.7721              1249.5880              1253.8741
 Red. masses --     13.1292                13.7615                13.1800
 Frc consts  --     11.4904                12.6605                12.2089
 IR Inten    --    107.9741               333.8772               262.2516

                     28                     29                     30
                      A                      A                      A
 Frequencies --   1344.6684              1446.5681              3834.1773
 Red. masses --     12.6469                14.3005                 1.0663
 Frc consts  --     13.4731                17.6311                 9.2354
 IR Inten    --    106.8748               312.7880               161.8003

 - Thermochemistry -
 -------------------
 Temperature   298.150 Kelvin.  Pressure   1.00000 Atm.
 Atom     1 has atomic number  6 and mass  12.00000

 Molecular mass:   199.95666 amu.
 Principal axes and moments of inertia in atomic units:
                           1         2         3
     Eigenvalues --  1133.419012197.870352320.50938
           X            0.88748   0.39898  -0.23061
           Y            0.39423  -0.39816   0.82828
           Z           -0.23865   0.82600   0.51066
 This molecule is an asymmetric top.
 Rotational symmetry number  1.
 Warning -- assumption of classical behavior for rotation
           may cause significant error
 Rotational temperatures (Kelvin)      0.07642     0.03941     0.03733
 Rotational constants (GHZ):           1.59230     0.82113     0.77773
 Zero-point vibrational energy     136232.5 (Joules/Mol)
                                   32.56035 (Kcal/Mol)
 Warning -- explicit consideration of  17 degrees of freedom as
           vibrations may cause significant error
 Vibrational temperatures:     45.50    98.94   189.50   279.92   320.79
          (Kelvin)            337.58   395.96   448.58   457.58   521.35
                              534.54   630.08   697.60   705.06   776.16
                              863.84   876.93   940.49  1100.37  1187.50
                             1446.97  1629.62  1666.14  1731.06  1753.54
                             1797.88  1804.05  1934.68  2081.29  5516.53

 Zero-point correction=                           0.051888 (Hartree/Particle)
 Thermal correction to Energy=                    0.062310
 Thermal correction to Enthalpy=                  0.063254
 Thermal correction to Gibbs Free Energy=         0.014804
 Sum of electronic and zero-point Energies=          -1199.774160
 Sum of electronic and thermal Energies=             -1199.763738
 Sum of electronic and thermal Enthalpies=           -1199.762794
 Sum of electronic and thermal Free Energies=        -1199.811244

                     E (Thermal)             CV                S
                      KCal/Mol        Cal/Mol-Kelvin    Cal/Mol-Kelvin
 Total                   39.100             36.575            101.971
 Electronic               0.000              0.000              0.000
 Translational            0.889              2.981             41.783
 Rotational               0.889              2.981             30.137
 Vibrational             37.323             30.614             30.051
 Vibration     1          0.594              1.983              5.725
 Vibration     2          0.598              1.969              4.188
 Vibration     3          0.612              1.922              2.921
 Vibration     4          0.635              1.847              2.184
 Vibration     5          0.649              1.806              1.935
 Vibration     6          0.654              1.788              1.843
 Vibration     7          0.677              1.719              1.563
 Vibration     8          0.700              1.651              1.353
 Vibration     9          0.704              1.639              1.320
 Vibration    10          0.736              1.550              1.112
 Vibration    11          0.743              1.531              1.073
 Vibration    12          0.798              1.388              0.833
 Vibration    13          0.841              1.284              0.697
 Vibration    14          0.846              1.272              0.683
 Vibration    15          0.895              1.163              0.566
 Vibration    16          0.959              1.031              0.449
 Vibration    17          0.968              1.012              0.434

 Optimization completed.
    -- Stationary point found.
 Normal termination of Gaussian 16 at Fri May 23 04:19:06 2025.
