 Gaussian 16, Revision C.01,
 Gaussian 16:  ES64L-G16RevC.01  3-Jul-2019

 ----------------------------------------------------------------------
 #P wb97xd/6-311++G(d,p) Symm(None) scf(xqc) pop(None) geom(AllCheck,No
 KeepConstants) guess(Read) irc(RCFC,forward,MaxPoints=100,StepSize=2)
 ----------------------------------------------------------------------

 Structure from the checkpoint file:  "2003846667223680600001_r12_insertion_R_9_1_2_IRC_F.chk"
 ------------------------------
 Gaussian input prepared by ASE
 ------------------------------
 Charge =  0 Multiplicity = 1

 SCF Done:  E(RwB97XD) =  -1199.64241257     A.U. after   11 cycles
 SCF Done:  E(RwB97XD) =  -1199.64252313     A.U. after   11 cycles
 SCF Done:  E(RwB97XD) =  -1199.64270497     A.U. after   11 cycles
 SCF Done:  E(RwB97XD) =  -1199.64295627     A.U. after   11 cycles
 SCF Done:  E(RwB97XD) =  -1199.64327535     A.U. after   11 cycles
 SCF Done:  E(RwB97XD) =  -1199.64366061     A.U. after   11 cycles
 SCF Done:  E(RwB97XD) =  -1199.64411044     A.U. after   11 cycles
 SCF Done:  E(RwB97XD) =  -1199.64462303     A.U. after   11 cycles
 SCF Done:  E(RwB97XD) =  -1199.64519620     A.U. after   11 cycles
 SCF Done:  E(RwB97XD) =  -1199.64582740     A.U. after   11 cycles
 SCF Done:  E(RwB97XD) =  -1199.72146998     A.U. after   10 cycles
 SCF Done:  E(RwB97XD) =  -1199.72187976     A.U. after   10 cycles
 SCF Done:  E(RwB97XD) =  -1199.72227867     A.U. after   10 cycles
 SCF Done:  E(RwB97XD) =  -1199.72266680     A.U. after   10 cycles
 SCF Done:  E(RwB97XD) =  -1199.72304440     A.U. after   10 cycles
 SCF Done:  E(RwB97XD) =  -1199.72341221     A.U. after   10 cycles
 SCF Done:  E(RwB97XD) =  -1199.72377130     A.U. after   10 cycles
 SCF Done:  E(RwB97XD) =  -1199.72412268     A.U. after   10 cycles
 SCF Done:  E(RwB97XD) =  -1199.72446684     A.U. after   10 cycles
 SCF Done:  E(RwB97XD) =  -1199.72480359     A.U. after   10 cycles

                          Input orientation:
 ---------------------------------------------------------------------
 Center     Atomic      Atomic             Coordinates (Angstroms)
 Number     Number       Type             X           Y           Z
 ---------------------------------------------------------------------
      1          6           0       -2.790656   -0.016798    0.202126
      2          6           0       -0.002735    0.211907   -0.203235
      3          9           0       -0.478523   -0.207142   -1.366439
      4          9           0       -0.364486    1.460059    0.007537
      5         16           0        1.806490    0.004947   -0.152536
      6          8           0        2.245922    0.630840    1.051725
      7          8           0        2.049682   -1.369045   -0.489594
      8          8           0        2.206438    0.946989   -1.383466
      9          9           0       -0.436761   -0.567725    0.784281
     10          9           0       -2.771905    0.301504    1.461709
     11          9           0       -2.819037   -1.316646    0.178193
     12          1           0        2.278428    0.426296   -2.194154
 ---------------------------------------------------------------------

 Normal termination of Gaussian 16 at Fri May 23 04:15:58 2025.
