 Gaussian 16, Revision C.01,
 Gaussian 16:  ES64L-G16RevC.01  3-Jul-2019

 ----------------------------------------------------------------------
 #P mp2/6-31G Symm(None) scf(xqc) pop(None) guess(Mix,Always) opt(NoFre
 eze,TS,CalcAll,NoEigentest,MaxCycle=999)
 ----------------------------------------------------------------------

 ------------------------------
 Gaussian input prepared by ASE
 ------------------------------
 Symbolic Z-matrix:
 Charge =  0 Multiplicity = 1

 SCF Done:  E(RHF) =  -1194.90764505     A.U. after   15 cycles
 E2 =    -0.1243981561D+01 EUMP2 =    -0.11961516266113D+04
 E2 =    -0.1243981561D+01 EUMP2 =    -0.11961516266113D+04
 SCF Done:  E(RHF) =  -1194.95768571     A.U. after   17 cycles
 E2 =    -0.1267250799D+01 EUMP2 =    -0.11962249365123D+04
 E2 =    -0.1267250799D+01 EUMP2 =    -0.11962249365123D+04
 SCF Done:  E(RHF) =  -1194.96921156     A.U. after   18 cycles
 E2 =    -0.1283144487D+01 EUMP2 =    -0.11962523560434D+04
 E2 =    -0.1283144487D+01 EUMP2 =    -0.11962523560434D+04
 SCF Done:  E(RHF) =  -1194.96784609     A.U. after   19 cycles
 E2 =    -0.1287732546D+01 EUMP2 =    -0.11962555786325D+04
 E2 =    -0.1287732546D+01 EUMP2 =    -0.11962555786325D+04
 SCF Done:  E(RHF) =  -1194.96701867     A.U. after   19 cycles
 E2 =    -0.1288679374D+01 EUMP2 =    -0.11962556980485D+04
 E2 =    -0.1288679374D+01 EUMP2 =    -0.11962556980485D+04
 SCF Done:  E(RHF) =  -1194.96699508     A.U. after   19 cycles
 E2 =    -0.1288701142D+01 EUMP2 =    -0.11962556962218D+04
 E2 =    -0.1288701142D+01 EUMP2 =    -0.11962556962218D+04
 SCF Done:  E(RHF) =  -1194.96702165     A.U. after   19 cycles
 E2 =    -0.1288672036D+01 EUMP2 =    -0.11962556936851D+04
 E2 =    -0.1288672036D+01 EUMP2 =    -0.11962556936851D+04
 SCF Done:  E(RHF) =  -1194.96703677     A.U. after   19 cycles
 E2 =    -0.1288655292D+01 EUMP2 =    -0.11962556920608D+04
 E2 =    -0.1288655292D+01 EUMP2 =    -0.11962556920608D+04
 SCF Done:  E(RHF) =  -1194.96704018     A.U. after   19 cycles
 E2 =    -0.1288651466D+01 EUMP2 =    -0.11962556916498D+04
 E2 =    -0.1288651466D+01 EUMP2 =    -0.11962556916498D+04
 Optimization completed.
    -- Stationary point found.

                          Input orientation:
 ---------------------------------------------------------------------
 Center     Atomic      Atomic             Coordinates (Angstroms)
 Number     Number       Type             X           Y           Z
 ---------------------------------------------------------------------
      1          6           0       -0.843821    0.186072    1.347923
      2          6           0       -0.100165   -0.017392    0.021034
      3          9           0       -0.374751   -1.290214   -0.483194
      4          9           0       -0.455469    0.953446   -0.903451
      5         16           0        1.899969    0.031017    0.125375
      6          8           0        2.399598   -0.738944    1.423482
      7          8           0        2.472332   -0.315139   -1.322939
      8          8           0        1.934672    1.826247    0.387745
      9          9           0       -0.565540   -0.867398    2.209118
     10          9           0       -0.461010    1.377743    1.946758
     11          9           0       -2.215970    0.222866    1.104259
     12          1           0        2.745629    2.193627   -0.054991
 ---------------------------------------------------------------------

                      1                      2                      3
                      A                      A                      A
 Frequencies --     22.1515                63.3102               116.4136
 Red. masses --     11.0545                15.0698                 1.7445
 Frc consts  --      0.0032                 0.0356                 0.0139
 IR Inten    --      4.0360                 1.4997                97.9948

                      4                      5                      6
                      A                      A                      A
 Frequencies --    120.1315               169.6219               178.4848
 Red. masses --     12.6482                 6.4250                 7.5812
 Frc consts  --      0.1075                 0.1089                 0.1423
 IR Inten    --      0.1447                19.0228                 7.7065

                      7                      8                      9
                      A                      A                      A
 Frequencies --    208.7196               219.8578               272.1616
 Red. masses --     12.0886                 9.4138                 7.0805
 Frc consts  --      0.3103                 0.2681                 0.3090
 IR Inten    --      7.7658                 1.8448                10.6354

                     10                     11                     12
                      A                      A                      A
 Frequencies --    281.2704               332.1331               352.6280
 Red. masses --     10.4711                13.9854                14.1977
 Frc consts  --      0.4881                 0.9090                 1.0402
 IR Inten    --     13.1083                20.9960                16.2916

                     13                     14                     15
                      A                      A                      A
 Frequencies --    367.8388               413.6038               453.0121
 Red. masses --     11.7160                16.5292                16.1780
 Frc consts  --      0.9340                 1.6660                 1.9561
 IR Inten    --     12.5025                 3.5688               106.1349

                     16                     17                     18
                      A                      A                      A
 Frequencies --    496.2717               557.7916               583.4310
 Red. masses --     16.8312                17.5016                17.0680
 Frc consts  --      2.4423                 3.2083                 3.4230
 IR Inten    --     15.9912                 1.0377                16.2074

                     19                     20                     21
                      A                      A                      A
 Frequencies --    624.1231               690.2027               904.9631
 Red. masses --     18.3818                17.0714                12.5703
 Frc consts  --      4.2187                 4.7915                 6.0654
 IR Inten    --    164.4605                23.4642               128.3723

                     22                     23                     24
                      A                      A                      A
 Frequencies --    974.3624              1087.9637              1089.1435
 Red. masses --     10.3706                 2.0642                 8.1789
 Frc consts  --      5.8009                 1.4396                 5.7163
 IR Inten    --     52.8870               118.1594               129.0685

                     25                     26                     27
                      A                      A                      A
 Frequencies --   1141.6165              1190.8273              1200.5789
 Red. masses --      3.1912                 8.7764                13.1570
 Frc consts  --      2.4505                 7.3327                11.1735
 IR Inten    --    146.8552                77.1775               200.8859

                     28                     29                     30
                      A                      A                      A
 Frequencies --   1222.9198              1312.6983              3506.0014
 Red. masses --     12.7982                12.4059                 1.0662
 Frc consts  --     11.2771                12.5953                 7.7215
 IR Inten    --    175.3243               149.6873                96.4933

 - Thermochemistry -
 -------------------
 Temperature   298.150 Kelvin.  Pressure   1.00000 Atm.
 Atom     1 has atomic number  6 and mass  12.00000

 Molecular mass:   199.95666 amu.
 Principal axes and moments of inertia in atomic units:
                           1         2         3
     Eigenvalues --  1287.407212385.351832494.91066
           X            0.92127   0.38314  -0.06678
           Y           -0.00683   0.18761   0.98222
           Z           -0.38886   0.90444  -0.17545
 This molecule is an asymmetric top.
 Rotational symmetry number  1.
 Warning -- assumption of classical behavior for rotation
           may cause significant error
 Rotational temperatures (Kelvin)      0.06728     0.03631     0.03472
 Rotational constants (GHZ):           1.40184     0.75659     0.72337
 Zero-point vibrational energy     120549.1 (Joules/Mol)
                                   28.81192 (Kcal/Mol)
 Warning -- explicit consideration of  18 degrees of freedom as
           vibrations may cause significant error
 Vibrational temperatures:     31.87    91.09   167.49   172.84   244.05
          (Kelvin)            256.80   300.30   316.33   391.58   404.69
                              477.87   507.35   529.24   595.08   651.78
                              714.02   802.54   839.43   897.97   993.05
                             1302.04  1401.89  1565.34  1567.03  1642.53
                             1713.33  1727.37  1759.51  1888.68  5044.35

 Zero-point correction=                           0.045915 (Hartree/Particle)
 Thermal correction to Energy=                    0.057744
 Thermal correction to Enthalpy=                  0.058688
 Thermal correction to Gibbs Free Energy=         0.006749
 Sum of electronic and zero-point Energies=          -1196.209777
 Sum of electronic and thermal Energies=             -1196.197948
 Sum of electronic and thermal Enthalpies=           -1196.197004
 Sum of electronic and thermal Free Energies=        -1196.248943

                     E (Thermal)             CV                S
                      KCal/Mol        Cal/Mol-Kelvin    Cal/Mol-Kelvin
 Total                   36.235             39.872            109.315
 Electronic               0.000              0.000              0.000
 Translational            0.889              2.981             41.783
 Rotational               0.889              2.981             30.417
 Vibrational             34.457             33.910             37.115
 Vibration     1          0.593              1.985              6.431
 Vibration     2          0.597              1.972              4.351
 Vibration     3          0.608              1.936              3.159
 Vibration     4          0.609              1.932              3.098
 Vibration     5          0.625              1.880              2.440
 Vibration     6          0.629              1.869              2.344
 Vibration     7          0.642              1.827              2.055
 Vibration     8          0.647              1.811              1.960
 Vibration     9          0.675              1.725              1.582
 Vibration    10          0.681              1.708              1.526
 Vibration    11          0.714              1.611              1.250
 Vibration    12          0.729              1.570              1.154
 Vibration    13          0.740              1.538              1.089
 Vibration    14          0.777              1.441              0.914
 Vibration    15          0.812              1.354              0.787
 Vibration    16          0.852              1.258              0.668
 Vibration    17          0.913              1.123              0.528
 Vibration    18          0.940              1.067              0.479

 Normal termination of Gaussian 16 at Fri May 23 03:20:04 2025.
