 Gaussian 16, Revision C.01,
 Gaussian 16:  ES64L-G16RevC.01  3-Jul-2019

 ----------------------------------------------------------------------
 #P wb97xd/6-311++G(d,p) Symm(None) scf(xqc) pop(None) geom(AllCheck,No
 KeepConstants) guess(Read) irc(RCFC,reverse,MaxPoints=100,StepSize=2)
 ----------------------------------------------------------------------

 Structure from the checkpoint file:  "2003846667223680600001_r12_insertion_R_3_2_1_IRC_R.chk"
 ------------------------------
 Gaussian input prepared by ASE
 ------------------------------
 Charge =  0 Multiplicity = 1

 SCF Done:  E(RwB97XD) =  -1199.63685773     A.U. after   11 cycles
 SCF Done:  E(RwB97XD) =  -1199.63699047     A.U. after   11 cycles
 SCF Done:  E(RwB97XD) =  -1199.63721057     A.U. after   11 cycles
 SCF Done:  E(RwB97XD) =  -1199.63751600     A.U. after   11 cycles
 SCF Done:  E(RwB97XD) =  -1199.63790438     A.U. after   11 cycles
 SCF Done:  E(RwB97XD) =  -1199.63837287     A.U. after   11 cycles
 SCF Done:  E(RwB97XD) =  -1199.63891822     A.U. after   11 cycles
 SCF Done:  E(RwB97XD) =  -1199.63953679     A.U. after   11 cycles
 SCF Done:  E(RwB97XD) =  -1199.64022468     A.U. after   11 cycles
 SCF Done:  E(RwB97XD) =  -1199.64097784     A.U. after   11 cycles
 SCF Done:  E(RwB97XD) =  -1199.70641186     A.U. after   11 cycles
 SCF Done:  E(RwB97XD) =  -1199.70666406     A.U. after   11 cycles
 SCF Done:  E(RwB97XD) =  -1199.70691042     A.U. after   10 cycles
 SCF Done:  E(RwB97XD) =  -1199.70715106     A.U. after   10 cycles
 SCF Done:  E(RwB97XD) =  -1199.70738607     A.U. after   10 cycles
 SCF Done:  E(RwB97XD) =  -1199.70761544     A.U. after   10 cycles
 SCF Done:  E(RwB97XD) =  -1199.70783916     A.U. after   11 cycles
 SCF Done:  E(RwB97XD) =  -1199.70805726     A.U. after   11 cycles
 SCF Done:  E(RwB97XD) =  -1199.70826982     A.U. after   11 cycles
 SCF Done:  E(RwB97XD) =  -1199.70847697     A.U. after   11 cycles

                          Input orientation:
 ---------------------------------------------------------------------
 Center     Atomic      Atomic             Coordinates (Angstroms)
 Number     Number       Type             X           Y           Z
 ---------------------------------------------------------------------
      1          6           0       -1.691225   -1.018188    0.442714
      2          6           0       -0.009222    1.269792    0.148642
      3          9           0       -0.931910   -0.741028   -0.628583
      4          9           0       -0.357028    1.839154   -0.950034
      5         16           0        1.681143    0.524765   -0.129109
      6          8           0        2.400879    1.636091    0.463130
      7          8           0        1.824288   -0.825970    0.321918
      8          8           0        1.974550    0.494748   -1.719712
      9          9           0       -2.296030   -2.159972    0.219077
     10          9           0       -0.934416   -1.100076    1.509357
     11          9           0       -2.575184   -0.051115    0.588238
     12          1           0        2.259613    1.365166   -2.024590
 ---------------------------------------------------------------------

 Normal termination of Gaussian 16 at Fri May 23 03:58:11 2025.
