 Gaussian 16, Revision C.01,
 Gaussian 16:  ES64L-G16RevC.01  3-Jul-2019

 ----------------------------------------------------------------------
 #P wb97xd/6-311++G(d,p) Symm(None) scf(xqc) pop(None) freq opt(CalcFC)
 ----------------------------------------------------------------------

 ------------------------------
 Gaussian input prepared by ASE
 ------------------------------
 Symbolic Z-matrix:
 Charge =  0 Multiplicity = 1

 SCF Done:  E(RwB97XD) =  -1199.81707050     A.U. after   14 cycles
 SCF Done:  E(RwB97XD) =  -1199.82361236     A.U. after   13 cycles
 SCF Done:  E(RwB97XD) =  -1199.82410628     A.U. after   12 cycles
 SCF Done:  E(RwB97XD) =  -1199.82415562     A.U. after   11 cycles
 SCF Done:  E(RwB97XD) =  -1199.82415803     A.U. after   11 cycles
 SCF Done:  E(RwB97XD) =  -1199.82415817     A.U. after   10 cycles
 Optimization completed.
    -- Stationary point found.
 Normal termination of Gaussian 16 at Fri May 23 04:14:20 2025.

 ----------------------------------------------------------------------
 #P Geom=AllCheck Guess=TCheck SCRF=Check GenChk RwB97XD/6-311++G(d,p)
 Freq
 ----------------------------------------------------------------------

 Structure from the checkpoint file:  "2003846667223680600001_intra_H_migration_6_12_IRC_F_prod.chk"
 ------------------------------
 Gaussian input prepared by ASE
 ------------------------------
 Charge =  0 Multiplicity = 1

                          Input orientation:
 ---------------------------------------------------------------------
 Center     Atomic      Atomic             Coordinates (Angstroms)
 Number     Number       Type             X           Y           Z
 ---------------------------------------------------------------------
      1          6           0        0.465536   -1.282308   -0.455563
      2          6           0        0.648348    0.079648    0.279006
      3          9           0        0.913184   -0.157306    1.560172
      4          9           0        1.669203    0.736247   -0.274104
      5         16           0       -0.826679    1.248195    0.180200
      6          8           0       -2.039274    0.211743    0.356135
      7          8           0       -0.779856    2.050948    1.359411
      8          8           0       -0.860011    1.785216   -1.150995
      9          9           0       -0.298363   -2.098586    0.257612
     10          9           0       -0.104052   -1.096359   -1.647489
     11          9           0        1.650744   -1.848464   -0.632682
     12          1           0       -2.409714   -0.014958   -0.507330
 ---------------------------------------------------------------------

 SCF Done:  E(RwB97XD) =  -1199.82415817     A.U. after    1 cycles

 Isotropic polarizability for W=    0.000000       55.80 Bohr**3.
 End of Minotr F.D. properties file   721 does not exist.

                      1                      2                      3
                      A                      A                      A
 Frequencies --     37.0827                60.9170               141.8089
 Red. masses --     11.5661                18.4084                12.0406
 Frc consts  --      0.0094                 0.0402                 0.1427
 IR Inten    --      1.6634                 0.2077                 3.8240

                      4                      5                      6
                      A                      A                      A
 Frequencies --    199.6505               228.5611               243.3740
 Red. masses --     16.9191                18.4376                12.8643
 Frc consts  --      0.3973                 0.5675                 0.4489
 IR Inten    --      2.2567                 1.4076                 0.8299

                      7                      8                      9
                      A                      A                      A
 Frequencies --    277.4348               300.2436               315.8644
 Red. masses --     11.8961                 4.2811                17.0711
 Frc consts  --      0.5395                 0.2274                 1.0035
 IR Inten    --     13.5689                23.7862                 0.7703

                     10                     11                     12
                      A                      A                      A
 Frequencies --    352.0737               371.5248               438.1114
 Red. masses --      1.9883                12.5993                 3.5673
 Frc consts  --      0.1452                 1.0246                 0.4034
 IR Inten    --     70.0488                 5.7019                30.3089

                     13                     14                     15
                      A                      A                      A
 Frequencies --    462.0290               504.3058               541.1367
 Red. masses --      8.1162                15.1858                16.4965
 Frc consts  --      1.0208                 2.2755                 2.8461
 IR Inten    --     28.0320                12.5053                21.2311

                     16                     17                     18
                      A                      A                      A
 Frequencies --    598.6298               607.9183               654.2034
 Red. masses --     17.7806                19.7820                16.0158
 Frc consts  --      3.7542                 4.3074                 4.0386
 IR Inten    --      3.1215               121.4800                22.1962

                     19                     20                     21
                      A                      A                      A
 Frequencies --    762.6393               831.5263               997.5554
 Red. masses --     17.0705                17.8178                13.4810
 Frc consts  --      5.8497                 7.2586                 7.9040
 IR Inten    --     14.4137               197.5728               120.6089

                     22                     23                     24
                      A                      A                      A
 Frequencies --   1124.3078              1153.6671              1213.5983
 Red. masses --      1.2095                13.7144                15.6152
 Frc consts  --      0.9008                10.7544                13.5502
 IR Inten    --     78.6173               107.5702               154.9251

                     25                     26                     27
                      A                      A                      A
 Frequencies --   1227.3368              1237.8189              1250.9603
 Red. masses --     12.2851                12.2924                13.0927
 Frc consts  --     10.9033                11.0969                12.0717
 IR Inten    --     97.5573               250.4361               341.2567

                     28                     29                     30
                      A                      A                      A
 Frequencies --   1342.3924              1441.5247              3828.2494
 Red. masses --     12.6999                14.1456                 1.0663
 Frc consts  --     13.4837                17.3188                 9.2076
 IR Inten    --    117.5153               297.5268               158.1451

 - Thermochemistry -
 -------------------
 Temperature   298.150 Kelvin.  Pressure   1.00000 Atm.
 Atom     1 has atomic number  6 and mass  12.00000

 Molecular mass:   199.95666 amu.
 Principal axes and moments of inertia in atomic units:
                           1         2         3
     Eigenvalues --  1159.036032133.968482292.68949
           X           -0.49350   0.80051  -0.34006
           Y            0.84254   0.34297  -0.41534
           Z            0.21586   0.49148   0.84371
 This molecule is an asymmetric top.
 Rotational symmetry number  1.
 Warning -- assumption of classical behavior for rotation
           may cause significant error
 Rotational temperatures (Kelvin)      0.07473     0.04059     0.03778
 Rotational constants (GHZ):           1.55711     0.84572     0.78717
 Zero-point vibrational energy     136054.0 (Joules/Mol)
                                   32.51768 (Kcal/Mol)
 Warning -- explicit consideration of  17 degrees of freedom as
           vibrations may cause significant error
 Vibrational temperatures:     53.35    87.65   204.03   287.25   328.85
          (Kelvin)            350.16   399.17   431.98   454.46   506.56
                              534.54   630.34   664.76   725.58   778.58
                              861.29   874.66   941.25  1097.27  1196.38
                             1435.26  1617.63  1659.87  1746.10  1765.86
                             1780.95  1799.85  1931.40  2074.03  5508.00

 Zero-point correction=                           0.051820 (Hartree/Particle)
 Thermal correction to Energy=                    0.062233
 Thermal correction to Enthalpy=                  0.063178
 Thermal correction to Gibbs Free Energy=         0.014851
 Sum of electronic and zero-point Energies=          -1199.772338
 Sum of electronic and thermal Energies=             -1199.761925
 Sum of electronic and thermal Enthalpies=           -1199.760981
 Sum of electronic and thermal Free Energies=        -1199.809307

                     E (Thermal)             CV                S
                      KCal/Mol        Cal/Mol-Kelvin    Cal/Mol-Kelvin
 Total                   39.052             36.614            101.712
 Electronic               0.000              0.000              0.000
 Translational            0.889              2.981             41.783
 Rotational               0.889              2.981             30.118
 Vibrational             37.275             30.652             29.811
 Vibration     1          0.594              1.982              5.409
 Vibration     2          0.597              1.973              4.427
 Vibration     3          0.615              1.911              2.779
 Vibration     4          0.638              1.840              2.136
 Vibration     5          0.651              1.797              1.890
 Vibration     6          0.659              1.774              1.778
 Vibration     7          0.678              1.715              1.549
 Vibration     8          0.693              1.673              1.416
 Vibration     9          0.703              1.643              1.331
 Vibration    10          0.729              1.571              1.157
 Vibration    11          0.743              1.531              1.073
 Vibration    12          0.798              1.387              0.833
 Vibration    13          0.820              1.334              0.760
 Vibration    14          0.860              1.240              0.647
 Vibration    15          0.896              1.159              0.563
 Vibration    16          0.957              1.035              0.452
 Vibration    17          0.967              1.015              0.436

 Optimization completed.
    -- Stationary point found.
 Normal termination of Gaussian 16 at Fri May 23 04:15:45 2025.
