 Gaussian 16, Revision C.01,
 Gaussian 16:  ES64L-G16RevC.01  3-Jul-2019

 ----------------------------------------------------------------------
 #P wb97xd/6-311++G(d,p) Symm(None) scf(xqc) pop(None) geom(AllCheck,No
 KeepConstants) guess(Read) irc(RCFC,reverse,MaxPoints=100,StepSize=2)
 ----------------------------------------------------------------------

 Structure from the checkpoint file:  "2003846667223680600001_Intra_Diels_alder_R_6_7_IRC_R.chk"
 ------------------------------
 Gaussian input prepared by ASE
 ------------------------------
 Charge =  0 Multiplicity = 1

 SCF Done:  E(RwB97XD) =  -1199.82203351     A.U. after    9 cycles

                          Input orientation:
 ---------------------------------------------------------------------
 Center     Atomic      Atomic             Coordinates (Angstroms)
 Number     Number       Type             X           Y           Z
 ---------------------------------------------------------------------
      1          6           0       -1.337614   -0.293779    0.655902
      2          6           0       -0.379738    0.344256   -0.426216
      3          9           0       -0.728520   -0.071381   -1.639423
      4          9           0       -0.471927    1.678122   -0.381769
      5         16           0        1.427749   -0.080921   -0.167597
      6          8           0        1.596939   -1.468345   -0.458190
      7          8           0        1.846480    0.550215    1.052747
      8          8           0        2.032653    0.733808   -1.409824
      9          9           0       -0.641793   -1.005439    1.536589
     10          9           0       -1.989582    0.661669    1.302351
     11          9           0       -2.215948   -1.090268    0.066143
     12          1           0        2.251211    1.635839   -1.141222
 ---------------------------------------------------------------------

 Normal termination of Gaussian 16 at Fri May 23 06:34:23 2025.
