 Gaussian 16, Revision C.01,
 Gaussian 16:  ES64L-G16RevC.01  3-Jul-2019

 ----------------------------------------------------------------------
 #P mp2/6-31G Symm(None) scf(xqc) pop(None) guess(Mix,Always) freq opt(
 CalcFC)
 ----------------------------------------------------------------------

 ------------------------------
 Gaussian input prepared by ASE
 ------------------------------
 Symbolic Z-matrix:
 Charge =  0 Multiplicity = 1

 SCF Done:  E(RHF) =  -1194.95643282     A.U. after   19 cycles
 E2 =    -0.1286450713D+01 EUMP2 =    -0.11962428835348D+04
 E2 =    -0.1286450713D+01 EUMP2 =    -0.11962428835348D+04
 SCF Done:  E(RHF) =  -1194.96454187     A.U. after   19 cycles
 E2 =    -0.1288192247D+01 EUMP2 =    -0.11962527341159D+04
 SCF Done:  E(RHF) =  -1194.96501506     A.U. after   18 cycles
 E2 =    -0.1289113646D+01 EUMP2 =    -0.11962541287019D+04
 SCF Done:  E(RHF) =  -1194.96670412     A.U. after   18 cycles
 E2 =    -0.1288210978D+01 EUMP2 =    -0.11962549151021D+04
 SCF Done:  E(RHF) =  -1194.96597669     A.U. after   18 cycles
 E2 =    -0.1288859446D+01 EUMP2 =    -0.11962548361319D+04
 SCF Done:  E(RHF) =  -1194.96663123     A.U. after   18 cycles
 E2 =    -0.1288629734D+01 EUMP2 =    -0.11962552609605D+04
 SCF Done:  E(RHF) =  -1194.96626374     A.U. after   18 cycles
 E2 =    -0.1289155970D+01 EUMP2 =    -0.11962554197080D+04
 SCF Done:  E(RHF) =  -1194.96626737     A.U. after   18 cycles
 E2 =    -0.1289273781D+01 EUMP2 =    -0.11962555411492D+04
 SCF Done:  E(RHF) =  -1194.96627456     A.U. after   18 cycles
 E2 =    -0.1289274912D+01 EUMP2 =    -0.11962555494706D+04
 SCF Done:  E(RHF) =  -1194.96649396     A.U. after   19 cycles
 E2 =    -0.1289097343D+01 EUMP2 =    -0.11962555912986D+04
 E2 =    -0.1289018224D+01 EUMP2 =    -0.11962556409899D+04
 E2 =    -0.1288995636D+01 EUMP2 =    -0.11962556463483D+04
 E2 =    -0.1288810939D+01 EUMP2 =    -0.11962556201137D+04
 E2 =    -0.1288985459D+01 EUMP2 =    -0.11962556904792D+04
 E2 =    -0.1289009242D+01 EUMP2 =    -0.11962557130455D+04
 E2 =    -0.1289012112D+01 EUMP2 =    -0.11962557123003D+04
 E2 =    -0.1289087322D+01 EUMP2 =    -0.11962557173707D+04
 E2 =    -0.1289084177D+01 EUMP2 =    -0.11962557187096D+04
 E2 =    -0.1289116434D+01 EUMP2 =    -0.11962557210650D+04
 E2 =    -0.1289205836D+01 EUMP2 =    -0.11962557260412D+04
 E2 =    -0.1289622003D+01 EUMP2 =    -0.11962557864771D+04
 E2 =    -0.1290597019D+01 EUMP2 =    -0.11962563808663D+04
 E2 =    -0.1290625399D+01 EUMP2 =    -0.11962563039469D+04
 SCF Done:  E(RHF) =  -1194.96608278     A.U. after   19 cycles
 E2 =    -0.1289657264D+01 EUMP2 =    -0.11962557400434D+04
 SCF Done:  E(RHF) =  -1194.96612562     A.U. after   19 cycles
 E2 =    -0.1289620986D+01 EUMP2 =    -0.11962557466106D+04
 SCF Done:  E(RHF) =  -1194.96621385     A.U. after   19 cycles
 E2 =    -0.1290294062D+01 EUMP2 =    -0.11962565079084D+04
 SCF Done:  E(RHF) =  -1194.96647318     A.U. after   19 cycles
 E2 =    -0.1290155058D+01 EUMP2 =    -0.11962566282330D+04
 SCF Done:  E(RHF) =  -1194.96633924     A.U. after   19 cycles
 E2 =    -0.1290345084D+01 EUMP2 =    -0.11962566843269D+04
 SCF Done:  E(RHF) =  -1194.96618367     A.U. after   19 cycles
 E2 =    -0.1290515285D+01 EUMP2 =    -0.11962566989511D+04
 SCF Done:  E(RHF) =  -1194.96614427     A.U. after   19 cycles
 E2 =    -0.1290559169D+01 EUMP2 =    -0.11962567034357D+04
 SCF Done:  E(RHF) =  -1194.96614817     A.U. after   19 cycles
 E2 =    -0.1290555635D+01 EUMP2 =    -0.11962567038058D+04
 SCF Done:  E(RHF) =  -1194.96615787     A.U. after   19 cycles
 E2 =    -0.1290546008D+01 EUMP2 =    -0.11962567038817D+04
 Optimization completed.
    -- Stationary point found.
 Normal termination of Gaussian 16 at Fri May 23 03:39:59 2025.

 -------------------------------------------------------------------
 #P Geom=AllCheck Guess=TCheck SCRF=Check GenChk RMP2(FC)/6-31G Freq
 -------------------------------------------------------------------

 Structure from the checkpoint file:  "2003846667223680600001_R_Addition_MultipleBond_5_8_12_IRC_R_prod.chk"
 ------------------------------
 Gaussian input prepared by ASE
 ------------------------------
 Charge =  0 Multiplicity = 1

                          Input orientation:
 ---------------------------------------------------------------------
 Center     Atomic      Atomic             Coordinates (Angstroms)
 Number     Number       Type             X           Y           Z
 ---------------------------------------------------------------------
      1          6           0       -1.213582    0.287217    0.849542
      2          6           0       -0.545850   -0.254174   -0.427576
      3          9           0       -0.822983   -1.618679   -0.549023
      4          9           0       -0.979855    0.436035   -1.549784
      5         16           0        1.454595   -0.202752   -0.513087
      6          8           0        2.083412   -1.291430    0.462667
      7          8           0        1.896393   -0.119622   -2.040470
      8          8           0        1.452066    1.446066    0.246332
      9          9           0       -0.509260   -0.146193    1.968448
     10          9           0       -1.281476    1.668679    0.844959
     11          9           0       -2.514195   -0.216602    0.922158
     12          1           0        2.371708    1.817986    0.275531
 ---------------------------------------------------------------------

 SCF Done:  E(RHF) =  -1194.96615787     A.U. after    1 cycles
 E2 =    -0.1290546006D+01 EUMP2 =    -0.11962567038803D+04
 E2 =    -0.1290546006D+01 EUMP2 =    -0.11962567038803D+04

                      1                      2                      3
                      A                      A                      A
 Frequencies --     39.1564                64.7770               126.8340
 Red. masses --     12.6798                18.3289                 6.8184
 Frc consts  --      0.0115                 0.0453                 0.0646
 IR Inten    --      0.8130                 0.0759                18.5359

                      4                      5                      6
                      A                      A                      A
 Frequencies --    144.6005               158.4736               189.9991
 Red. masses --      2.3469                 4.6021                 3.7702
 Frc consts  --      0.0289                 0.0681                 0.0802
 IR Inten    --     43.5362                13.8489                26.2549

                      7                      8                      9
                      A                      A                      A
 Frequencies --    216.7221               221.5122               272.2050
 Red. masses --     13.8227                14.4548                 7.5728
 Frc consts  --      0.3825                 0.4179                 0.3306
 IR Inten    --      9.1845                 4.5230                23.8980

                     10                     11                     12
                      A                      A                      A
 Frequencies --    291.5796               340.2231               353.8185
 Red. masses --     16.1286                16.6499                11.7466
 Frc consts  --      0.8079                 1.1355                 0.8664
 IR Inten    --      2.3316                 7.1314                50.2605

                     13                     14                     15
                      A                      A                      A
 Frequencies --    373.6790               416.7806               450.7081
 Red. masses --     12.9034                17.4641                14.3152
 Frc consts  --      1.0616                 1.7874                 1.7133
 IR Inten    --     13.1011                 1.3126               103.3927

                     16                     17                     18
                      A                      A                      A
 Frequencies --    494.9027               556.0923               580.0201
 Red. masses --     16.3344                17.6310                16.8636
 Frc consts  --      2.3572                 3.2123                 3.3426
 IR Inten    --     11.5090                 4.4465                34.1695

                     19                     20                     21
                      A                      A                      A
 Frequencies --    625.0679               689.5334               901.3304
 Red. masses --     18.1966                16.9699                12.0365
 Frc consts  --      4.1889                 4.7538                 5.7613
 IR Inten    --    134.4579                33.7331               128.8691

                     22                     23                     24
                      A                      A                      A
 Frequencies --    979.7946              1084.1432              1097.4909
 Red. masses --      8.3351                13.6782                 1.2906
 Frc consts  --      4.7145                 9.4722                 0.9159
 IR Inten    --     51.4731               120.7292               119.3134

                     25                     26                     27
                      A                      A                      A
 Frequencies --   1125.5535              1187.7125              1188.5906
 Red. masses --     17.8967                11.3097                11.3787
 Frc consts  --     13.3584                 9.3999                 9.4713
 IR Inten    --    128.3500               161.7568               154.0477

                     28                     29                     30
                      A                      A                      A
 Frequencies --   1227.1292              1303.0872              3530.7751
 Red. masses --     13.0451                12.3409                 1.0663
 Frc consts  --     11.5738                12.3465                 7.8321
 IR Inten    --    181.8910               168.0112               102.2343

 - Thermochemistry -
 -------------------
 Temperature   298.150 Kelvin.  Pressure   1.00000 Atm.
 Atom     1 has atomic number  6 and mass  12.00000

 Molecular mass:   199.95666 amu.
 Principal axes and moments of inertia in atomic units:
                           1         2         3
     Eigenvalues --  1276.863092381.687932497.40666
           X            0.89503   0.43683  -0.08999
           Y           -0.12623   0.44161   0.88829
           Z           -0.42777   0.78368  -0.45039
 This molecule is an asymmetric top.
 Rotational symmetry number  1.
 Warning -- assumption of classical behavior for rotation
           may cause significant error
 Rotational temperatures (Kelvin)      0.06783     0.03637     0.03468
 Rotational constants (GHZ):           1.41342     0.75776     0.72265
 Zero-point vibrational energy     121016.0 (Joules/Mol)
                                   28.92351 (Kcal/Mol)
 Warning -- explicit consideration of  18 degrees of freedom as
           vibrations may cause significant error
 Vibrational temperatures:     56.34    93.20   182.49   208.05   228.01
          (Kelvin)            273.37   311.81   318.71   391.64   419.52
                              489.51   509.07   537.64   599.65   648.47
                              712.05   800.09   834.52   899.33   992.08
                             1296.81  1409.71  1559.84  1579.04  1619.42
                             1708.85  1710.12  1765.57  1874.85  5080.00

 Zero-point correction=                           0.046093 (Hartree/Particle)
 Thermal correction to Energy=                    0.057779
 Thermal correction to Enthalpy=                  0.058723
 Thermal correction to Gibbs Free Energy=         0.007682
 Sum of electronic and zero-point Energies=          -1196.210611
 Sum of electronic and thermal Energies=             -1196.198925
 Sum of electronic and thermal Enthalpies=           -1196.197981
 Sum of electronic and thermal Free Energies=        -1196.249021

                     E (Thermal)             CV                S
                      KCal/Mol        Cal/Mol-Kelvin    Cal/Mol-Kelvin
 Total                   36.257             39.799            107.424
 Electronic               0.000              0.000              0.000
 Translational            0.889              2.981             41.783
 Rotational               0.889              2.981             30.408
 Vibrational             34.479             33.837             35.232
 Vibration     1          0.594              1.981              5.301
 Vibration     2          0.597              1.971              4.306
 Vibration     3          0.611              1.926              2.994
 Vibration     4          0.616              1.908              2.742
 Vibration     5          0.621              1.893              2.568
 Vibration     6          0.633              1.854              2.228
 Vibration     7          0.646              1.816              1.986
 Vibration     8          0.648              1.808              1.947
 Vibration     9          0.675              1.725              1.582
 Vibration    10          0.687              1.689              1.465
 Vibration    11          0.720              1.595              1.211
 Vibration    12          0.730              1.567              1.149
 Vibration    13          0.745              1.526              1.065
 Vibration    14          0.780              1.434              0.903
 Vibration    15          0.809              1.359              0.794
 Vibration    16          0.851              1.261              0.671
 Vibration    17          0.912              1.126              0.532
 Vibration    18          0.937              1.075              0.485

 Optimization completed.
    -- Stationary point found.
 Normal termination of Gaussian 16 at Fri May 23 03:40:38 2025.
