 Gaussian 16, Revision C.01,
 Gaussian 16:  ES64L-G16RevC.01  3-Jul-2019

 ----------------------------------------------------------------------
 #P wb97xd/6-311++G(d,p) Symm(None) scf(xqc) pop(None) freq opt(CalcFC)
 ----------------------------------------------------------------------

 ------------------------------
 Gaussian input prepared by ASE
 ------------------------------
 Symbolic Z-matrix:
 Charge =  0 Multiplicity = 1

 SCF Done:  E(RwB97XD) =  -1199.81843358     A.U. after   14 cycles
 SCF Done:  E(RwB97XD) =  -1199.82505364     A.U. after   13 cycles
 SCF Done:  E(RwB97XD) =  -1199.82567941     A.U. after   12 cycles
 SCF Done:  E(RwB97XD) =  -1199.82586046     A.U. after   12 cycles
 SCF Done:  E(RwB97XD) =  -1199.82596049     A.U. after   12 cycles
 SCF Done:  E(RwB97XD) =  -1199.82601689     A.U. after   13 cycles
 SCF Done:  E(RwB97XD) =  -1199.82599500     A.U. after   13 cycles
 SCF Done:  E(RwB97XD) =  -1199.82604331     A.U. after   12 cycles
 SCF Done:  E(RwB97XD) =  -1199.82604569     A.U. after   11 cycles
 SCF Done:  E(RwB97XD) =  -1199.82604574     A.U. after    9 cycles
 Optimization completed.
    -- Stationary point found.
 Normal termination of Gaussian 16 at Fri May 23 04:12:55 2025.

 ----------------------------------------------------------------------
 #P Geom=AllCheck Guess=TCheck SCRF=Check GenChk RwB97XD/6-311++G(d,p)
 Freq
 ----------------------------------------------------------------------

 Structure from the checkpoint file:  "2003846667223680600001_r12_insertion_R_12_8_5_IRC_F_prod.chk"
 ------------------------------
 Gaussian input prepared by ASE
 ------------------------------
 Charge =  0 Multiplicity = 1

                          Input orientation:
 ---------------------------------------------------------------------
 Center     Atomic      Atomic             Coordinates (Angstroms)
 Number     Number       Type             X           Y           Z
 ---------------------------------------------------------------------
      1          6           0       -1.237415   -0.257817    0.775097
      2          6           0       -0.399741    0.139343   -0.473811
      3          9           0       -0.738763   -0.640668   -1.496446
      4          9           0       -0.663964    1.416529   -0.783763
      5         16           0        1.453678   -0.002471   -0.221160
      6          8           0        1.794838    0.833587    0.895660
      7          8           0        1.813412   -1.378911   -0.326663
      8          8           0        1.925907    0.706708   -1.578879
      9          9           0       -0.881189   -1.463660    1.199623
     10          9           0       -1.064517    0.620018    1.751351
     11          9           0       -2.523288   -0.279665    0.438837
     12          1           0        1.990364    1.662855   -1.455039
 ---------------------------------------------------------------------

 SCF Done:  E(RwB97XD) =  -1199.82604574     A.U. after    1 cycles

 Isotropic polarizability for W=    0.000000       55.70 Bohr**3.
 End of Minotr F.D. properties file   721 does not exist.

                      1                      2                      3
                      A                      A                      A
 Frequencies --     27.7984                67.4450               131.3769
 Red. masses --     14.2235                14.4251                14.7364
 Frc consts  --      0.0065                 0.0387                 0.1499
 IR Inten    --      1.2601                 0.7214                 1.2645

                      4                      5                      6
                      A                      A                      A
 Frequencies --    193.8781               222.6100               234.4675
 Red. masses --      9.0392                17.8913                 8.0773
 Frc consts  --      0.2002                 0.5224                 0.2616
 IR Inten    --      8.5410                 1.2231                 9.5891

                      7                      8                      9
                      A                      A                      A
 Frequencies --    275.2090               310.9278               318.0352
 Red. masses --     15.2262                 5.0297                18.2044
 Frc consts  --      0.6795                 0.2865                 1.0849
 IR Inten    --      1.4082                16.8248                 0.3316

                     10                     11                     12
                      A                      A                      A
 Frequencies --    358.4797               371.4752               436.3507
 Red. masses --      1.8688                17.7524                 4.1619
 Frc consts  --      0.1415                 1.4433                 0.4669
 IR Inten    --     56.9411                 0.1435                30.9291

                     13                     14                     15
                      A                      A                      A
 Frequencies --    484.5911               489.5061               539.3209
 Red. masses --     13.0938                 8.5067                17.8523
 Frc consts  --      1.8116                 1.2010                 3.0594
 IR Inten    --     14.2576                20.9169                28.5398

                     16                     17                     18
                      A                      A                      A
 Frequencies --    600.2458               609.3164               653.7026
 Red. masses --     17.3762                20.1340                17.3507
 Frc consts  --      3.6886                 4.4042                 4.3684
 IR Inten    --      3.4963               118.3774                30.1026

                     19                     20                     21
                      A                      A                      A
 Frequencies --    764.6656               825.4085              1005.4365
 Red. masses --     17.1217                17.1396                13.8209
 Frc consts  --      5.8985                 6.8800                 8.2318
 IR Inten    --     41.0325               218.3218                52.6688

                     22                     23                     24
                      A                      A                      A
 Frequencies --   1131.2660              1157.7843              1202.6045
 Red. masses --      1.1956                12.0685                15.9780
 Frc consts  --      0.9015                 9.5315                13.6150
 IR Inten    --    108.9223               239.9097                 6.5448

                     25                     26                     27
                      A                      A                      A
 Frequencies --   1218.9611              1249.1874              1253.6261
 Red. masses --     13.1240                13.7511                13.1787
 Frc consts  --     11.4894                12.6428                12.2027
 IR Inten    --    109.5276               333.3945               260.9151

                     28                     29                     30
                      A                      A                      A
 Frequencies --   1344.6846              1445.3022              3832.4375
 Red. masses --     12.6469                14.3027                 1.0662
 Frc consts  --     13.4733                17.6030                 9.2270
 IR Inten    --    106.7357               313.3601               161.7821

 - Thermochemistry -
 -------------------
 Temperature   298.150 Kelvin.  Pressure   1.00000 Atm.
 Atom     1 has atomic number  6 and mass  12.00000

 Molecular mass:   199.95666 amu.
 Principal axes and moments of inertia in atomic units:
                           1         2         3
     Eigenvalues --  1133.462732197.646362320.35169
           X            0.92550   0.37816   0.02116
           Y            0.10652  -0.31348   0.94360
           Z           -0.36346   0.87105   0.33040
 This molecule is an asymmetric top.
 Rotational symmetry number  1.
 Warning -- assumption of classical behavior for rotation
           may cause significant error
 Rotational temperatures (Kelvin)      0.07642     0.03941     0.03733
 Rotational constants (GHZ):           1.59224     0.82122     0.77779
 Zero-point vibrational energy     136111.7 (Joules/Mol)
                                   32.53148 (Kcal/Mol)
 Warning -- explicit consideration of  17 degrees of freedom as
           vibrations may cause significant error
 Vibrational temperatures:     40.00    97.04   189.02   278.95   320.29
          (Kelvin)            337.35   395.96   447.36   457.58   515.77
                              534.47   627.81   697.22   704.29   775.96
                              863.62   876.67   940.53  1100.18  1187.58
                             1446.60  1627.64  1665.79  1730.28  1753.81
                             1797.30  1803.69  1934.70  2079.47  5514.02

 Zero-point correction=                           0.051842 (Hartree/Particle)
 Thermal correction to Energy=                    0.062285
 Thermal correction to Enthalpy=                  0.063229
 Thermal correction to Gibbs Free Energy=         0.014618
 Sum of electronic and zero-point Energies=          -1199.774204
 Sum of electronic and thermal Energies=             -1199.763761
 Sum of electronic and thermal Enthalpies=           -1199.762816
 Sum of electronic and thermal Free Energies=        -1199.811427

                     E (Thermal)             CV                S
                      KCal/Mol        Cal/Mol-Kelvin    Cal/Mol-Kelvin
 Total                   39.085             36.597            102.310
 Electronic               0.000              0.000              0.000
 Translational            0.889              2.981             41.783
 Rotational               0.889              2.981             30.137
 Vibrational             37.307             30.636             30.390
 Vibration     1          0.593              1.984              5.981
 Vibration     2          0.598              1.970              4.227
 Vibration     3          0.612              1.922              2.926
 Vibration     4          0.635              1.848              2.190
 Vibration     5          0.648              1.807              1.938
 Vibration     6          0.654              1.788              1.844
 Vibration     7          0.677              1.719              1.563
 Vibration     8          0.700              1.653              1.357
 Vibration     9          0.704              1.639              1.320
 Vibration    10          0.733              1.558              1.129
 Vibration    11          0.743              1.531              1.074
 Vibration    12          0.797              1.391              0.838
 Vibration    13          0.841              1.284              0.698
 Vibration    14          0.845              1.273              0.685
 Vibration    15          0.894              1.163              0.567
 Vibration    16          0.958              1.031              0.449
 Vibration    17          0.968              1.012              0.434

 Optimization completed.
    -- Stationary point found.
 Normal termination of Gaussian 16 at Fri May 23 04:14:13 2025.
