 Gaussian 16, Revision C.01,
 Gaussian 16:  ES64L-G16RevC.01  3-Jul-2019

 ----------------------------------------------------------------------
 #P wb97xd/6-311++G(d,p) Symm(None) scf(xqc) pop(None) freq opt(CalcFC)
 ----------------------------------------------------------------------

 ------------------------------
 Gaussian input prepared by ASE
 ------------------------------
 Symbolic Z-matrix:
 Charge =  0 Multiplicity = 1

 SCF Done:  E(RwB97XD) =  -1199.72480358     A.U. after   15 cycles
 SCF Done:  E(RwB97XD) =  -1199.73103914     A.U. after   12 cycles
 SCF Done:  E(RwB97XD) =  -1199.73464810     A.U. after   12 cycles
 SCF Done:  E(RwB97XD) =  -1199.73620635     A.U. after   12 cycles
 SCF Done:  E(RwB97XD) =  -1199.73712596     A.U. after   12 cycles
 SCF Done:  E(RwB97XD) =  -1199.73759256     A.U. after   11 cycles
 SCF Done:  E(RwB97XD) =  -1199.73781876     A.U. after   12 cycles
 SCF Done:  E(RwB97XD) =  -1199.73786570     A.U. after   10 cycles
 SCF Done:  E(RwB97XD) =  -1199.73789994     A.U. after   11 cycles
 SCF Done:  E(RwB97XD) =  -1199.73792710     A.U. after   12 cycles
 SCF Done:  E(RwB97XD) =  -1199.73826434     A.U. after   11 cycles
 SCF Done:  E(RwB97XD) =  -1199.73826617     A.U. after   12 cycles
 SCF Done:  E(RwB97XD) =  -1199.73826365     A.U. after   12 cycles
 SCF Done:  E(RwB97XD) =  -1199.73823353     A.U. after   14 cycles
 SCF Done:  E(RwB97XD) =  -1199.73826461     A.U. after   13 cycles
 SCF Done:  E(RwB97XD) =  -1199.73826610     A.U. after   11 cycles
 SCF Done:  E(RwB97XD) =  -1199.73826509     A.U. after   11 cycles
 SCF Done:  E(RwB97XD) =  -1199.73826654     A.U. after   11 cycles
 SCF Done:  E(RwB97XD) =  -1199.73826665     A.U. after   10 cycles
 Optimization completed.
    -- Stationary point found.
 Normal termination of Gaussian 16 at Fri May 23 04:38:27 2025.

 ----------------------------------------------------------------------
 #P Geom=AllCheck Guess=TCheck SCRF=Check GenChk RwB97XD/6-311++G(d,p)
 Freq
 ----------------------------------------------------------------------

 Structure from the checkpoint file:  "2003846667223680600001_r12_insertion_R_9_1_2_IRC_F_prod.chk"
 ------------------------------
 Gaussian input prepared by ASE
 ------------------------------
 Charge =  0 Multiplicity = 1

                          Input orientation:
 ---------------------------------------------------------------------
 Center     Atomic      Atomic             Coordinates (Angstroms)
 Number     Number       Type             X           Y           Z
 ---------------------------------------------------------------------
      1          6           0       -3.218527   -0.314523    0.468878
      2          6           0        0.328086   -0.084554   -0.090038
      3          9           0       -0.178046   -0.469367   -1.253604
      4          9           0       -0.218931    1.057885    0.277826
      5         16           0        2.177788    0.124526   -0.275606
      6          8           0        2.659344    0.788329    0.893240
      7          8           0        2.696281   -1.125525   -0.757726
      8          8           0        2.196444    1.195932   -1.470740
      9          9           0        0.103024   -1.009503    0.824666
     10          9           0       -3.686440    0.783171    0.982671
     11          9           0       -4.172744   -1.183103    0.619067
     12          1           0        2.236578    0.741917   -2.322485
 ---------------------------------------------------------------------

 SCF Done:  E(RwB97XD) =  -1199.73826665     A.U. after    1 cycles

 Isotropic polarizability for W=    0.000000       57.84 Bohr**3.
 End of Minotr F.D. properties file   721 does not exist.

                      1                      2                      3
                      A                      A                      A
 Frequencies --     14.0715                17.5447                21.5021
 Red. masses --     17.5817                16.5584                16.4397
 Frc consts  --      0.0021                 0.0030                 0.0045
 IR Inten    --      0.2939                 0.1576                 0.9624

                      4                      5                      6
                      A                      A                      A
 Frequencies --     44.6138                49.2456                55.7757
 Red. masses --     16.7245                16.0148                13.7647
 Frc consts  --      0.0196                 0.0229                 0.0252
 IR Inten    --      0.1113                 0.1286                 1.2578

                      7                      8                      9
                      A                      A                      A
 Frequencies --     82.4311               188.8281               198.5332
 Red. masses --     12.4421                 6.6840                16.6022
 Frc consts  --      0.0498                 0.1404                 0.3856
 IR Inten    --      0.8084                10.7489                 3.7559

                     10                     11                     12
                      A                      A                      A
 Frequencies --    300.4658               310.0594               334.2865
 Red. masses --     10.1751                 2.6560                14.7215
 Frc consts  --      0.5412                 0.1504                 0.9693
 IR Inten    --      0.9933                42.2567                 1.5730

                     13                     14                     15
                      A                      A                      A
 Frequencies --    362.6661               456.1405               487.6654
 Red. masses --      2.4036                 4.2929                14.5033
 Frc consts  --      0.1863                 0.5263                 2.0322
 IR Inten    --     45.9589                33.6345                22.1931

                     16                     17                     18
                      A                      A                      A
 Frequencies --    564.4769               566.9450               609.8256
 Red. masses --     16.9639                15.7149                20.3434
 Frc consts  --      3.1847                 2.9761                 4.4574
 IR Inten    --      0.5156                 1.3455               173.6829

                     19                     20                     21
                      A                      A                      A
 Frequencies --    681.9617               771.9353               834.6370
 Red. masses --     17.7923                17.1186                18.3819
 Frc consts  --      4.8753                 6.0101                 7.5446
 IR Inten    --      4.5562                28.9452               221.1311

                     22                     23                     24
                      A                      A                      A
 Frequencies --   1126.7337              1133.8123              1139.3043
 Red. masses --      1.2121                13.6957                11.8470
 Frc consts  --      0.9066                10.3733                 9.0602
 IR Inten    --     76.9856               384.7983               355.0948

                     25                     26                     27
                      A                      A                      A
 Frequencies --   1234.2108              1248.2040              1252.0992
 Red. masses --     13.9867                13.8942                13.8030
 Frc consts  --     12.5529                12.7543                12.7497
 IR Inten    --     83.2252               260.8671                46.2514

                     28                     29                     30
                      A                      A                      A
 Frequencies --   1259.9092              1440.6998              3836.7250
 Red. masses --     13.4158                14.1993                 1.0663
 Frc consts  --     12.5472                17.3646                 9.2480
 IR Inten    --    324.8017               310.0325               157.6167

 - Thermochemistry -
 -------------------
 Temperature   298.150 Kelvin.  Pressure   1.00000 Atm.
 Atom     1 has atomic number  6 and mass  12.00000

 Molecular mass:   199.95666 amu.
 Principal axes and moments of inertia in atomic units:
                           1         2         3
     Eigenvalues --   825.508174715.230444850.63138
           X            0.98015  -0.02580   0.19659
           Y            0.07630   0.96423  -0.25386
           Z           -0.18300   0.26382   0.94705
 This molecule is an asymmetric top.
 Rotational symmetry number  1.
 Warning -- assumption of classical behavior for rotation
           may cause significant error
 Rotational temperatures (Kelvin)      0.10492     0.01837     0.01786
 Rotational constants (GHZ):           2.18622     0.38275     0.37206
 Zero-point vibrational energy     123366.7 (Joules/Mol)
                                   29.48536 (Kcal/Mol)
 Warning -- explicit consideration of  18 degrees of freedom as
           vibrations may cause significant error
 Vibrational temperatures:     20.25    25.24    30.94    64.19    70.85
          (Kelvin)             80.25   118.60   271.68   285.64   432.30
                              446.11   480.96   521.80   656.28   701.64
                              812.16   815.71   877.40   981.19  1110.64
                             1200.86  1621.12  1631.30  1639.20  1775.75
                             1795.89  1801.49  1812.73  2072.85  5520.19

 Zero-point correction=                           0.046988 (Hartree/Particle)
 Thermal correction to Energy=                    0.059913
 Thermal correction to Enthalpy=                  0.060857
 Thermal correction to Gibbs Free Energy=         0.001166
 Sum of electronic and zero-point Energies=          -1199.691279
 Sum of electronic and thermal Energies=             -1199.678354
 Sum of electronic and thermal Enthalpies=           -1199.677410
 Sum of electronic and thermal Free Energies=        -1199.737100

                     E (Thermal)             CV                S
                      KCal/Mol        Cal/Mol-Kelvin    Cal/Mol-Kelvin
 Total                   37.596             39.550            125.629
 Electronic               0.000              0.000              0.000
 Translational            0.889              2.981             41.783
 Rotational               0.889              2.981             31.313
 Vibrational             35.818             33.588             52.533
 Vibration     1          0.593              1.986              7.332
 Vibration     2          0.593              1.986              6.894
 Vibration     3          0.593              1.985              6.490
 Vibration     4          0.595              1.980              5.043
 Vibration     5          0.595              1.978              4.847
 Vibration     6          0.596              1.975              4.601
 Vibration     7          0.600              1.961              3.832
 Vibration     8          0.633              1.855              2.239
 Vibration     9          0.637              1.842              2.147
 Vibration    10          0.693              1.673              1.414
 Vibration    11          0.699              1.655              1.362
 Vibration    12          0.716              1.607              1.239
 Vibration    13          0.737              1.549              1.111
 Vibration    14          0.814              1.347              0.777
 Vibration    15          0.844              1.277              0.690
 Vibration    16          0.920              1.108              0.515
 Vibration    17          0.923              1.103              0.510
 Vibration    18          0.969              1.011              0.433

                           ! Non-Optimized Parameters !
 Normal termination of Gaussian 16 at Fri May 23 04:39:51 2025.
