 Gaussian 16, Revision C.01,
 Gaussian 16:  ES64L-G16RevC.01  3-Jul-2019

 ----------------------------------------------------------------------
 #P wb97xd/6-311++G(d,p) Symm(None) scf(xqc) pop(None) freq opt(CalcFC)
 ----------------------------------------------------------------------

 ------------------------------
 Gaussian input prepared by ASE
 ------------------------------
 Symbolic Z-matrix:
 Charge =  0 Multiplicity = 1

 SCF Done:  E(RwB97XD) =  -1199.74939926     A.U. after   15 cycles
 SCF Done:  E(RwB97XD) =  -1199.78849976     A.U. after   13 cycles
 SCF Done:  E(RwB97XD) =  -1199.81824503     A.U. after   13 cycles
 SCF Done:  E(RwB97XD) =  -1199.81941377     A.U. after   13 cycles
 SCF Done:  E(RwB97XD) =  -1199.82178027     A.U. after   12 cycles
 SCF Done:  E(RwB97XD) =  -1199.82262024     A.U. after   12 cycles
 SCF Done:  E(RwB97XD) =  -1199.82361179     A.U. after   12 cycles
 SCF Done:  E(RwB97XD) =  -1199.82431281     A.U. after   12 cycles
 SCF Done:  E(RwB97XD) =  -1199.82469567     A.U. after   12 cycles
 SCF Done:  E(RwB97XD) =  -1199.82503370     A.U. after   12 cycles
 SCF Done:  E(RwB97XD) =  -1199.82526021     A.U. after   11 cycles
 SCF Done:  E(RwB97XD) =  -1199.82535010     A.U. after   12 cycles
 SCF Done:  E(RwB97XD) =  -1199.82545963     A.U. after   11 cycles
 SCF Done:  E(RwB97XD) =  -1199.82549836     A.U. after   11 cycles
 SCF Done:  E(RwB97XD) =  -1199.82551434     A.U. after   11 cycles
 SCF Done:  E(RwB97XD) =  -1199.82551515     A.U. after    9 cycles
 SCF Done:  E(RwB97XD) =  -1199.82551530     A.U. after    8 cycles
 Optimization completed.
    -- Stationary point found.
 Normal termination of Gaussian 16 at Fri May 23 04:11:05 2025.

 ----------------------------------------------------------------------
 #P Geom=AllCheck Guess=TCheck SCRF=Check GenChk RwB97XD/6-311++G(d,p)
 Freq
 ----------------------------------------------------------------------

 Structure from the checkpoint file:  "2003846667223680600001_r12_insertion_R_5_2_1_IRC_R_prod.chk"
 ------------------------------
 Gaussian input prepared by ASE
 ------------------------------
 Charge =  0 Multiplicity = 1

                          Input orientation:
 ---------------------------------------------------------------------
 Center     Atomic      Atomic             Coordinates (Angstroms)
 Number     Number       Type             X           Y           Z
 ---------------------------------------------------------------------
      1          6           0       -0.741732   -0.807593    1.015399
      2          6           0        0.170688    0.967617   -1.235569
      3          9           0       -0.937776    0.331008   -1.671026
      4          9           0       -0.164172    2.185099   -0.854587
      5         16           0        0.808877   -0.026054    0.259282
      6          8           0        1.351566    0.862126    1.253518
      7          8           0        1.576635   -1.094227   -0.353539
      8          8           0        1.135788    1.022201   -2.149691
      9          9           0       -0.390773   -1.307135    2.185416
     10          9           0       -1.661796    0.127712    1.183911
     11          9           0       -1.207483   -1.766640    0.241434
     12          1           0        1.532701    0.147139   -2.264146
 ---------------------------------------------------------------------

 SCF Done:  E(RwB97XD) =  -1199.82551530     A.U. after    1 cycles

 Isotropic polarizability for W=    0.000000       58.33 Bohr**3.
 End of Minotr F.D. properties file   721 does not exist.

                      1                      2                      3
                      A                      A                      A
 Frequencies --     39.1974                61.4837               109.8133
 Red. masses --     13.8803                17.8009                16.6903
 Frc consts  --      0.0126                 0.0396                 0.1186
 IR Inten    --      1.0752                 0.1856                 0.3776

                      4                      5                      6
                      A                      A                      A
 Frequencies --    189.6945               195.8940               232.8992
 Red. masses --     13.6578                12.9164                 9.1976
 Frc consts  --      0.2896                 0.2920                 0.2939
 IR Inten    --      9.8667                 2.4141                25.1922

                      7                      8                      9
                      A                      A                      A
 Frequencies --    265.2528               283.6220               307.2164
 Red. masses --      6.0853                10.6517                17.1203
 Frc consts  --      0.2523                 0.5048                 0.9520
 IR Inten    --     17.7558                12.7376                 0.1832

                     10                     11                     12
                      A                      A                      A
 Frequencies --    328.1516               388.8322               416.3654
 Red. masses --      9.6975                 3.4154                 2.2330
 Frc consts  --      0.6153                 0.3042                 0.2281
 IR Inten    --      3.2559                24.7095                79.3356

                     13                     14                     15
                      A                      A                      A
 Frequencies --    522.2506               530.8902               549.2494
 Red. masses --     18.7956                11.2836                10.9031
 Frc consts  --      3.0204                 1.8737                 1.9379
 IR Inten    --     34.7475                31.4403                 8.1088

                     16                     17                     18
                      A                      A                      A
 Frequencies --    569.8705               593.1258               632.0672
 Red. masses --     12.6227                13.2801                17.0213
 Frc consts  --      2.4152                 2.7526                 4.0065
 IR Inten    --      6.4358                42.1241               132.6267

                     19                     20                     21
                      A                      A                      A
 Frequencies --    767.4409               791.5051              1035.8624
 Red. masses --     14.6021                16.7956                 6.5113
 Frc consts  --      5.0670                 6.1994                 4.1164
 IR Inten    --      9.7837                 1.1554               235.3526

                     22                     23                     24
                      A                      A                      A
 Frequencies --   1110.2854              1138.8909              1221.1171
 Red. masses --     12.4360                 3.3077                10.1783
 Frc consts  --      9.0324                 2.5278                 8.9421
 IR Inten    --    185.1632               168.1900               170.1735

                     25                     26                     27
                      A                      A                      A
 Frequencies --   1244.3134              1261.4359              1306.6724
 Red. masses --     13.1563                13.0553                 5.3527
 Frc consts  --     12.0017                12.2396                 5.3846
 IR Inten    --    273.2492               259.0105               405.9402

                     28                     29                     30
                      A                      A                      A
 Frequencies --   1374.3916              1418.9858              3795.5243
 Red. masses --      5.5387                 3.7002                 1.0657
 Frc consts  --      6.1642                 4.3896                 9.0457
 IR Inten    --     98.3111               301.2368               117.7463

 - Thermochemistry -
 -------------------
 Temperature   298.150 Kelvin.  Pressure   1.00000 Atm.
 Atom     1 has atomic number  6 and mass  12.00000

 Molecular mass:   199.95666 amu.
 Principal axes and moments of inertia in atomic units:
                           1         2         3
     Eigenvalues --  1204.403202140.479892340.43967
           X           -0.30343   0.94661  -0.10893
           Y           -0.58908  -0.09650   0.80229
           Z            0.74894   0.30760   0.58691
 This molecule is an asymmetric top.
 Rotational symmetry number  1.
 Warning -- assumption of classical behavior for rotation
           may cause significant error
 Rotational temperatures (Kelvin)      0.07191     0.04046     0.03701
 Rotational constants (GHZ):           1.49845     0.84315     0.77111
 Zero-point vibrational energy     135670.3 (Joules/Mol)
                                   32.42598 (Kcal/Mol)
 Warning -- explicit consideration of  17 degrees of freedom as
           vibrations may cause significant error
 Vibrational temperatures:     56.40    88.46   158.00   272.93   281.85
          (Kelvin)            335.09   381.64   408.07   442.02   472.14
                              559.44   599.06   751.40   763.83   790.25
                              819.92   853.38   909.40  1104.18  1138.80
                             1490.37  1597.45  1638.61  1756.92  1790.29
                             1814.92  1880.01  1977.44  2041.60  5460.91

 Zero-point correction=                           0.051674 (Hartree/Particle)
 Thermal correction to Energy=                    0.062264
 Thermal correction to Enthalpy=                  0.063209
 Thermal correction to Gibbs Free Energy=         0.014362
 Sum of electronic and zero-point Energies=          -1199.773841
 Sum of electronic and thermal Energies=             -1199.763251
 Sum of electronic and thermal Enthalpies=           -1199.762307
 Sum of electronic and thermal Free Energies=        -1199.811153

                     E (Thermal)             CV                S
                      KCal/Mol        Cal/Mol-Kelvin    Cal/Mol-Kelvin
 Total                   39.072             36.754            102.807
 Electronic               0.000              0.000              0.000
 Translational            0.889              2.981             41.783
 Rotational               0.889              2.981             30.179
 Vibrational             37.294             30.792             30.844
 Vibration     1          0.594              1.981              5.299
 Vibration     2          0.597              1.973              4.409
 Vibration     3          0.606              1.941              3.272
 Vibration     4          0.633              1.854              2.231
 Vibration     5          0.636              1.846              2.171
 Vibration     6          0.654              1.791              1.856
 Vibration     7          0.671              1.737              1.627
 Vibration     8          0.682              1.704              1.512
 Vibration     9          0.697              1.660              1.377
 Vibration    10          0.711              1.619              1.269
 Vibration    11          0.757              1.494              1.005
 Vibration    12          0.780              1.435              0.904
 Vibration    13          0.877              1.201              0.605
 Vibration    14          0.886              1.182              0.585
 Vibration    15          0.905              1.141              0.546
 Vibration    16          0.926              1.096              0.504
 Vibration    17          0.951              1.046              0.462

 Optimization completed.
    -- Stationary point found.
 Normal termination of Gaussian 16 at Fri May 23 04:12:31 2025.
