 Gaussian 16, Revision C.01,
 Gaussian 16:  ES64L-G16RevC.01  3-Jul-2019

 ----------------------------------------------------------------------
 #P wb97xd/6-311++G(d,p) Symm(None) scf(xqc) pop(None) opt(CalcAll,Cart
 esian)
 ----------------------------------------------------------------------

 ------------------------------
 Gaussian input prepared by ASE
 ------------------------------
 Symbolic Z-matrix:
 Charge =  0 Multiplicity = 1

 SCF Done:  E(RwB97XD) =  -1199.77399162     A.U. after   15 cycles
 SCF Done:  E(RwB97XD) =  -1199.77400757     A.U. after   11 cycles
 SCF Done:  E(RwB97XD) =  -1199.77401144     A.U. after   10 cycles
 SCF Done:  E(RwB97XD) =  -1199.77401224     A.U. after   10 cycles
 SCF Done:  E(RwB97XD) =  -1199.77401247     A.U. after    8 cycles
 SCF Done:  E(RwB97XD) =  -1199.77401248     A.U. after    8 cycles

 Isotropic polarizability for W=    0.000000       60.09 Bohr**3.
 End of Minotr F.D. properties file   721 does not exist.

 Optimization completed.
    -- Stationary point found.

                          Input orientation:
 ---------------------------------------------------------------------
 Center     Atomic      Atomic             Coordinates (Angstroms)
 Number     Number       Type             X           Y           Z
 ---------------------------------------------------------------------
      1          6           0       -1.331956    0.271176    0.681868
      2          6           0        1.113319   -1.955551   -0.993268
      3          9           0        0.577803   -3.085388   -0.643496
      4          9           0        1.100582   -1.967981   -2.290892
      5         16           0        1.184850    1.215514    0.490405
      6          8           0       -0.556592    1.367730    0.703592
      7          8           0        1.631552    2.449735    1.091327
      8          8           0        1.178661    1.395529   -1.115798
      9          9           0       -2.560339    0.612819    1.041138
     10          9           0       -1.397406   -0.288718   -0.539564
     11          9           0       -0.891883   -0.680865    1.518988
     12          1           0        0.910588    2.292681   -1.364871
 ---------------------------------------------------------------------

                      1                      2                      3
                      A                      A                      A
 Frequencies --     21.7241                26.0726                36.8683
 Red. masses --     17.5003                18.1345                17.6614
 Frc consts  --      0.0049                 0.0073                 0.0141
 IR Inten    --      0.0671                 0.1235                 0.2435

                      4                      5                      6
                      A                      A                      A
 Frequencies --     38.5910                59.0404                66.0735
 Red. masses --     12.3604                15.8848                13.1802
 Frc consts  --      0.0108                 0.0326                 0.0339
 IR Inten    --      0.7506                 0.4479                 1.0734

                      7                      8                      9
                      A                      A                      A
 Frequencies --     72.8257               128.2074               154.2169
 Red. masses --     13.3122                14.0392                16.0344
 Frc consts  --      0.0416                 0.1360                 0.2247
 IR Inten    --      0.3616                 3.9845                 0.2735

                     10                     11                     12
                      A                      A                      A
 Frequencies --    239.5383               295.5324               338.5732
 Red. masses --      2.1738                14.6671                 3.4700
 Frc consts  --      0.0735                 0.7548                 0.2344
 IR Inten    --     33.1686                15.2493                 9.5279

                     13                     14                     15
                      A                      A                      A
 Frequencies --    423.5170               467.3702               485.5726
 Red. masses --      8.5137                 9.4561                 3.5106
 Frc consts  --      0.8997                 1.2170                 0.4877
 IR Inten    --     44.5185                18.2202               130.1664

                     16                     17                     18
                      A                      A                      A
 Frequencies --    527.1259               626.8354               674.1424
 Red. masses --     13.4975                16.9135                15.9214
 Frc consts  --      2.2097                 3.9155                 4.2632
 IR Inten    --    110.7758                 6.3014                 0.6812

                     19                     20                     21
                      A                      A                      A
 Frequencies --    683.0302               708.1737               795.7021
 Red. masses --     17.7791                17.3899                14.6298
 Frc consts  --      4.8870                 5.1384                 5.4575
 IR Inten    --      4.1743               121.7148               172.6907

                     22                     23                     24
                      A                      A                      A
 Frequencies --    938.2201              1108.6242              1138.8853
 Red. masses --     17.1868                 1.3048                13.1648
 Frc consts  --      8.9136                 0.9448                10.0606
 IR Inten    --     20.2741                86.3661               242.5978

                     25                     26                     27
                      A                      A                      A
 Frequencies --   1173.2939              1232.8424              1251.5871
 Red. masses --     12.9229                10.3431                13.4851
 Frc consts  --     10.4815                 9.2622                12.4459
 IR Inten    --    496.0865               575.3105               100.9547

                     28                     29                     30
                      A                      A                      A
 Frequencies --   1265.5811              1311.4499              3787.1750
 Red. masses --     10.5124                14.1507                 1.0654
 Frc consts  --      9.9205                14.3394                 9.0030
 IR Inten    --    809.7426               153.8793               119.8052

 - Thermochemistry -
 -------------------
 Temperature   298.150 Kelvin.  Pressure   1.00000 Atm.
 Atom     1 has atomic number  6 and mass  12.00000

 Molecular mass:   199.95666 amu.
 Principal axes and moments of inertia in atomic units:
                           1         2         3
     Eigenvalues --  1785.839842632.025833700.34352
           X           -0.18363   0.89285   0.41121
           Y            0.85372   0.35222  -0.38354
           Z            0.48728  -0.28063   0.82693
 This molecule is an asymmetric top.
 Rotational symmetry number  1.
 Warning -- assumption of classical behavior for rotation
           may cause significant error
 Rotational temperatures (Kelvin)      0.04850     0.03291     0.02341
 Rotational constants (GHZ):           1.01058     0.68569     0.48772
 Zero-point vibrational energy     120083.5 (Joules/Mol)
                                   28.70064 (Kcal/Mol)
 Warning -- explicit consideration of  16 degrees of freedom as
           vibrations may cause significant error
 Vibrational temperatures:     31.26    37.51    53.05    55.52    84.95
          (Kelvin)             95.06   104.78   184.46   221.88   344.64
                              425.21   487.13   609.35   672.44   698.63
                              758.42   901.88   969.94   982.73  1018.90
                             1144.84  1349.89  1595.06  1638.60  1688.11
                             1773.79  1800.75  1820.89  1886.88  5448.90

 Zero-point correction=                           0.045737 (Hartree/Particle)
 Thermal correction to Energy=                    0.058815
 Thermal correction to Enthalpy=                  0.059759
 Thermal correction to Gibbs Free Energy=         0.000780
 Sum of electronic and zero-point Energies=          -1199.728275
 Sum of electronic and thermal Energies=             -1199.715197
 Sum of electronic and thermal Enthalpies=           -1199.714253
 Sum of electronic and thermal Free Energies=        -1199.773233

                     E (Thermal)             CV                S
                      KCal/Mol        Cal/Mol-Kelvin    Cal/Mol-Kelvin
 Total                   36.907             39.952            124.133
 Electronic               0.000              0.000              0.000
 Translational            0.889              2.981             41.783
 Rotational               0.889              2.981             31.231
 Vibrational             35.130             33.990             51.118
 Vibration     1          0.593              1.985              6.470
 Vibration     2          0.593              1.985              6.108
 Vibration     3          0.594              1.982              5.421
 Vibration     4          0.594              1.981              5.330
 Vibration     5          0.596              1.974              4.489
 Vibration     6          0.597              1.970              4.267
 Vibration     7          0.599              1.967              4.075
 Vibration     8          0.611              1.925              2.973
 Vibration     9          0.620              1.898              2.620
 Vibration    10          0.657              1.780              1.806
 Vibration    11          0.690              1.682              1.442
 Vibration    12          0.719              1.598              1.219
 Vibration    13          0.786              1.419              0.880
 Vibration    14          0.825              1.322              0.745
 Vibration    15          0.842              1.282              0.695
 Vibration    16          0.882              1.190              0.594

 Normal termination of Gaussian 16 at Fri May 23 05:14:41 2025.
