 Gaussian 16, Revision C.01,
 Gaussian 16:  ES64L-G16RevC.01  3-Jul-2019

 ----------------------------------------------------------------------
 #P mp2/6-31G Symm(None) scf(xqc) pop(None) guess(Mix,Always) freq opt(
 CalcFC)
 ----------------------------------------------------------------------

 ------------------------------
 Gaussian input prepared by ASE
 ------------------------------
 Symbolic Z-matrix:
 Charge =  0 Multiplicity = 1

 SCF Done:  E(RHF) =  -1194.95487912     A.U. after   19 cycles
 E2 =    -0.1287622794D+01 EUMP2 =    -0.11962425019170D+04
 E2 =    -0.1287622794D+01 EUMP2 =    -0.11962425019170D+04
 SCF Done:  E(RHF) =  -1194.96401382     A.U. after   19 cycles
 E2 =    -0.1289079264D+01 EUMP2 =    -0.11962530930890D+04
 SCF Done:  E(RHF) =  -1194.96470408     A.U. after   19 cycles
 E2 =    -0.1290100576D+01 EUMP2 =    -0.11962548046513D+04
 SCF Done:  E(RHF) =  -1194.96541445     A.U. after   19 cycles
 E2 =    -0.1290130950D+01 EUMP2 =    -0.11962555453974D+04
 SCF Done:  E(RHF) =  -1194.96558234     A.U. after   19 cycles
 E2 =    -0.1290479751D+01 EUMP2 =    -0.11962560620954D+04
 SCF Done:  E(RHF) =  -1194.96555473     A.U. after   19 cycles
 E2 =    -0.1290810875D+01 EUMP2 =    -0.11962563656004D+04
 SCF Done:  E(RHF) =  -1194.96541404     A.U. after   19 cycles
 E2 =    -0.1290882464D+01 EUMP2 =    -0.11962562965083D+04
 SCF Done:  E(RHF) =  -1194.96555156     A.U. after   19 cycles
 E2 =    -0.1290982682D+01 EUMP2 =    -0.11962565342424D+04
 SCF Done:  E(RHF) =  -1194.96617949     A.U. after   19 cycles
 E2 =    -0.1290428641D+01 EUMP2 =    -0.11962566081280D+04
 SCF Done:  E(RHF) =  -1194.96605717     A.U. after   19 cycles
 E2 =    -0.1290634013D+01 EUMP2 =    -0.11962566911795D+04
 SCF Done:  E(RHF) =  -1194.96616095     A.U. after   19 cycles
 E2 =    -0.1290540760D+01 EUMP2 =    -0.11962567017077D+04
 SCF Done:  E(RHF) =  -1194.96615177     A.U. after   19 cycles
 E2 =    -0.1290551930D+01 EUMP2 =    -0.11962567036977D+04
 SCF Done:  E(RHF) =  -1194.96616244     A.U. after   19 cycles
 E2 =    -0.1290541419D+01 EUMP2 =    -0.11962567038573D+04
 Optimization completed.
    -- Stationary point found.
 Normal termination of Gaussian 16 at Fri May 23 03:36:45 2025.

 -------------------------------------------------------------------
 #P Geom=AllCheck Guess=TCheck SCRF=Check GenChk RMP2(FC)/6-31G Freq
 -------------------------------------------------------------------

 Structure from the checkpoint file:  "2003846667223680600001_R_Addition_MultipleBond_5_8_12_IRC_F_prod.chk"
 ------------------------------
 Gaussian input prepared by ASE
 ------------------------------
 Charge =  0 Multiplicity = 1

                          Input orientation:
 ---------------------------------------------------------------------
 Center     Atomic      Atomic             Coordinates (Angstroms)
 Number     Number       Type             X           Y           Z
 ---------------------------------------------------------------------
      1          6           0       -1.209340    0.141664    0.925199
      2          6           0       -0.542696   -0.213414   -0.416275
      3          9           0       -0.582313   -1.580512   -0.647844
      4          9           0       -1.183018    0.480919   -1.446534
      5         16           0        1.374931    0.311077   -0.658805
      6          8           0        1.736967   -0.198277    1.045503
      7          8           0        2.047393   -0.687172   -1.701043
      8          8           0        1.504843    1.887460   -0.834580
      9          9           0       -0.871552   -0.759426    1.918667
     10          9           0       -0.839080    1.426788    1.308850
     11          9           0       -2.595584    0.111534    0.757314
     12          1           0        2.709425   -0.129710    1.231311
 ---------------------------------------------------------------------

 SCF Done:  E(RHF) =  -1194.96616244     A.U. after    1 cycles
 E2 =    -0.1290541418D+01 EUMP2 =    -0.11962567038559D+04
 E2 =    -0.1290541418D+01 EUMP2 =    -0.11962567038559D+04

                      1                      2                      3
                      A                      A                      A
 Frequencies --     39.2199                64.7808               126.8779
 Red. masses --     12.7217                18.3275                 6.9088
 Frc consts  --      0.0115                 0.0453                 0.0655
 IR Inten    --      0.7932                 0.0754                18.2324

                      4                      5                      6
                      A                      A                      A
 Frequencies --    144.7060               158.5057               190.0838
 Red. masses --      2.3503                 4.5644                 3.7545
 Frc consts  --      0.0290                 0.0676                 0.0799
 IR Inten    --     43.5604                14.0635                26.4050

                      7                      8                      9
                      A                      A                      A
 Frequencies --    216.7633               221.5409               272.2106
 Red. masses --     13.8235                14.4429                 7.5683
 Frc consts  --      0.3827                 0.4176                 0.3304
 IR Inten    --      9.1852                 4.5434                23.9509

                     10                     11                     12
                      A                      A                      A
 Frequencies --    291.6467               340.2132               353.7783
 Red. masses --     16.1261                16.6504                11.7710
 Frc consts  --      0.8082                 1.1355                 0.8680
 IR Inten    --      2.3325                 7.1517                50.1641

                     13                     14                     15
                      A                      A                      A
 Frequencies --    373.6910               416.7895               450.7254
 Red. masses --     12.9077                17.4647                14.3154
 Frc consts  --      1.0620                 1.7875                 1.7135
 IR Inten    --     13.0922                 1.3072               103.3355

                     16                     17                     18
                      A                      A                      A
 Frequencies --    494.9085               556.0916               580.0232
 Red. masses --     16.3334                17.6308                16.8632
 Frc consts  --      2.3571                 3.2123                 3.3426
 IR Inten    --     11.5289                 4.4398                34.0966

                     19                     20                     21
                      A                      A                      A
 Frequencies --    625.1003               689.5366               901.4008
 Red. masses --     18.1928                16.9706                12.0358
 Frc consts  --      4.1884                 4.7540                 5.7619
 IR Inten    --    134.4847                33.7447               128.9285

                     22                     23                     24
                      A                      A                      A
 Frequencies --    979.7707              1084.1002              1097.3066
 Red. masses --      8.3155                13.6774                 1.2909
 Frc consts  --      4.7031                 9.4710                 0.9158
 IR Inten    --     51.3420               120.7044               119.3030

                     25                     26                     27
                      A                      A                      A
 Frequencies --   1125.5513              1187.6579              1188.4969
 Red. masses --     17.9339                11.2287                11.4652
 Frc consts  --     13.3861                 9.3318                 9.5418
 IR Inten    --    128.2900               160.9296               155.0972

                     28                     29                     30
                      A                      A                      A
 Frequencies --   1227.1681              1303.0505              3530.8932
 Red. masses --     13.0455                12.3410                 1.0663
 Frc consts  --     11.5750                12.3459                 7.8327
 IR Inten    --    181.8620               167.9689               102.3219

 - Thermochemistry -
 -------------------
 Temperature   298.150 Kelvin.  Pressure   1.00000 Atm.
 Atom     1 has atomic number  6 and mass  12.00000

 Molecular mass:   199.95666 amu.
 Principal axes and moments of inertia in atomic units:
                           1         2         3
     Eigenvalues --  1276.796312381.702282497.36186
           X            0.87351   0.42262  -0.24162
           Y            0.05341   0.41014   0.91046
           Z           -0.48388   0.80819  -0.33569
 This molecule is an asymmetric top.
 Rotational symmetry number  1.
 Warning -- assumption of classical behavior for rotation
           may cause significant error
 Rotational temperatures (Kelvin)      0.06784     0.03637     0.03468
 Rotational constants (GHZ):           1.41349     0.75775     0.72266
 Zero-point vibrational energy     121017.8 (Joules/Mol)
                                   28.92394 (Kcal/Mol)
 Warning -- explicit consideration of  18 degrees of freedom as
           vibrations may cause significant error
 Vibrational temperatures:     56.43    93.21   182.55   208.20   228.05
          (Kelvin)            273.49   311.87   318.75   391.65   419.61
                              489.49   509.01   537.66   599.67   648.49
                              712.06   800.09   834.52   899.38   992.09
                             1296.91  1409.67  1559.78  1578.78  1619.42
                             1708.77  1709.98  1765.62  1874.80  5080.17

 Zero-point correction=                           0.046093 (Hartree/Particle)
 Thermal correction to Energy=                    0.057779
 Thermal correction to Enthalpy=                  0.058723
 Thermal correction to Gibbs Free Energy=         0.007686
 Sum of electronic and zero-point Energies=          -1196.210611
 Sum of electronic and thermal Energies=             -1196.198925
 Sum of electronic and thermal Enthalpies=           -1196.197981
 Sum of electronic and thermal Free Energies=        -1196.249018

                     E (Thermal)             CV                S
                      KCal/Mol        Cal/Mol-Kelvin    Cal/Mol-Kelvin
 Total                   36.257             39.798            107.416
 Electronic               0.000              0.000              0.000
 Translational            0.889              2.981             41.783
 Rotational               0.889              2.981             30.408
 Vibrational             34.479             33.837             35.225
 Vibration     1          0.594              1.981              5.298
 Vibration     2          0.597              1.971              4.306
 Vibration     3          0.611              1.926              2.993
 Vibration     4          0.616              1.908              2.741
 Vibration     5          0.621              1.893              2.568
 Vibration     6          0.633              1.854              2.227
 Vibration     7          0.646              1.816              1.986
 Vibration     8          0.648              1.808              1.946
 Vibration     9          0.675              1.725              1.582
 Vibration    10          0.687              1.689              1.464
 Vibration    11          0.720              1.595              1.211
 Vibration    12          0.730              1.568              1.149
 Vibration    13          0.745              1.526              1.065
 Vibration    14          0.780              1.434              0.903
 Vibration    15          0.810              1.359              0.794
 Vibration    16          0.851              1.261              0.671
 Vibration    17          0.912              1.126              0.532
 Vibration    18          0.937              1.074              0.485

 Optimization completed.
    -- Stationary point found.
 Normal termination of Gaussian 16 at Fri May 23 03:37:22 2025.
