 Gaussian 16, Revision C.01,
 Gaussian 16:  ES64L-G16RevC.01  3-Jul-2019

 ----------------------------------------------------------------------
 #P wb97xd/6-311++G(d,p) Symm(None) scf(xqc) pop(None) geom(AllCheck,No
 KeepConstants) guess(Read) irc(RCFC,reverse,MaxPoints=100,StepSize=2)
 ----------------------------------------------------------------------

 Structure from the checkpoint file:  "2003846667223680600001_r12_insertion_R_2_1_9_IRC_R.chk"
 ------------------------------
 Gaussian input prepared by ASE
 ------------------------------
 Charge =  0 Multiplicity = 1

 SCF Done:  E(RwB97XD) =  -1199.65755043     A.U. after   13 cycles
 SCF Done:  E(RwB97XD) =  -1199.65759694     A.U. after   13 cycles
 SCF Done:  E(RwB97XD) =  -1199.65767464     A.U. after   13 cycles
 SCF Done:  E(RwB97XD) =  -1199.65778363     A.U. after   13 cycles
 SCF Done:  E(RwB97XD) =  -1199.65792386     A.U. after   13 cycles
 SCF Done:  E(RwB97XD) =  -1199.65809517     A.U. after   13 cycles
 SCF Done:  E(RwB97XD) =  -1199.65829726     A.U. after   13 cycles
 SCF Done:  E(RwB97XD) =  -1199.65852970     A.U. after   13 cycles
 SCF Done:  E(RwB97XD) =  -1199.65879201     A.U. after   13 cycles
 SCF Done:  E(RwB97XD) =  -1199.65908364     A.U. after   13 cycles
 SCF Done:  E(RwB97XD) =  -1199.74600200     A.U. after   10 cycles
 SCF Done:  E(RwB97XD) =  -1199.74735179     A.U. after   10 cycles
 SCF Done:  E(RwB97XD) =  -1199.74868939     A.U. after   10 cycles
 SCF Done:  E(RwB97XD) =  -1199.75001426     A.U. after   10 cycles
 SCF Done:  E(RwB97XD) =  -1199.75132593     A.U. after   10 cycles
 SCF Done:  E(RwB97XD) =  -1199.75262400     A.U. after   10 cycles
 SCF Done:  E(RwB97XD) =  -1199.75390815     A.U. after   10 cycles
 SCF Done:  E(RwB97XD) =  -1199.75517812     A.U. after   10 cycles
 SCF Done:  E(RwB97XD) =  -1199.75643375     A.U. after   10 cycles
 SCF Done:  E(RwB97XD) =  -1199.75767494     A.U. after    9 cycles

                          Input orientation:
 ---------------------------------------------------------------------
 Center     Atomic      Atomic             Coordinates (Angstroms)
 Number     Number       Type             X           Y           Z
 ---------------------------------------------------------------------
      1          6           0       -1.024254   -0.396570    0.816732
      2          6           0       -0.646439   -0.032408   -0.636404
      3          9           0       -0.936190   -1.048981   -1.432748
      4          9           0       -1.149945    1.080252   -1.145179
      5         16           0        1.258830    0.285677   -0.255329
      6          8           0        1.251970    0.710781    1.112517
      7          8           0        2.151209   -0.714370   -0.774281
      8          8           0        1.455764    1.625062   -1.104724
      9          9           0        0.021665   -1.360564    0.943622
     10          9           0       -1.168071    0.784546    1.444077
     11          9           0       -2.028233   -1.107171    1.250682
     12          1           0        2.013053    1.451115   -1.873010
 ---------------------------------------------------------------------

 Normal termination of Gaussian 16 at Fri May 23 04:12:07 2025.
