 Gaussian 16, Revision C.01,
 Gaussian 16:  ES64L-G16RevC.01  3-Jul-2019

 ----------------------------------------------------------------------
 #P wb97xd/6-311++G(d,p) Symm(None) scf(xqc) pop(None) freq opt(CalcFC)
 ----------------------------------------------------------------------

 ------------------------------
 Gaussian input prepared by ASE
 ------------------------------
 Symbolic Z-matrix:
 Charge =  0 Multiplicity = 1

 SCF Done:  E(RwB97XD) =  -1199.72786258     A.U. after   17 cycles
 SCF Done:  E(RwB97XD) =  -1199.73134125     A.U. after   16 cycles
 SCF Done:  E(RwB97XD) =  -1199.72440488     A.U. after   15 cycles
 SCF Done:  E(RwB97XD) =  -1199.73664433     A.U. after   14 cycles
 SCF Done:  E(RwB97XD) =  -1199.74273336     A.U. after   14 cycles
 SCF Done:  E(RwB97XD) =  -1199.74718667     A.U. after   14 cycles
 SCF Done:  E(RwB97XD) =  -1199.74949585     A.U. after   14 cycles
 SCF Done:  E(RwB97XD) =  -1199.75031092     A.U. after   13 cycles
 SCF Done:  E(RwB97XD) =  -1199.75049929     A.U. after   13 cycles
 SCF Done:  E(RwB97XD) =  -1199.75075853     A.U. after   12 cycles
 SCF Done:  E(RwB97XD) =  -1199.75116439     A.U. after   10 cycles
 SCF Done:  E(RwB97XD) =  -1199.75116476     A.U. after    9 cycles
 SCF Done:  E(RwB97XD) =  -1199.75116494     A.U. after    9 cycles
 SCF Done:  E(RwB97XD) =  -1199.75116525     A.U. after    9 cycles
 SCF Done:  E(RwB97XD) =  -1199.75116558     A.U. after    9 cycles
 SCF Done:  E(RwB97XD) =  -1199.75116578     A.U. after    9 cycles
 SCF Done:  E(RwB97XD) =  -1199.75116597     A.U. after    9 cycles
 SCF Done:  E(RwB97XD) =  -1199.75116606     A.U. after    9 cycles
 SCF Done:  E(RwB97XD) =  -1199.75116613     A.U. after    9 cycles
 Optimization completed.
    -- Stationary point found.
 Normal termination of Gaussian 16 at Fri May 23 05:21:23 2025.

 ----------------------------------------------------------------------
 #P Geom=AllCheck Guess=TCheck SCRF=Check GenChk RwB97XD/6-311++G(d,p)
 Freq
 ----------------------------------------------------------------------

 Structure from the checkpoint file:  "2003846667223680600001_r13_insertion_ROR_1_2_5_8_IRC_F_prod.chk"
 ------------------------------
 Gaussian input prepared by ASE
 ------------------------------
 Charge =  0 Multiplicity = 1

                          Input orientation:
 ---------------------------------------------------------------------
 Center     Atomic      Atomic             Coordinates (Angstroms)
 Number     Number       Type             X           Y           Z
 ---------------------------------------------------------------------
      1          6           0       -0.746515   -1.226887    0.192313
      2          6           0        0.462780   -1.708407   -0.074738
      3          9           0        1.353509   -1.963840    0.849486
      4          9           0        0.854730   -2.021512   -1.282818
      5         16           0        0.992772    1.361644   -0.140262
      6          8           0        1.150070    1.415038    1.279831
      7          8           0        2.060637    0.929254   -0.987488
      8          8           0       -0.223680    1.844188   -0.741401
      9          9           0       -1.160330   -0.960974    1.402549
     10          9           0       -2.855581    2.030294    0.187228
     11          9           0       -1.646753   -1.019212   -0.732249
     12          1           0       -2.007669    2.019334   -0.178598
 ---------------------------------------------------------------------

 SCF Done:  E(RwB97XD) =  -1199.75116613     A.U. after    1 cycles

 Isotropic polarizability for W=    0.000000       59.80 Bohr**3.
 End of Minotr F.D. properties file   721 does not exist.

                      1                      2                      3
                      A                      A                      A
 Frequencies --     15.9040                26.7832                38.2712
 Red. masses --     15.8975                16.7953                15.9257
 Frc consts  --      0.0024                 0.0071                 0.0137
 IR Inten    --      0.1520                 1.8943                 3.0508

                      4                      5                      6
                      A                      A                      A
 Frequencies --     55.6377                57.5416                61.2480
 Red. masses --     18.4337                16.9397                18.2659
 Frc consts  --      0.0336                 0.0330                 0.0404
 IR Inten    --      3.1443                 1.2189                 0.9859

                      7                      8                      9
                      A                      A                      A
 Frequencies --     83.8185                93.9797               147.6696
 Red. masses --     16.2360                15.0228                11.5033
 Frc consts  --      0.0672                 0.0782                 0.1478
 IR Inten    --      0.1663                 0.6058                 4.9088

                     10                     11                     12
                      A                      A                      A
 Frequencies --    203.3455               215.8515               397.6073
 Red. masses --     18.9733                18.1096                13.4817
 Frc consts  --      0.4622                 0.4971                 1.2557
 IR Inten    --      0.0093                 3.8865                 9.8890

                     13                     14                     15
                      A                      A                      A
 Frequencies --    418.3632               444.0236               464.5018
 Red. masses --      7.9180                 1.1981                 9.4194
 Frc consts  --      0.8165                 0.1392                 1.1974
 IR Inten    --     25.0057               127.4489                34.9726

                     16                     17                     18
                      A                      A                      A
 Frequencies --    503.1001               515.9720               534.8021
 Red. masses --      1.7025                 6.7556                 2.9378
 Frc consts  --      0.2539                 1.0597                 0.4951
 IR Inten    --    212.0402                17.3013               108.7975

                     19                     20                     21
                      A                      A                      A
 Frequencies --    553.0362               559.3082               572.3246
 Red. masses --     13.0918                17.1391                15.2890
 Frc consts  --      2.3592                 3.1589                 2.9506
 IR Inten    --      4.9530                 0.1486                 8.5141

                     22                     23                     24
                      A                      A                      A
 Frequencies --    811.0295              1072.3723              1201.4198
 Red. masses --     18.5363                15.9746                14.0033
 Frc consts  --      7.1837                10.8236                11.9089
 IR Inten    --      0.6528                 5.1826               323.5293

                     25                     26                     27
                      A                      A                      A
 Frequencies --   1361.1173              1369.5757              1380.4267
 Red. masses --     14.5317                13.6378                17.6996
 Frc consts  --     15.8620                15.0719                19.8719
 IR Inten    --    155.5303                32.3132               382.2621

                     28                     29                     30
                      A                      A                      A
 Frequencies --   1408.7272              1898.3777              4035.8491
 Red. masses --     19.9235                12.2003                 1.0586
 Frc consts  --     23.2954                25.9051                10.1588
 IR Inten    --    321.8110                71.9479               574.6220

 - Thermochemistry -
 -------------------
 Temperature   298.150 Kelvin.  Pressure   1.00000 Atm.
 Atom     1 has atomic number  6 and mass  12.00000

 Molecular mass:   199.95666 amu.
 Principal axes and moments of inertia in atomic units:
                           1         2         3
     Eigenvalues --  1904.417262326.293963219.68559
           X           -0.47304   0.87394   0.11165
           Y            0.88040   0.47373   0.02195
           Z            0.03371  -0.10868   0.99351
 This molecule is an asymmetric top.
 Rotational symmetry number  1.
 Warning -- assumption of classical behavior for rotation
           may cause significant error
 Rotational temperatures (Kelvin)      0.04548     0.03723     0.02690
 Rotational constants (GHZ):           0.94766     0.77580     0.56053
 Zero-point vibrational energy     122629.1 (Joules/Mol)
                                   29.30906 (Kcal/Mol)
 Warning -- explicit consideration of  21 degrees of freedom as
           vibrations may cause significant error
 Vibrational temperatures:     22.88    38.54    55.06    80.05    82.79
          (Kelvin)             88.12   120.60   135.22   212.46   292.57
                              310.56   572.07   601.93   638.85   668.31
                              723.85   742.37   769.46   795.70   804.72
                              823.45  1166.89  1542.90  1728.58  1958.34
                             1970.51  1986.13  2026.84  2731.34  5806.69

 Zero-point correction=                           0.046707 (Hartree/Particle)
 Thermal correction to Energy=                    0.060356
 Thermal correction to Enthalpy=                  0.061300
 Thermal correction to Gibbs Free Energy=         0.001301
 Sum of electronic and zero-point Energies=          -1199.704459
 Sum of electronic and thermal Energies=             -1199.690810
 Sum of electronic and thermal Enthalpies=           -1199.689866
 Sum of electronic and thermal Free Energies=        -1199.749865

                     E (Thermal)             CV                S
                      KCal/Mol        Cal/Mol-Kelvin    Cal/Mol-Kelvin
 Total                   37.874             41.503            126.279
 Electronic               0.000              0.000              0.000
 Translational            0.889              2.981             41.783
 Rotational               0.889              2.981             31.034
 Vibrational             36.097             35.541             53.461
 Vibration     1          0.593              1.986              7.089
 Vibration     2          0.593              1.984              6.054
 Vibration     3          0.594              1.982              5.347
 Vibration     4          0.596              1.975              4.606
 Vibration     5          0.596              1.974              4.540
 Vibration     6          0.597              1.973              4.417
 Vibration     7          0.601              1.960              3.799
 Vibration     8          0.603              1.953              3.575
 Vibration     9          0.617              1.905              2.702
 Vibration    10          0.639              1.835              2.103
 Vibration    11          0.645              1.817              1.994
 Vibration    12          0.764              1.475              0.971
 Vibration    13          0.781              1.430              0.898
 Vibration    14          0.804              1.374              0.814
 Vibration    15          0.822              1.329              0.753
 Vibration    16          0.858              1.243              0.650
 Vibration    17          0.871              1.215              0.619
 Vibration    18          0.890              1.173              0.577
 Vibration    19          0.908              1.133              0.538
 Vibration    20          0.915              1.119              0.525
 Vibration    21          0.929              1.091              0.500

                           ! Non-Optimized Parameters !
 Normal termination of Gaussian 16 at Fri May 23 05:22:41 2025.
