 Gaussian 16, Revision C.01,
 Gaussian 16:  ES64L-G16RevC.01  3-Jul-2019

 ----------------------------------------------------------------------
 #P wb97xd/6-311++G(d,p) Symm(None) scf(xqc) pop(None) opt(NoFreeze,TS,
 CalcAll,NoEigentest,MaxCycle=999)
 ----------------------------------------------------------------------

 ------------------------------
 Gaussian input prepared by ASE
 ------------------------------
 Symbolic Z-matrix:
 Charge =  0 Multiplicity = 1

 SCF Done:  E(RwB97XD) =  -1199.52570133     A.U. after   23 cycles
 SCF Done:  E(RwB97XD) =  -1199.54104306     A.U. after   21 cycles
 SCF Done:  E(RwB97XD) =  -1199.54967363     A.U. after   21 cycles
 SCF Done:  E(RwB97XD) =  -1199.55384636     A.U. after   22 cycles
 SCF Done:  E(RwB97XD) =  -1199.55446901     A.U. after   21 cycles
 SCF Done:  E(RwB97XD) =  -1199.55339979     A.U. after   23 cycles
 SCF Done:  E(RwB97XD) =  -1199.55198810     A.U. after   22 cycles
 SCF Done:  E(RwB97XD) =  -1199.55087766     A.U. after   21 cycles
 SCF Done:  E(RwB97XD) =  -1199.55036877     A.U. after   20 cycles
 SCF Done:  E(RwB97XD) =  -1199.55060668     A.U. after   20 cycles
 SCF Done:  E(RwB97XD) =  -1199.58817659     A.U. after   16 cycles
 SCF Done:  E(RwB97XD) =  -1199.59469443     A.U. after   18 cycles
 SCF Done:  E(RwB97XD) =  -1199.59717678     A.U. after   16 cycles
 SCF Done:  E(RwB97XD) =  -1199.59724870     A.U. after   13 cycles
 SCF Done:  E(RwB97XD) =  -1199.59744581     A.U. after   14 cycles
 SCF Done:  E(RwB97XD) =  -1199.59806837     A.U. after   16 cycles
 SCF Done:  E(RwB97XD) =  -1199.59815953     A.U. after   14 cycles
 SCF Done:  E(RwB97XD) =  -1199.59818128     A.U. after   14 cycles
 SCF Done:  E(RwB97XD) =  -1199.59818289     A.U. after   12 cycles
 SCF Done:  E(RwB97XD) =  -1199.59818291     A.U. after   10 cycles

 Isotropic polarizability for W=    0.000000       78.65 Bohr**3.
 End of Minotr F.D. properties file   721 does not exist.

 Optimization completed.
    -- Stationary point found.

                          Input orientation:
 ---------------------------------------------------------------------
 Center     Atomic      Atomic             Coordinates (Angstroms)
 Number     Number       Type             X           Y           Z
 ---------------------------------------------------------------------
      1          6           0        2.049260   -0.844548   -1.201727
      2          6           0        2.234999    0.092601   -0.030068
      3          9           0       -1.023815    2.147174    0.678664
      4          9           0        2.726817   -0.455728    1.064447
      5         16           0        2.130474    1.764349   -0.057059
      6          8           0        2.604886    2.378431    1.140344
      7          8           0        1.982017    2.379733   -1.329036
      8          8           0        0.369568    1.182725    0.293805
      9          9           0        3.241435   -1.224595   -1.676620
     10          9           0        1.409338   -1.937765   -0.789580
     11          9           0        1.363439   -0.276984   -2.177824
     12          1           0        0.314970    0.926113    1.231784
 ---------------------------------------------------------------------

 ******    1 imaginary frequencies (negative Signs) ******

                      1                      2                      3
                      A                      A                      A
 Frequencies --   -434.0894                30.1640                52.6134
 Red. masses --      9.4757                18.2290                18.3379
 Frc consts  --      1.0520                 0.0098                 0.0299
 IR Inten    --    550.1099                 1.5082                 2.2692

                      4                      5                      6
                      A                      A                      A
 Frequencies --     76.9606               137.0852               157.7925
 Red. masses --     18.4924                15.0872                15.8748
 Frc consts  --      0.0645                 0.1670                 0.2329
 IR Inten    --     13.3508                 5.0936                 2.5994

                      7                      8                      9
                      A                      A                      A
 Frequencies --    199.3005               211.6177               246.9740
 Red. masses --     12.2868                16.3042                16.9195
 Frc consts  --      0.2875                 0.4302                 0.6081
 IR Inten    --      2.7414                 4.7975                 3.8434

                     10                     11                     12
                      A                      A                      A
 Frequencies --    303.7019               341.2435               361.9182
 Red. masses --     11.9001                11.7526                 6.2387
 Frc consts  --      0.6467                 0.8063                 0.4815
 IR Inten    --      3.0497                 0.8326                 4.3057

                     13                     14                     15
                      A                      A                      A
 Frequencies --    387.2320               442.0568               469.2708
 Red. masses --     13.8343                14.1509                13.9676
 Frc consts  --      1.2222                 1.6293                 1.8123
 IR Inten    --     41.1183               104.2838                31.1237

                     16                     17                     18
                      A                      A                      A
 Frequencies --    488.8706               587.2156               595.8393
 Red. masses --     16.0433                18.1054                14.6472
 Frc consts  --      2.2591                 3.6784                 3.0638
 IR Inten    --     61.2989                56.1913                68.7859

                     19                     20                     21
                      A                      A                      A
 Frequencies --    599.4222               699.6955               766.1500
 Red. masses --     16.0348                 1.3243                17.0147
 Frc consts  --      3.3945                 0.3820                 5.8844
 IR Inten    --      7.7054                55.9723                 8.8022

                     22                     23                     24
                      A                      A                      A
 Frequencies --   1030.1102              1057.5146              1177.2917
 Red. masses --      1.2042                 5.8916                13.1475
 Frc consts  --      0.7528                 3.8820                10.7364
 IR Inten    --     45.1432               164.2895               311.3192

                     25                     26                     27
                      A                      A                      A
 Frequencies --   1196.3520              1253.1302              1315.2175
 Red. masses --     15.6776                13.1594                13.2350
 Frc consts  --     13.2205                12.1753                13.4887
 IR Inten    --     36.7297               313.6599               293.7353

                     28                     29                     30
                      A                      A                      A
 Frequencies --   1362.2097              1478.6400              3762.7986
 Red. masses --     12.7579                19.2286                 1.0695
 Frc consts  --     13.9482                24.7698                 8.9215
 IR Inten    --    325.4764               227.1108               192.9368

 - Thermochemistry -
 -------------------
 Temperature   298.150 Kelvin.  Pressure   1.00000 Atm.
 Atom     1 has atomic number  6 and mass  12.00000

 Molecular mass:   199.95666 amu.
 Principal axes and moments of inertia in atomic units:
                           1         2         3
     Eigenvalues --  1351.195522573.948692796.80924
           X           -0.36362   0.92712  -0.09075
           Y            0.83426   0.28076  -0.47454
           Z            0.41447   0.24826   0.87555
 This molecule is an asymmetric top.
 Rotational symmetry number  1.
 Warning -- assumption of classical behavior for rotation
           may cause significant error
 Rotational temperatures (Kelvin)      0.06410     0.03365     0.03097
 Rotational constants (GHZ):           1.33566     0.70116     0.64529
    1 imaginary frequencies ignored.
 Zero-point vibrational energy     124342.2 (Joules/Mol)
                                   29.71849 (Kcal/Mol)
 Warning -- explicit consideration of  18 degrees of freedom as
           vibrations may cause significant error
 Vibrational temperatures:     43.40    75.70   110.73   197.24   227.03
          (Kelvin)            286.75   304.47   355.34   436.96   490.97
                              520.72   557.14   636.02   675.18   703.38
                              844.87   857.28   862.43  1006.71  1102.32
                             1482.10  1521.53  1693.86  1721.28  1802.97
                             1892.30  1959.92  2127.43  5413.83

 Zero-point correction=                           0.047359 (Hartree/Particle)
 Thermal correction to Energy=                    0.058604
 Thermal correction to Enthalpy=                  0.059548
 Thermal correction to Gibbs Free Energy=         0.008465
 Sum of electronic and zero-point Energies=          -1199.550823
 Sum of electronic and thermal Energies=             -1199.539579
 Sum of electronic and thermal Enthalpies=           -1199.538634
 Sum of electronic and thermal Free Energies=        -1199.589718

                     E (Thermal)             CV                S
                      KCal/Mol        Cal/Mol-Kelvin    Cal/Mol-Kelvin
 Total                   36.775             37.684            107.515
 Electronic               0.000              0.000              0.000
 Translational            0.889              2.981             41.783
 Rotational               0.889              2.981             30.654
 Vibrational             34.997             31.722             35.077
 Vibration     1          0.594              1.984              5.819
 Vibration     2          0.596              1.977              4.717
 Vibration     3          0.599              1.965              3.967
 Vibration     4          0.614              1.916              2.844
 Vibration     5          0.621              1.894              2.576
 Vibration     6          0.637              1.841              2.140
 Vibration     7          0.643              1.823              2.030
 Vibration     8          0.661              1.768              1.752
 Vibration     9          0.695              1.667              1.396
 Vibration    10          0.721              1.593              1.206
 Vibration    11          0.736              1.551              1.114
 Vibration    12          0.756              1.497              1.011
 Vibration    13          0.802              1.378              0.820
 Vibration    14          0.826              1.318              0.740
 Vibration    15          0.845              1.275              0.687
 Vibration    16          0.944              1.059              0.472
 Vibration    17          0.954              1.041              0.457
 Vibration    18          0.957              1.033              0.451

 Normal termination of Gaussian 16 at Fri May 23 04:43:52 2025.
