 Gaussian 16, Revision C.01,
 Gaussian 16:  ES64L-G16RevC.01  3-Jul-2019

 ----------------------------------------------------------------------
 #P wb97xd/6-311++G(d,p) Symm(None) scf(xqc) pop(None) freq opt(CalcFC,
  Tight)
 ----------------------------------------------------------------------

 ------------------------------
 Gaussian input prepared by ASE
 ------------------------------
 Symbolic Z-matrix:
 Charge =  0 Multiplicity = 1

 SCF Done:  E(RwB97XD) =  -1199.73972347     A.U. after   16 cycles
 SCF Done:  E(RwB97XD) =  -1199.79387806     A.U. after   14 cycles
 SCF Done:  E(RwB97XD) =  -1199.81048149     A.U. after   13 cycles
 SCF Done:  E(RwB97XD) =  -1199.81843503     A.U. after   14 cycles
 SCF Done:  E(RwB97XD) =  -1199.81847801     A.U. after   15 cycles
 SCF Done:  E(RwB97XD) =  -1199.82168061     A.U. after   15 cycles
 SCF Done:  E(RwB97XD) =  -1199.82210994     A.U. after   13 cycles
 SCF Done:  E(RwB97XD) =  -1199.81356047     A.U. after   15 cycles
 SCF Done:  E(RwB97XD) =  -1199.81819062     A.U. after   13 cycles
 SCF Done:  E(RwB97XD) =  -1199.82350590     A.U. after   10 cycles
 SCF Done:  E(RwB97XD) =  -1199.82412047     A.U. after   11 cycles
 SCF Done:  E(RwB97XD) =  -1199.82413578     A.U. after   11 cycles
 SCF Done:  E(RwB97XD) =  -1199.82414843     A.U. after   12 cycles
 SCF Done:  E(RwB97XD) =  -1199.82415228     A.U. after   11 cycles
 SCF Done:  E(RwB97XD) =  -1199.82415413     A.U. after   10 cycles
 SCF Done:  E(RwB97XD) =  -1199.82415569     A.U. after   11 cycles
 SCF Done:  E(RwB97XD) =  -1199.82415582     A.U. after    9 cycles
 SCF Done:  E(RwB97XD) =  -1199.82415582     A.U. after    6 cycles
 SCF Done:  E(RwB97XD) =  -1199.82415582     A.U. after    5 cycles
 Optimization completed.
    -- Stationary point found.
 Normal termination of Gaussian 16 at Fri May 23 01:48:39 2025.

 ----------------------------------------------------------------------
 #P Geom=AllCheck Guess=TCheck SCRF=Check GenChk RwB97XD/6-311++G(d,p)
 Freq
 ----------------------------------------------------------------------

 Structure from the checkpoint file:  "2003846667223680600001_well.chk"
 ------------------------------
 Gaussian input prepared by ASE
 ------------------------------
 Charge =  0 Multiplicity = 1

                          Input orientation:
 ---------------------------------------------------------------------
 Center     Atomic      Atomic             Coordinates (Angstroms)
 Number     Number       Type             X           Y           Z
 ---------------------------------------------------------------------
      1          6           0        1.428517    0.264814    0.087489
      2          6           0        0.319836   -0.664258   -0.491909
      3          9           0        0.354685   -0.596198   -1.819236
      4          9           0        0.558366   -1.917528   -0.102503
      5         16           0       -1.432688   -0.274197    0.080692
      6          8           0       -2.300365   -0.702125   -0.968658
      7          8           0       -1.547188   -0.715944    1.442017
      8          8           0       -1.404694    1.330111    0.052033
      9          9           0        1.428458    1.436100   -0.534204
     10          9           0        1.228638    0.472358    1.390115
     11          9           0        2.612216   -0.308370   -0.076579
     12          1           0       -1.245782    1.675237    0.940745
 ---------------------------------------------------------------------

 SCF Done:  E(RwB97XD) =  -1199.82415582     A.U. after    1 cycles

 Isotropic polarizability for W=    0.000000       55.80 Bohr**3.
 End of Minotr F.D. properties file   721 does not exist.

                      1                      2                      3
                      A                      A                      A
 Frequencies --     40.3157                61.5761               145.8109
 Red. masses --     11.5719                18.5034                12.6939
 Frc consts  --      0.0111                 0.0413                 0.1590
 IR Inten    --      1.5950                 0.1714                 3.4925

                      4                      5                      6
                      A                      A                      A
 Frequencies --    200.7092               228.2934               243.9551
 Red. masses --     16.7769                18.4118                13.0831
 Frc consts  --      0.3982                 0.5654                 0.4588
 IR Inten    --      2.0451                 1.5466                 0.9075

                      7                      8                      9
                      A                      A                      A
 Frequencies --    277.9580               302.4347               315.7609
 Red. masses --     13.3379                 4.9846                17.0068
 Frc consts  --      0.6072                 0.2686                 0.9991
 IR Inten    --     11.2422                19.2432                 0.8144

                     10                     11                     12
                      A                      A                      A
 Frequencies --    357.7766               371.9834               440.5243
 Red. masses --      2.0389                 9.5549                 3.3156
 Frc consts  --      0.1538                 0.7790                 0.3791
 IR Inten    --     67.6361                10.3964                33.5886

                     13                     14                     15
                      A                      A                      A
 Frequencies --    462.4552               504.6665               540.9262
 Red. masses --      7.4853                14.7766                16.4527
 Frc consts  --      0.9432                 2.2173                 2.8364
 IR Inten    --     29.0759                12.9637                21.3616

                     16                     17                     18
                      A                      A                      A
 Frequencies --    598.7102               608.1081               654.0822
 Red. masses --     17.7836                19.7807                15.9902
 Frc consts  --      3.7558                 4.3098                 4.0306
 IR Inten    --      2.9438               121.7550                22.5091

                     19                     20                     21
                      A                      A                      A
 Frequencies --    762.5278               831.2647               997.3448
 Red. masses --     17.0658                17.8151                13.4817
 Frc consts  --      5.8464                 7.2530                 7.9010
 IR Inten    --     14.5147               197.7106               120.5843

                     22                     23                     24
                      A                      A                      A
 Frequencies --   1125.8125              1153.5689              1213.6582
 Red. masses --      1.2099                13.6315                15.5803
 Frc consts  --      0.9035                10.6876                13.5213
 IR Inten    --     79.6234               106.5367               154.2082

                     25                     26                     27
                      A                      A                      A
 Frequencies --   1227.6954              1237.4707              1250.6810
 Red. masses --     12.2883                12.2363                13.1028
 Frc consts  --     10.9125                11.0400                12.0755
 IR Inten    --     99.3021               247.8188               344.1566

                     28                     29                     30
                      A                      A                      A
 Frequencies --   1342.0708              1442.9515              3830.0315
 Red. masses --     12.7016                14.1426                 1.0663
 Frc consts  --     13.4790                17.3494                 9.2162
 IR Inten    --    116.4706               297.2551               157.8972

 - Thermochemistry -
 -------------------
 Temperature   298.150 Kelvin.  Pressure   1.00000 Atm.
 Atom     1 has atomic number  6 and mass  12.00000

 Molecular mass:   199.95666 amu.
 Principal axes and moments of inertia in atomic units:
                           1         2         3
     Eigenvalues --  1159.069562133.950332292.64949
           X            0.99144  -0.09846   0.08574
           Y            0.13033   0.78571  -0.60471
           Z           -0.00783   0.61071   0.79182
 This molecule is an asymmetric top.
 Rotational symmetry number  1.
 Warning -- assumption of classical behavior for rotation
           may cause significant error
 Rotational temperatures (Kelvin)      0.07473     0.04059     0.03778
 Rotational constants (GHZ):           1.55706     0.84573     0.78719
 Zero-point vibrational energy     136201.6 (Joules/Mol)
                                   32.55296 (Kcal/Mol)
 Warning -- explicit consideration of  17 degrees of freedom as
           vibrations may cause significant error
 Vibrational temperatures:     58.01    88.59   209.79   288.78   328.46
          (Kelvin)            351.00   399.92   435.14   454.31   514.76
                              535.20   633.82   665.37   726.10   778.27
                              861.41   874.93   941.08  1097.11  1196.00
                             1434.96  1619.79  1659.73  1746.18  1766.38
                             1780.44  1799.45  1930.94  2076.09  5510.56

 Zero-point correction=                           0.051876 (Hartree/Particle)
 Thermal correction to Energy=                    0.062260
 Thermal correction to Enthalpy=                  0.063204
 Thermal correction to Gibbs Free Energy=         0.015021
 Sum of electronic and zero-point Energies=          -1199.772279
 Sum of electronic and thermal Energies=             -1199.761896
 Sum of electronic and thermal Enthalpies=           -1199.760952
 Sum of electronic and thermal Free Energies=        -1199.809135

                     E (Thermal)             CV                S
                      KCal/Mol        Cal/Mol-Kelvin    Cal/Mol-Kelvin
 Total                   39.068             36.581            101.409
 Electronic               0.000              0.000              0.000
 Translational            0.889              2.981             41.783
 Rotational               0.889              2.981             30.118
 Vibrational             37.291             30.620             29.507
 Vibration     1          0.594              1.981              5.244
 Vibration     2          0.597              1.973              4.406
 Vibration     3          0.617              1.907              2.726
 Vibration     4          0.638              1.839              2.127
 Vibration     5          0.651              1.798              1.892
 Vibration     6          0.659              1.773              1.774
 Vibration     7          0.679              1.714              1.546
 Vibration     8          0.694              1.669              1.403
 Vibration     9          0.703              1.644              1.332
 Vibration    10          0.733              1.559              1.132
 Vibration    11          0.744              1.530              1.072
 Vibration    12          0.800              1.382              0.825
 Vibration    13          0.820              1.333              0.759
 Vibration    14          0.860              1.240              0.647
 Vibration    15          0.896              1.160              0.563
 Vibration    16          0.957              1.035              0.452
 Vibration    17          0.967              1.015              0.436

 Optimization completed.
    -- Stationary point found.
 Normal termination of Gaussian 16 at Fri May 23 01:50:03 2025.
