 Gaussian 16, Revision C.01,
 Gaussian 16:  ES64L-G16RevC.01  3-Jul-2019

 ----------------------------------------------------------------------
 #P wb97xd/6-311++G(d,p) Symm(None) scf(xqc) pop(None) freq opt(CalcFC)
 ----------------------------------------------------------------------

 ------------------------------
 Gaussian input prepared by ASE
 ------------------------------
 Symbolic Z-matrix:
 Charge =  0 Multiplicity = 1

 SCF Done:  E(RwB97XD) =  -1199.73411236     A.U. after   15 cycles
 SCF Done:  E(RwB97XD) =  -1199.75230442     A.U. after   13 cycles
 SCF Done:  E(RwB97XD) =  -1199.76481133     A.U. after   14 cycles
 SCF Done:  E(RwB97XD) =  -1199.76781683     A.U. after   14 cycles
 SCF Done:  E(RwB97XD) =  -1199.76094834     A.U. after   13 cycles
 SCF Done:  E(RwB97XD) =  -1199.76914115     A.U. after   12 cycles
 SCF Done:  E(RwB97XD) =  -1199.76987490     A.U. after   12 cycles
 SCF Done:  E(RwB97XD) =  -1199.77012240     A.U. after   13 cycles
 SCF Done:  E(RwB97XD) =  -1199.77019187     A.U. after   11 cycles
 SCF Done:  E(RwB97XD) =  -1199.77024807     A.U. after   11 cycles
 SCF Done:  E(RwB97XD) =  -1199.77096359     A.U. after   12 cycles
 SCF Done:  E(RwB97XD) =  -1199.77091424     A.U. after   13 cycles
 SCF Done:  E(RwB97XD) =  -1199.77096926     A.U. after   13 cycles
 SCF Done:  E(RwB97XD) =  -1199.77092204     A.U. after   13 cycles
 SCF Done:  E(RwB97XD) =  -1199.77097102     A.U. after   13 cycles
 SCF Done:  E(RwB97XD) =  -1199.77097209     A.U. after   10 cycles
 SCF Done:  E(RwB97XD) =  -1199.77097214     A.U. after    9 cycles
 SCF Done:  E(RwB97XD) =  -1199.77097223     A.U. after    9 cycles
 SCF Done:  E(RwB97XD) =  -1199.77097224     A.U. after    8 cycles
 Optimization completed.
    -- Stationary point found.
 Normal termination of Gaussian 16 at Fri May 23 04:39:28 2025.

 ----------------------------------------------------------------------
 #P Geom=AllCheck Guess=TCheck SCRF=Check GenChk RwB97XD/6-311++G(d,p)
 Freq
 ----------------------------------------------------------------------

 Structure from the checkpoint file:  "2003846667223680600001_r12_insertion_R_9_1_10_IRC_F_prod.chk"
 ------------------------------
 Gaussian input prepared by ASE
 ------------------------------
 Charge =  0 Multiplicity = 1

                          Input orientation:
 ---------------------------------------------------------------------
 Center     Atomic      Atomic             Coordinates (Angstroms)
 Number     Number       Type             X           Y           Z
 ---------------------------------------------------------------------
      1          6           0       -1.929168   -0.469568   -0.009604
      2          6           0       -1.696676    0.650158   -0.666440
      3          9           0       -1.602324    0.719205   -1.974693
      4          9           0       -1.529894    1.814345   -0.076689
      5         16           0        1.861470   -0.154250    0.394101
      6          8           0        3.281768   -0.075148    0.465920
      7          8           0        1.114836   -1.359570    0.359991
      8          8           0        1.314154    0.761366   -0.780239
      9          9           0       -2.021826   -0.530436    1.298001
     10          9           0        1.310386    0.696625    1.625686
     11          9           0       -2.096609   -1.629019   -0.597577
     12          1           0        1.881770    1.531662   -0.915898
 ---------------------------------------------------------------------

 SCF Done:  E(RwB97XD) =  -1199.77097224     A.U. after    1 cycles

 Isotropic polarizability for W=    0.000000       54.59 Bohr**3.
 End of Minotr F.D. properties file   721 does not exist.

                      1                      2                      3
                      A                      A                      A
 Frequencies --     23.0870                31.7556                38.4602
 Red. masses --     12.0059                16.5756                16.9628
 Frc consts  --      0.0038                 0.0098                 0.0148
 IR Inten    --      2.3947                 0.2160                 0.3563

                      4                      5                      6
                      A                      A                      A
 Frequencies --     42.2252                53.1148                60.0542
 Red. masses --     17.3325                11.7842                15.1193
 Frc consts  --      0.0182                 0.0196                 0.0321
 IR Inten    --      0.8220                 2.0498                 0.0636

                      7                      8                      9
                      A                      A                      A
 Frequencies --    206.6300               213.3990               299.3801
 Red. masses --     18.9074                18.0911                 1.6157
 Frc consts  --      0.4756                 0.4854                 0.0853
 IR Inten    --      0.0527                 3.8003                60.7677

                     10                     11                     12
                      A                      A                      A
 Frequencies --    369.6740               404.1189               417.3176
 Red. masses --     12.2491                18.8640                 2.6333
 Frc consts  --      0.9863                 1.8151                 0.2702
 IR Inten    --      3.2464                 0.0156                40.7212

                     13                     14                     15
                      A                      A                      A
 Frequencies --    442.6303               504.5027               522.8610
 Red. masses --     12.8694                 7.1024                18.0991
 Frc consts  --      1.4856                 1.0651                 2.9153
 IR Inten    --      5.7903                35.8431                20.9737

                     16                     17                     18
                      A                      A                      A
 Frequencies --    536.9913               558.6357               562.2533
 Red. masses --     15.7147                17.3712                17.3938
 Frc consts  --      2.6699                 3.1940                 3.2397
 IR Inten    --     42.1654                 0.0091                 2.8655

                     19                     20                     21
                      A                      A                      A
 Frequencies --    582.4965               781.7657               805.7989
 Red. masses --     12.3115                19.9956                18.6022
 Frc consts  --      2.4612                 7.2001                 7.1165
 IR Inten    --      0.0710               188.0421                 0.2471

                     22                     23                     24
                      A                      A                      A
 Frequencies --    870.7398              1153.1540              1195.9309
 Red. masses --     17.7103                 1.2151                12.1261
 Frc consts  --      7.9114                 0.9520                10.2184
 IR Inten    --    202.4663                59.7912               344.1986

                     25                     26                     27
                      A                      A                      A
 Frequencies --   1233.6968              1344.2744              1355.4100
 Red. masses --     15.9186                13.2703                13.2689
 Frc consts  --     14.2748                14.1288                14.3624
 IR Inten    --    230.2314               235.3356               223.7830

                     28                     29                     30
                      A                      A                      A
 Frequencies --   1478.7685              1955.5379              3832.4070
 Red. masses --     14.2922                12.1826                 1.0663
 Frc consts  --     18.4140                27.4488                 9.2273
 IR Inten    --    350.7782                 0.2593               170.0446

 - Thermochemistry -
 -------------------
 Temperature   298.150 Kelvin.  Pressure   1.00000 Atm.
 Atom     1 has atomic number  6 and mass  12.00000

 Molecular mass:   199.95666 amu.
 Principal axes and moments of inertia in atomic units:
                           1         2         3
     Eigenvalues --  1236.163333106.272113344.22461
           X            0.97357   0.12339  -0.19219
           Y            0.00069   0.83991   0.54273
           Z            0.22839  -0.52851   0.81763
 This molecule is an asymmetric top.
 Rotational symmetry number  1.
 Warning -- assumption of classical behavior for rotation
           may cause significant error
 Rotational temperatures (Kelvin)      0.07007     0.02788     0.02590
 Rotational constants (GHZ):           1.45995     0.58100     0.53966
 Zero-point vibrational energy     130853.9 (Joules/Mol)
                                   31.27484 (Kcal/Mol)
 Warning -- explicit consideration of  19 degrees of freedom as
           vibrations may cause significant error
 Vibrational temperatures:     33.22    45.69    55.34    60.75    76.42
          (Kelvin)             86.40   297.29   307.03   430.74   531.88
                              581.44   600.43   636.85   725.87   752.28
                              772.61   803.75   808.96   838.08  1124.79
                             1159.36  1252.80  1659.13  1720.68  1775.01
                             1934.11  1950.13  2127.62  2813.58  5513.98

 Zero-point correction=                           0.049840 (Hartree/Particle)
 Thermal correction to Energy=                    0.061971
 Thermal correction to Enthalpy=                  0.062915
 Thermal correction to Gibbs Free Energy=         0.006947
 Sum of electronic and zero-point Energies=          -1199.721133
 Sum of electronic and thermal Energies=             -1199.709001
 Sum of electronic and thermal Enthalpies=           -1199.708057
 Sum of electronic and thermal Free Energies=        -1199.764026

                     E (Thermal)             CV                S
                      KCal/Mol        Cal/Mol-Kelvin    Cal/Mol-Kelvin
 Total                   38.887             38.722            117.796
 Electronic               0.000              0.000              0.000
 Translational            0.889              2.981             41.783
 Rotational               0.889              2.981             30.930
 Vibrational             37.110             32.760             45.082
 Vibration     1          0.593              1.985              6.349
 Vibration     2          0.594              1.983              5.717
 Vibration     3          0.594              1.982              5.337
 Vibration     4          0.595              1.980              5.152
 Vibration     5          0.596              1.976              4.698
 Vibration     6          0.597              1.973              4.455
 Vibration     7          0.641              1.830              2.073
 Vibration     8          0.644              1.821              2.014
 Vibration     9          0.692              1.675              1.420
 Vibration    10          0.742              1.535              1.081
 Vibration    11          0.769              1.461              0.948
 Vibration    12          0.780              1.433              0.901
 Vibration    13          0.802              1.377              0.818
 Vibration    14          0.860              1.240              0.647
 Vibration    15          0.878              1.199              0.603
 Vibration    16          0.892              1.168              0.572
 Vibration    17          0.914              1.121              0.527
 Vibration    18          0.918              1.113              0.519
 Vibration    19          0.939              1.069              0.481

 Optimization completed.
    -- Stationary point found.
 Normal termination of Gaussian 16 at Fri May 23 04:40:40 2025.
