 Gaussian 16, Revision C.01,
 Gaussian 16:  ES64L-G16RevC.01  3-Jul-2019

 ----------------------------------------------------------------------
 #P wb97xd/6-311++G(d,p) Symm(None) scf(xqc) pop(None) geom(AllCheck,No
 KeepConstants) guess(Read) irc(RCFC,forward,MaxPoints=100,StepSize=2)
 ----------------------------------------------------------------------

 Structure from the checkpoint file:  "2003846667223680600001_r12_insertion_R_6_5_7_IRC_F.chk"
 ------------------------------
 Gaussian input prepared by ASE
 ------------------------------
 Charge =  0 Multiplicity = 1

 SCF Done:  E(RwB97XD) =  -1199.64519036     A.U. after   16 cycles
 SCF Done:  E(RwB97XD) =  -1199.64549357     A.U. after   16 cycles
 SCF Done:  E(RwB97XD) =  -1199.64598971     A.U. after   16 cycles
 SCF Done:  E(RwB97XD) =  -1199.64666956     A.U. after   16 cycles
 SCF Done:  E(RwB97XD) =  -1199.64752303     A.U. after   16 cycles
 SCF Done:  E(RwB97XD) =  -1199.64853965     A.U. after   16 cycles
 SCF Done:  E(RwB97XD) =  -1199.64970870     A.U. after   16 cycles
 SCF Done:  E(RwB97XD) =  -1199.65101924     A.U. after   16 cycles
 SCF Done:  E(RwB97XD) =  -1199.65245999     A.U. after   16 cycles
 SCF Done:  E(RwB97XD) =  -1199.65401940     A.U. after   16 cycles
 SCF Done:  E(RwB97XD) =  -1199.76400696     A.U. after   11 cycles
 SCF Done:  E(RwB97XD) =  -1199.76493567     A.U. after   11 cycles
 SCF Done:  E(RwB97XD) =  -1199.76585849     A.U. after   11 cycles
 SCF Done:  E(RwB97XD) =  -1199.76677534     A.U. after   11 cycles
 SCF Done:  E(RwB97XD) =  -1199.76768614     A.U. after   11 cycles
 SCF Done:  E(RwB97XD) =  -1199.76859082     A.U. after   11 cycles
 SCF Done:  E(RwB97XD) =  -1199.76948931     A.U. after   11 cycles
 SCF Done:  E(RwB97XD) =  -1199.77038156     A.U. after   11 cycles
 SCF Done:  E(RwB97XD) =  -1199.77126750     A.U. after   11 cycles
 SCF Done:  E(RwB97XD) =  -1199.77214709     A.U. after   11 cycles

                          Input orientation:
 ---------------------------------------------------------------------
 Center     Atomic      Atomic             Coordinates (Angstroms)
 Number     Number       Type             X           Y           Z
 ---------------------------------------------------------------------
      1          6           0       -1.157875    0.042166    0.900176
      2          6           0       -0.580782   -0.030139   -0.608684
      3          9           0       -1.051114   -1.136622   -1.157707
      4          9           0       -1.029187    1.025780   -1.260920
      5         16           0        1.482672   -0.145706   -0.538628
      6          8           0        1.328341   -1.081687    0.549243
      7          8           0        2.708679   -0.334610   -1.302881
      8          8           0        1.507168    1.439071   -0.197131
      9          9           0       -0.955823   -1.051212    1.602628
     10          9           0       -0.672841    1.088854    1.549360
     11          9           0       -2.484112    0.199309    0.794661
     12          1           0        2.420501    1.741149   -0.099663
 ---------------------------------------------------------------------

 Normal termination of Gaussian 16 at Fri May 23 04:16:01 2025.
