 Gaussian 16, Revision C.01,
 Gaussian 16:  ES64L-G16RevC.01  3-Jul-2019

 ----------------------------------------------------------------------
 #P wb97xd/6-311++G(d,p) Symm(None) scf(xqc) pop(None) opt(NoFreeze,TS,
 CalcAll,NoEigentest,MaxCycle=999)
 ----------------------------------------------------------------------

 ------------------------------
 Gaussian input prepared by ASE
 ------------------------------
 Symbolic Z-matrix:
 Charge =  0 Multiplicity = 1

 SCF Done:  E(RwB97XD) =  -1199.73788943     A.U. after   14 cycles
 SCF Done:  E(RwB97XD) =  -1199.79407932     A.U. after   13 cycles
 SCF Done:  E(RwB97XD) =  -1199.81392712     A.U. after   12 cycles
 SCF Done:  E(RwB97XD) =  -1199.81788316     A.U. after   13 cycles
 SCF Done:  E(RwB97XD) =  -1199.82048716     A.U. after   13 cycles
 SCF Done:  E(RwB97XD) =  -1199.82190959     A.U. after   13 cycles
 SCF Done:  E(RwB97XD) =  -1199.82202062     A.U. after   11 cycles
 SCF Done:  E(RwB97XD) =  -1199.82202078     A.U. after    8 cycles

 Isotropic polarizability for W=    0.000000       55.65 Bohr**3.
 End of Minotr F.D. properties file   721 does not exist.

 Optimization completed.
    -- Stationary point found.

                          Input orientation:
 ---------------------------------------------------------------------
 Center     Atomic      Atomic             Coordinates (Angstroms)
 Number     Number       Type             X           Y           Z
 ---------------------------------------------------------------------
      1          6           0       -0.893946   -0.133986    1.321194
      2          6           0       -0.012714    0.534406    0.193290
      3          9           0       -0.465285    0.177661   -1.004294
      4          9           0       -0.074238    1.866408    0.300874
      5         16           0        1.800728    0.068435    0.287883
      6          8           0        2.328654    0.641835    1.494319
      7          8           0        1.917920   -1.308532   -0.070069
      8          8           0        2.320393    0.923252   -0.965931
      9          9           0       -0.142840   -0.886213    2.118753
     10          9           0       -1.481406    0.803147    2.050923
     11          9           0       -1.825633   -0.897682    0.771418
     12          1           0        2.578787    1.809298   -0.680066
 ---------------------------------------------------------------------

 ******    1 imaginary frequencies (negative Signs) ******

                      1                      2                      3
                      A                      A                      A
 Frequencies --    -49.9480                73.0646               140.6042
 Red. masses --     17.8533                11.8447                12.5741
 Frc consts  --      0.0262                 0.0373                 0.1465
 IR Inten    --      0.1316                 2.1623                 2.0630

                      4                      5                      6
                      A                      A                      A
 Frequencies --    186.1399               237.6076               279.0719
 Red. masses --     11.3096                 8.4996                12.2814
 Frc consts  --      0.2309                 0.2827                 0.5635
 IR Inten    --      6.4890                 7.1370                 0.7479

                      7                      8                      9
                      A                      A                      A
 Frequencies --    281.2813               309.2577               335.0377
 Red. masses --     17.3426                 4.0248                17.7573
 Frc consts  --      0.8084                 0.2268                 1.1744
 IR Inten    --      4.9024                23.3249                 0.4349

                     10                     11                     12
                      A                      A                      A
 Frequencies --    350.7242               375.4247               431.1859
 Red. masses --      2.0830                16.4596                 4.2279
 Frc consts  --      0.1510                 1.3668                 0.4631
 IR Inten    --     52.1091                 0.5712                26.3387

                     13                     14                     15
                      A                      A                      A
 Frequencies --    485.0236               489.5029               542.3280
 Red. masses --     12.2641                 8.6805                17.8982
 Frc consts  --      1.6999                 1.2255                 3.1016
 IR Inten    --     33.8805                 5.1150                30.8349

                     16                     17                     18
                      A                      A                      A
 Frequencies --    595.5770               609.6144               656.5121
 Red. masses --     17.3591                19.9688                17.3413
 Frc consts  --      3.6279                 4.3723                 4.4037
 IR Inten    --      3.1018               113.9796                28.9344

                     19                     20                     21
                      A                      A                      A
 Frequencies --    765.1770               823.6144               996.8954
 Red. masses --     17.0341                17.1773                13.8619
 Frc consts  --      5.8762                 6.8652                 8.1166
 IR Inten    --     46.8666               219.9793                39.7298

                     22                     23                     24
                      A                      A                      A
 Frequencies --   1130.9148              1157.3098              1195.1387
 Red. masses --      1.1995                11.8986                16.1628
 Frc consts  --      0.9039                 9.3896                13.6020
 IR Inten    --    111.3824               278.2926                 3.5550

                     25                     26                     27
                      A                      A                      A
 Frequencies --   1219.8807              1250.6517              1255.2629
 Red. masses --     13.1721                13.1299                13.5535
 Frc consts  --     11.5489                12.1000                12.5826
 IR Inten    --    160.7674               246.4187               282.6999

                     28                     29                     30
                      A                      A                      A
 Frequencies --   1317.6875              1444.0207              3833.6464
 Red. masses --     12.7749                14.1928                 1.0663
 Frc consts  --     13.0687                17.4368                 9.2329
 IR Inten    --    110.0434               305.3713               163.3906

 - Thermochemistry -
 -------------------
 Temperature   298.150 Kelvin.  Pressure   1.00000 Atm.
 Atom     1 has atomic number  6 and mass  12.00000

 Molecular mass:   199.95666 amu.
 Principal axes and moments of inertia in atomic units:
                           1         2         3
     Eigenvalues --  1137.394682208.465752338.72496
           X            0.92026   0.35196   0.17099
           Y            0.09627  -0.62721   0.77288
           Z           -0.37927   0.69479   0.61108
 This molecule is an asymmetric top.
 Rotational symmetry number  1.
 Warning -- assumption of classical behavior for rotation
           may cause significant error
 Rotational temperatures (Kelvin)      0.07615     0.03922     0.03703
 Rotational constants (GHZ):           1.58673     0.81719     0.77168
    1 imaginary frequencies ignored.
 Zero-point vibrational energy     136183.8 (Joules/Mol)
                                   32.54872 (Kcal/Mol)
 Warning -- explicit consideration of  16 degrees of freedom as
           vibrations may cause significant error
 Vibrational temperatures:    105.12   202.30   267.81   341.86   401.52
          (Kelvin)            404.70   444.95   482.04   504.61   540.15
                              620.38   697.84   704.29   780.29   856.90
                              877.10   944.57  1100.92  1185.00  1434.31
                             1627.13  1665.11  1719.54  1755.14  1799.41
                             1806.04  1895.86  2077.62  5515.76

 Zero-point correction=                           0.051870 (Hartree/Particle)
 Thermal correction to Energy=                    0.061316
 Thermal correction to Enthalpy=                  0.062260
 Thermal correction to Gibbs Free Energy=         0.016820
 Sum of electronic and zero-point Energies=          -1199.770151
 Sum of electronic and thermal Energies=             -1199.760705
 Sum of electronic and thermal Enthalpies=           -1199.759760
 Sum of electronic and thermal Free Energies=        -1199.805201

                     E (Thermal)             CV                S
                      KCal/Mol        Cal/Mol-Kelvin    Cal/Mol-Kelvin
 Total                   38.476             34.513             95.637
 Electronic               0.000              0.000              0.000
 Translational            0.889              2.981             41.783
 Rotational               0.889              2.981             30.153
 Vibrational             36.699             28.551             23.701
 Vibration     1          0.599              1.967              4.069
 Vibration     2          0.615              1.913              2.796
 Vibration     3          0.632              1.859              2.266
 Vibration     4          0.656              1.783              1.821
 Vibration     5          0.679              1.712              1.539
 Vibration     6          0.681              1.708              1.526
 Vibration     7          0.699              1.656              1.366
 Vibration     8          0.716              1.606              1.236
 Vibration     9          0.728              1.574              1.163
 Vibration    10          0.746              1.522              1.058
 Vibration    11          0.792              1.402              0.855
 Vibration    12          0.841              1.283              0.697
 Vibration    13          0.845              1.273              0.685
 Vibration    14          0.897              1.156              0.560
 Vibration    15          0.953              1.041              0.457
 Vibration    16          0.969              1.011              0.433

 Normal termination of Gaussian 16 at Fri May 23 03:28:08 2025.
