 Gaussian 16, Revision C.01,
 Gaussian 16:  ES64L-G16RevC.01  3-Jul-2019

 ----------------------------------------------------------------------
 #P wb97xd/6-311++G(d,p) Symm(None) scf(xqc) pop(None) opt(NoFreeze,TS,
 CalcAll,NoEigentest,MaxCycle=999)
 ----------------------------------------------------------------------

 ------------------------------
 Gaussian input prepared by ASE
 ------------------------------
 Symbolic Z-matrix:
 Charge =  0 Multiplicity = 1

 SCF Done:  E(RwB97XD) =  -1199.61394698     A.U. after   18 cycles
 SCF Done:  E(RwB97XD) =  -1199.60858742     A.U. after   17 cycles
 SCF Done:  E(RwB97XD) =  -1199.62098833     A.U. after   16 cycles
 SCF Done:  E(RwB97XD) =  -1199.64068668     A.U. after   16 cycles
 SCF Done:  E(RwB97XD) =  -1199.65646897     A.U. after   15 cycles
 SCF Done:  E(RwB97XD) =  -1199.66697778     A.U. after   15 cycles
 SCF Done:  E(RwB97XD) =  -1199.67304584     A.U. after   14 cycles
 SCF Done:  E(RwB97XD) =  -1199.67665362     A.U. after   15 cycles
 SCF Done:  E(RwB97XD) =  -1199.67735382     A.U. after   13 cycles
 SCF Done:  E(RwB97XD) =  -1199.67743398     A.U. after   13 cycles
 SCF Done:  E(RwB97XD) =  -1199.67743602     A.U. after   11 cycles

 Isotropic polarizability for W=    0.000000       61.29 Bohr**3.
 End of Minotr F.D. properties file   721 does not exist.

 Optimization completed.
    -- Stationary point found.

                          Input orientation:
 ---------------------------------------------------------------------
 Center     Atomic      Atomic             Coordinates (Angstroms)
 Number     Number       Type             X           Y           Z
 ---------------------------------------------------------------------
      1          6           0       -0.988328   -0.397380    0.807187
      2          6           0        0.017496    0.602643    0.572070
      3          9           0       -0.412088   -0.100579   -0.996886
      4          9           0       -0.346129    1.823809    0.373574
      5         16           0        1.852343    0.322126    0.593375
      6          8           0        2.391532    1.336730    1.446446
      7          8           0        2.055212   -1.077384    0.761447
      8          8           0        2.205341    0.687284   -0.915153
      9          9           0       -0.740599   -1.614195    1.005625
     10          9           0       -0.213084    0.484054    2.326535
     11          9           0       -2.215112   -0.090291    0.826838
     12          1           0        2.443843    1.621212   -0.982770
 ---------------------------------------------------------------------

 ******    1 imaginary frequencies (negative Signs) ******

                      1                      2                      3
                      A                      A                      A
 Frequencies --   -888.8312                46.0456               131.8186
 Red. masses --     12.5766                11.8070                15.6791
 Frc consts  --      5.8540                 0.0147                 0.1605
 IR Inten    --     17.0632                 3.3195                 1.9895

                      4                      5                      6
                      A                      A                      A
 Frequencies --    159.8671               182.3659               214.9697
 Red. masses --     15.5627                17.6433                 5.3710
 Frc consts  --      0.2343                 0.3457                 0.1462
 IR Inten    --      0.6210                35.9475                49.1977

                      7                      8                      9
                      A                      A                      A
 Frequencies --    235.3670               260.4890               274.0462
 Red. masses --     17.1273                16.8261                 5.5909
 Frc consts  --      0.5590                 0.6727                 0.2474
 IR Inten    --      3.3378                 3.3623                20.8330

                     10                     11                     12
                      A                      A                      A
 Frequencies --    303.2070               338.9304               344.1651
 Red. masses --      2.5223                14.2257                 3.9473
 Frc consts  --      0.1366                 0.9628                 0.2755
 IR Inten    --     23.9580                32.9106                22.2578

                     13                     14                     15
                      A                      A                      A
 Frequencies --    356.1369               425.5729               455.9940
 Red. masses --     18.4635                12.4255                 5.1843
 Frc consts  --      1.3797                 1.3259                 0.6351
 IR Inten    --     76.6743                 4.1689                29.2767

                     16                     17                     18
                      A                      A                      A
 Frequencies --    481.7986               503.5920               552.9605
 Red. masses --     12.5790                15.5163                14.3705
 Frc consts  --      1.7204                 2.3184                 2.5889
 IR Inten    --     11.1904                24.5687                 2.3841

                     19                     20                     21
                      A                      A                      A
 Frequencies --    597.1501               704.2068               723.8033
 Red. masses --     20.1490                12.6232                17.2005
 Frc consts  --      4.2332                 3.6882                 5.3092
 IR Inten    --    185.6702               471.6378                18.6193

                     22                     23                     24
                      A                      A                      A
 Frequencies --    854.9586              1085.5585              1139.7242
 Red. masses --     17.3136                14.0034                 1.1862
 Frc consts  --      7.4564                 9.7228                 0.9079
 IR Inten    --    289.4303               113.7198                72.9182

                     25                     26                     27
                      A                      A                      A
 Frequencies --   1212.0368              1327.2503              1455.3532
 Red. masses --     17.7531                13.6090                14.0303
 Frc consts  --     15.3658                14.1248                17.5087
 IR Inten    --    156.2312               172.8655               186.2109

                     28                     29                     30
                      A                      A                      A
 Frequencies --   1513.0056              1643.7877              3833.8773
 Red. masses --     13.3695                12.4466                 1.0664
 Frc consts  --     18.0321                19.8149                 9.2350
 IR Inten    --    369.4714               142.4071               176.5849

 - Thermochemistry -
 -------------------
 Temperature   298.150 Kelvin.  Pressure   1.00000 Atm.
 Atom     1 has atomic number  6 and mass  12.00000

 Molecular mass:   199.95666 amu.
 Principal axes and moments of inertia in atomic units:
                           1         2         3
     Eigenvalues --  1141.845442206.221732218.14076
           X            0.96801  -0.22696   0.10695
           Y            0.22607   0.97389   0.02054
           Z           -0.10882   0.00429   0.99405
 This molecule is an asymmetric top.
 Rotational symmetry number  1.
 Warning -- assumption of classical behavior for rotation
           may cause significant error
 Rotational temperatures (Kelvin)      0.07585     0.03926     0.03905
 Rotational constants (GHZ):           1.58055     0.81802     0.81363
    1 imaginary frequencies ignored.
 Zero-point vibrational energy     127749.4 (Joules/Mol)
                                   30.53285 (Kcal/Mol)
 Warning -- explicit consideration of  18 degrees of freedom as
           vibrations may cause significant error
 Vibrational temperatures:     66.25   189.66   230.01   262.38   309.29
          (Kelvin)            338.64   374.79   394.29   436.25   487.65
                              495.18   512.40   612.30   656.07   693.20
                              724.56   795.59   859.17  1013.20  1041.39
                             1230.09  1561.88  1639.81  1743.85  1909.62
                             2093.93  2176.88  2365.04  5516.09

 Zero-point correction=                           0.048657 (Hartree/Particle)
 Thermal correction to Energy=                    0.059424
 Thermal correction to Enthalpy=                  0.060369
 Thermal correction to Gibbs Free Energy=         0.012087
 Sum of electronic and zero-point Energies=          -1199.628779
 Sum of electronic and thermal Energies=             -1199.618012
 Sum of electronic and thermal Enthalpies=           -1199.617067
 Sum of electronic and thermal Free Energies=        -1199.665349

                     E (Thermal)             CV                S
                      KCal/Mol        Cal/Mol-Kelvin    Cal/Mol-Kelvin
 Total                   37.289             37.816            101.617
 Electronic               0.000              0.000              0.000
 Translational            0.889              2.981             41.783
 Rotational               0.889              2.981             30.103
 Vibrational             35.512             31.854             29.731
 Vibration     1          0.595              1.979              4.980
 Vibration     2          0.612              1.922              2.919
 Vibration     3          0.622              1.892              2.551
 Vibration     4          0.630              1.864              2.304
 Vibration     5          0.645              1.818              2.001
 Vibration     6          0.655              1.787              1.838
 Vibration     7          0.669              1.745              1.658
 Vibration     8          0.676              1.721              1.571
 Vibration     9          0.695              1.668              1.399
 Vibration    10          0.719              1.598              1.217
 Vibration    11          0.723              1.587              1.193
 Vibration    12          0.732              1.563              1.139
 Vibration    13          0.787              1.415              0.873
 Vibration    14          0.814              1.348              0.778
 Vibration    15          0.838              1.290              0.705
 Vibration    16          0.859              1.242              0.649
 Vibration    17          0.908              1.133              0.538
 Vibration    18          0.955              1.038              0.455

 Normal termination of Gaussian 16 at Fri May 23 03:32:09 2025.
