 Gaussian 16, Revision C.01,
 Gaussian 16:  ES64L-G16RevC.01  3-Jul-2019

 ----------------------------------------------------------------------
 #P wb97xd/6-311++G(d,p) Symm(None) scf(xqc) pop(None) geom(AllCheck,No
 KeepConstants) guess(Read) irc(RCFC,reverse,MaxPoints=100,StepSize=2)
 ----------------------------------------------------------------------

 Structure from the checkpoint file:  "2003846667223680600001_r12_insertion_R_5_2_3_IRC_R.chk"
 ------------------------------
 Gaussian input prepared by ASE
 ------------------------------
 Charge =  0 Multiplicity = 1

 SCF Done:  E(RwB97XD) =  -1199.69039697     A.U. after   12 cycles
 SCF Done:  E(RwB97XD) =  -1199.69050899     A.U. after   12 cycles
 SCF Done:  E(RwB97XD) =  -1199.69069717     A.U. after   12 cycles
 SCF Done:  E(RwB97XD) =  -1199.69096230     A.U. after   12 cycles
 SCF Done:  E(RwB97XD) =  -1199.69130410     A.U. after   12 cycles
 SCF Done:  E(RwB97XD) =  -1199.69172114     A.U. after   12 cycles
 SCF Done:  E(RwB97XD) =  -1199.69221134     A.U. after   12 cycles
 SCF Done:  E(RwB97XD) =  -1199.69277247     A.U. after   12 cycles
 SCF Done:  E(RwB97XD) =  -1199.69340238     A.U. after   12 cycles
 SCF Done:  E(RwB97XD) =  -1199.69409910     A.U. after   12 cycles
 SCF Done:  E(RwB97XD) =  -1199.80796350     A.U. after   10 cycles
 SCF Done:  E(RwB97XD) =  -1199.80878793     A.U. after   10 cycles
 SCF Done:  E(RwB97XD) =  -1199.80959249     A.U. after   10 cycles
 SCF Done:  E(RwB97XD) =  -1199.81037767     A.U. after   10 cycles
 SCF Done:  E(RwB97XD) =  -1199.81114398     A.U. after   10 cycles
 SCF Done:  E(RwB97XD) =  -1199.81189192     A.U. after   10 cycles
 SCF Done:  E(RwB97XD) =  -1199.81262194     A.U. after   10 cycles
 SCF Done:  E(RwB97XD) =  -1199.81333440     A.U. after   10 cycles
 SCF Done:  E(RwB97XD) =  -1199.81402962     A.U. after   10 cycles
 SCF Done:  E(RwB97XD) =  -1199.81470782     A.U. after   10 cycles

                          Input orientation:
 ---------------------------------------------------------------------
 Center     Atomic      Atomic             Coordinates (Angstroms)
 Number     Number       Type             X           Y           Z
 ---------------------------------------------------------------------
      1          6           0       -1.097735    0.368991    0.905486
      2          6           0       -0.212587    0.514985   -0.399348
      3          9           0        0.284234   -1.855588   -0.328303
      4          9           0       -1.041742    0.266927   -1.435027
      5         16           0        1.235014   -0.555568   -0.543382
      6          8           0        2.079589   -0.400086    0.596257
      7          8           0        1.729853   -0.508348   -1.879572
      8          8           0        0.462176    1.692774   -0.520127
      9          9           0       -2.021098   -0.579568    0.911393
     10          9           0       -0.346434    0.210789    1.984990
     11          9           0       -1.733449    1.549342    0.972549
     12          1           0        0.214212    2.345639    0.140789
 ---------------------------------------------------------------------

 Normal termination of Gaussian 16 at Fri May 23 04:06:33 2025.
