 Gaussian 16, Revision C.01,
 Gaussian 16:  ES64L-G16RevC.01  3-Jul-2019

 ----------------------------------------------------------------------
 #P wb97xd/6-311++G(d,p) Symm(None) scf(xqc) pop(None) freq opt(CalcFC)
 ----------------------------------------------------------------------

 ------------------------------
 Gaussian input prepared by ASE
 ------------------------------
 Symbolic Z-matrix:
 Charge =  0 Multiplicity = 1

 SCF Done:  E(RwB97XD) =  -1199.82201603     A.U. after   14 cycles
 SCF Done:  E(RwB97XD) =  -1199.82247489     A.U. after   13 cycles
 SCF Done:  E(RwB97XD) =  -1199.82390016     A.U. after   13 cycles
 SCF Done:  E(RwB97XD) =  -1199.82575169     A.U. after   14 cycles
 SCF Done:  E(RwB97XD) =  -1199.82567706     A.U. after   12 cycles
 SCF Done:  E(RwB97XD) =  -1199.82600663     A.U. after   12 cycles
 SCF Done:  E(RwB97XD) =  -1199.82215547     A.U. after   14 cycles
 SCF Done:  E(RwB97XD) =  -1199.82602775     A.U. after   11 cycles
 SCF Done:  E(RwB97XD) =  -1199.82604182     A.U. after   11 cycles
 SCF Done:  E(RwB97XD) =  -1199.82604402     A.U. after   11 cycles
 SCF Done:  E(RwB97XD) =  -1199.82604415     A.U. after    9 cycles
 SCF Done:  E(RwB97XD) =  -1199.82604417     A.U. after    8 cycles
 Optimization completed.
    -- Stationary point found.
 Normal termination of Gaussian 16 at Fri May 23 03:43:14 2025.

 ----------------------------------------------------------------------
 #P Geom=AllCheck Guess=TCheck SCRF=Check GenChk RwB97XD/6-311++G(d,p)
 Freq
 ----------------------------------------------------------------------

 Structure from the checkpoint file:  "2003846667223680600001_r12_insertion_R_8_5_6_IRC_R_prod.chk"
 ------------------------------
 Gaussian input prepared by ASE
 ------------------------------
 Charge =  0 Multiplicity = 1

                          Input orientation:
 ---------------------------------------------------------------------
 Center     Atomic      Atomic             Coordinates (Angstroms)
 Number     Number       Type             X           Y           Z
 ---------------------------------------------------------------------
      1          6           0       -1.245762   -0.310002    0.765847
      2          6           0       -0.417808    0.221483   -0.438739
      3          9           0       -0.794878   -0.413373   -1.545051
      4          9           0       -0.651879    1.533965   -0.579119
      5         16           0        1.435002    0.002625   -0.243132
      6          8           0        1.818345    0.685133    0.961014
      7          8           0        1.754827   -1.358847   -0.524855
      8          8           0        1.903048    0.862416   -1.512503
      9          9           0       -0.920340   -1.570476    1.023434
     10          9           0       -1.028493    0.428381    1.843450
     11          9           0       -2.537288   -0.250761    0.456838
     12          1           0        1.996117    1.793873   -1.272835
 ---------------------------------------------------------------------

 SCF Done:  E(RwB97XD) =  -1199.82604417     A.U. after    1 cycles

 Isotropic polarizability for W=    0.000000       55.71 Bohr**3.
 End of Minotr F.D. properties file   721 does not exist.

                      1                      2                      3
                      A                      A                      A
 Frequencies --     25.2419                67.5355               131.2488
 Red. masses --     14.1504                14.5169                14.7119
 Frc consts  --      0.0053                 0.0390                 0.1493
 IR Inten    --      1.2853                 0.7041                 1.3016

                      4                      5                      6
                      A                      A                      A
 Frequencies --    193.1018               222.2447               234.0076
 Red. masses --      9.2108                17.9172                 8.0409
 Frc consts  --      0.2024                 0.5214                 0.2594
 IR Inten    --      8.2713                 1.2284                 9.7346

                      7                      8                      9
                      A                      A                      A
 Frequencies --    274.9475               311.2492               317.9264
 Red. masses --     15.2208                 5.3029                18.2256
 Frc consts  --      0.6779                 0.3027                 1.0854
 IR Inten    --      1.4190                15.4749                 0.2724

                     10                     11                     12
                      A                      A                      A
 Frequencies --    359.7181               371.4374               436.6476
 Red. masses --      1.8538                17.3620                 4.0644
 Frc consts  --      0.1413                 1.4113                 0.4566
 IR Inten    --     57.3911                 0.2628                31.6473

                     13                     14                     15
                      A                      A                      A
 Frequencies --    484.3286               489.4014               539.3580
 Red. masses --     13.3402                 8.3718                17.8449
 Frc consts  --      1.8437                 1.1814                 3.0586
 IR Inten    --     15.3027                20.0480                28.8442

                     16                     17                     18
                      A                      A                      A
 Frequencies --    600.3726               608.8576               653.7186
 Red. masses --     17.3861                20.1359                17.3425
 Frc consts  --      3.6923                 4.3980                 4.3666
 IR Inten    --      3.5672               118.4058                29.7414

                     19                     20                     21
                      A                      A                      A
 Frequencies --    764.6640               825.3955              1005.6299
 Red. masses --     17.1205                17.1226                13.8232
 Frc consts  --      5.8981                 6.8730                 8.2364
 IR Inten    --     41.0702               218.0184                52.9309

                     22                     23                     24
                      A                      A                      A
 Frequencies --   1131.0065              1157.4393              1200.5140
 Red. masses --      1.1950                12.3032                15.9685
 Frc consts  --      0.9007                 9.7110                13.5597
 IR Inten    --    107.1675               244.1856                 5.9393

                     25                     26                     27
                      A                      A                      A
 Frequencies --   1219.3844              1248.8051              1253.8271
 Red. masses --     13.1138                13.6615                13.1768
 Frc consts  --     11.4884                12.5527                12.2049
 IR Inten    --    110.5014               331.6134               258.8941

                     28                     29                     30
                      A                      A                      A
 Frequencies --   1344.8440              1442.1397              3833.4417
 Red. masses --     12.6396                14.2035                 1.0663
 Frc consts  --     13.4687                17.4044                 9.2318
 IR Inten    --    107.1074               314.0889               161.6277

 - Thermochemistry -
 -------------------
 Temperature   298.150 Kelvin.  Pressure   1.00000 Atm.
 Atom     1 has atomic number  6 and mass  12.00000

 Molecular mass:   199.95666 amu.
 Principal axes and moments of inertia in atomic units:
                           1         2         3
     Eigenvalues --  1133.380262198.023262320.64875
           X            0.92195   0.38372   0.05257
           Y            0.12858  -0.43128   0.89301
           Z           -0.36534   0.81655   0.44696
 This molecule is an asymmetric top.
 Rotational symmetry number  1.
 Warning -- assumption of classical behavior for rotation
           may cause significant error
 Rotational temperatures (Kelvin)      0.07642     0.03941     0.03732
 Rotational constants (GHZ):           1.59235     0.82107     0.77769
 Zero-point vibrational energy     136065.9 (Joules/Mol)
                                   32.52052 (Kcal/Mol)
 Warning -- explicit consideration of  17 degrees of freedom as
           vibrations may cause significant error
 Vibrational temperatures:     36.32    97.17   188.84   277.83   319.76
          (Kelvin)            336.68   395.59   447.82   457.43   517.55
                              534.42   628.24   696.84   704.14   776.02
                              863.80   876.01   940.56  1100.18  1187.56
                             1446.88  1627.27  1665.30  1727.27  1754.42
                             1796.75  1803.98  1934.93  2074.92  5515.47

 Zero-point correction=                           0.051825 (Hartree/Particle)
 Thermal correction to Energy=                    0.062275
 Thermal correction to Enthalpy=                  0.063219
 Thermal correction to Gibbs Free Energy=         0.014513
 Sum of electronic and zero-point Energies=          -1199.774219
 Sum of electronic and thermal Energies=             -1199.763769
 Sum of electronic and thermal Enthalpies=           -1199.762825
 Sum of electronic and thermal Free Energies=        -1199.811532

                     E (Thermal)             CV                S
                      KCal/Mol        Cal/Mol-Kelvin    Cal/Mol-Kelvin
 Total                   39.078             36.601            102.512
 Electronic               0.000              0.000              0.000
 Translational            0.889              2.981             41.783
 Rotational               0.889              2.981             30.137
 Vibrational             37.301             30.639             30.591
 Vibration     1          0.593              1.985              6.172
 Vibration     2          0.598              1.970              4.224
 Vibration     3          0.612              1.922              2.928
 Vibration     4          0.635              1.849              2.198
 Vibration     5          0.648              1.807              1.941
 Vibration     6          0.654              1.789              1.848
 Vibration     7          0.677              1.720              1.565
 Vibration     8          0.700              1.652              1.356
 Vibration     9          0.704              1.639              1.321
 Vibration    10          0.734              1.555              1.123
 Vibration    11          0.743              1.531              1.074
 Vibration    12          0.797              1.390              0.837
 Vibration    13          0.840              1.285              0.698
 Vibration    14          0.845              1.274              0.685
 Vibration    15          0.894              1.163              0.567
 Vibration    16          0.959              1.031              0.449
 Vibration    17          0.968              1.013              0.435

 Optimization completed.
    -- Stationary point found.
 Normal termination of Gaussian 16 at Fri May 23 03:44:40 2025.
