 Gaussian 16, Revision C.01,
 Gaussian 16:  ES64L-G16RevC.01  3-Jul-2019

 ----------------------------------------------------------------------
 #P wb97xd/6-311++G(d,p) Symm(None) scf(xqc) pop(None) freq opt(CalcFC)
 ----------------------------------------------------------------------

 ------------------------------
 Gaussian input prepared by ASE
 ------------------------------
 Symbolic Z-matrix:
 Charge =  0 Multiplicity = 1

 SCF Done:  E(RwB97XD) =  -1199.70030917     A.U. after   17 cycles
 SCF Done:  E(RwB97XD) =  -1199.72565556     A.U. after   14 cycles
 SCF Done:  E(RwB97XD) =  -1199.76930653     A.U. after   13 cycles
 SCF Done:  E(RwB97XD) =  -1199.78500361     A.U. after   15 cycles
 SCF Done:  E(RwB97XD) =  -1199.79591570     A.U. after   14 cycles
 SCF Done:  E(RwB97XD) =  -1199.80772396     A.U. after   15 cycles
 SCF Done:  E(RwB97XD) =  -1199.81760671     A.U. after   13 cycles
 SCF Done:  E(RwB97XD) =  -1199.82261097     A.U. after   13 cycles
 SCF Done:  E(RwB97XD) =  -1199.82411036     A.U. after   13 cycles
 SCF Done:  E(RwB97XD) =  -1199.82161936     A.U. after   13 cycles
 SCF Done:  E(RwB97XD) =  -1199.82569178     A.U. after   12 cycles
 SCF Done:  E(RwB97XD) =  -1199.82577701     A.U. after   12 cycles
 SCF Done:  E(RwB97XD) =  -1199.82592335     A.U. after   11 cycles
 SCF Done:  E(RwB97XD) =  -1199.82596349     A.U. after   11 cycles
 SCF Done:  E(RwB97XD) =  -1199.82596705     A.U. after   12 cycles
 SCF Done:  E(RwB97XD) =  -1199.82598131     A.U. after   11 cycles
 SCF Done:  E(RwB97XD) =  -1199.82598159     A.U. after    9 cycles
 SCF Done:  E(RwB97XD) =  -1199.82598345     A.U. after   10 cycles
 SCF Done:  E(RwB97XD) =  -1199.82598347     A.U. after    8 cycles
 Optimization completed.
    -- Stationary point found.
 Normal termination of Gaussian 16 at Fri May 23 05:08:37 2025.

 ----------------------------------------------------------------------
 #P Geom=AllCheck Guess=TCheck SCRF=Check GenChk RwB97XD/6-311++G(d,p)
 Freq
 ----------------------------------------------------------------------

 Structure from the checkpoint file:  "2003846667223680600001_r13_insertion_ROR_3_2_5_6_IRC_F_prod.chk"
 ------------------------------
 Gaussian input prepared by ASE
 ------------------------------
 Charge =  0 Multiplicity = 1

                          Input orientation:
 ---------------------------------------------------------------------
 Center     Atomic      Atomic             Coordinates (Angstroms)
 Number     Number       Type             X           Y           Z
 ---------------------------------------------------------------------
      1          6           0        0.349779   -1.352562   -0.701174
      2          6           0       -0.471854   -0.411625    0.225612
      3          9           0       -1.696469   -0.248695   -0.292930
      4          9           0       -0.574788   -0.971201    1.429323
      5         16           0        0.251003    1.301550    0.480821
      6          8           0       -0.558340    1.915729    1.494890
      7          8           0        1.672167    1.185817    0.557131
      8          8           0       -0.090936    1.963534   -0.936685
      9          9           0        0.587053   -0.764600   -1.867611
     10          9           0        1.496399   -1.681740   -0.130202
     11          9           0       -0.357213   -2.459432   -0.916222
     12          1           0       -0.973883    2.355662   -0.920201
 ---------------------------------------------------------------------

 SCF Done:  E(RwB97XD) =  -1199.82598347     A.U. after    1 cycles

 Isotropic polarizability for W=    0.000000       55.76 Bohr**3.
 End of Minotr F.D. properties file   721 does not exist.

                      1                      2                      3
                      A                      A                      A
 Frequencies --     44.7255                66.5856               132.1200
 Red. masses --     13.3596                15.7918                16.7749
 Frc consts  --      0.0157                 0.0413                 0.1725
 IR Inten    --      1.9050                 0.4782                 0.6872

                      4                      5                      6
                      A                      A                      A
 Frequencies --    190.5036               223.8913               239.6997
 Red. masses --      5.7216                17.3097                14.6842
 Frc consts  --      0.1223                 0.5112                 0.4971
 IR Inten    --     13.5595                 1.3102                 7.4774

                      7                      8                      9
                      A                      A                      A
 Frequencies --    276.3049               311.0740               317.0251
 Red. masses --     12.4388                15.9588                 5.7638
 Frc consts  --      0.5595                 0.9099                 0.3413
 IR Inten    --      0.8286                 0.4897                11.4737

                     10                     11                     12
                      A                      A                      A
 Frequencies --    345.4768               374.3627               436.3925
 Red. masses --      2.0011                 7.0620                11.9730
 Frc consts  --      0.1407                 0.5831                 1.3434
 IR Inten    --     53.7986                 8.9755                16.0896

                     13                     14                     15
                      A                      A                      A
 Frequencies --    458.7686               510.4343               537.8984
 Red. masses --      4.2560                14.2534                17.9981
 Frc consts  --      0.5278                 2.1880                 3.0682
 IR Inten    --     37.0724                13.2032                23.4579

                     16                     17                     18
                      A                      A                      A
 Frequencies --    600.5889               609.2592               654.3193
 Red. masses --     17.4232                20.2481                17.1137
 Frc consts  --      3.7028                 4.4283                 4.3169
 IR Inten    --      4.2184               120.1001                25.0016

                     19                     20                     21
                      A                      A                      A
 Frequencies --    764.9429               833.5068              1005.8730
 Red. masses --     17.1723                17.4409                13.5106
 Frc consts  --      5.9202                 7.1390                 8.0540
 IR Inten    --     20.3345               195.3922               113.0337

                     22                     23                     24
                      A                      A                      A
 Frequencies --   1132.4984              1153.1674              1206.8614
 Red. masses --      1.1904                14.0320                13.7053
 Frc consts  --      0.8995                10.9940                11.7612
 IR Inten    --     90.9473               133.3645                47.6338

                     25                     26                     27
                      A                      A                      A
 Frequencies --   1224.7781              1234.9026              1260.5257
 Red. masses --     14.0237                13.4417                13.3023
 Frc consts  --     12.3945                12.0773                12.4532
 IR Inten    --    197.6369               212.8617               398.0479

                     28                     29                     30
                      A                      A                      A
 Frequencies --   1345.3476              1445.6834              3835.2347
 Red. masses --     12.6782                14.1906                 1.0663
 Frc consts  --     13.5200                17.4742                 9.2406
 IR Inten    --     96.1945               293.3583               163.6681

 - Thermochemistry -
 -------------------
 Temperature   298.150 Kelvin.  Pressure   1.00000 Atm.
 Atom     1 has atomic number  6 and mass  12.00000

 Molecular mass:   199.95666 amu.
 Principal axes and moments of inertia in atomic units:
                           1         2         3
     Eigenvalues --  1146.405352162.549192302.14011
           X           -0.03680   0.83635   0.54696
           Y            0.93300   0.22483  -0.28101
           Z            0.35800  -0.49997   0.78858
 This molecule is an asymmetric top.
 Rotational symmetry number  1.
 Warning -- assumption of classical behavior for rotation
           may cause significant error
 Rotational temperatures (Kelvin)      0.07555     0.04005     0.03762
 Rotational constants (GHZ):           1.57426     0.83454     0.78394
 Zero-point vibrational energy     136211.3 (Joules/Mol)
                                   32.55528 (Kcal/Mol)
 Warning -- explicit consideration of  17 degrees of freedom as
           vibrations may cause significant error
 Vibrational temperatures:     64.35    95.80   190.09   274.09   322.13
          (Kelvin)            344.87   397.54   447.57   456.13   497.06
                              538.62   627.87   660.07   734.40   773.92
                              864.11   876.59   941.42  1100.58  1199.23
                             1447.23  1629.41  1659.15  1736.40  1762.18
                             1776.75  1813.62  1935.66  2080.02  5518.05

 Zero-point correction=                           0.051880 (Hartree/Particle)
 Thermal correction to Energy=                    0.062297
 Thermal correction to Enthalpy=                  0.063242
 Thermal correction to Gibbs Free Energy=         0.015058
 Sum of electronic and zero-point Energies=          -1199.774103
 Sum of electronic and thermal Energies=             -1199.763686
 Sum of electronic and thermal Enthalpies=           -1199.762742
 Sum of electronic and thermal Free Energies=        -1199.810926

                     E (Thermal)             CV                S
                      KCal/Mol        Cal/Mol-Kelvin    Cal/Mol-Kelvin
 Total                   39.092             36.605            101.411
 Electronic               0.000              0.000              0.000
 Translational            0.889              2.981             41.783
 Rotational               0.889              2.981             30.124
 Vibrational             37.315             30.644             29.504
 Vibration     1          0.595              1.980              5.038
 Vibration     2          0.598              1.970              4.252
 Vibration     3          0.612              1.921              2.915
 Vibration     4          0.634              1.853              2.223
 Vibration     5          0.649              1.805              1.927
 Vibration     6          0.657              1.780              1.805
 Vibration     7          0.678              1.717              1.556
 Vibration     8          0.700              1.653              1.357
 Vibration     9          0.704              1.641              1.325
 Vibration    10          0.724              1.584              1.187
 Vibration    11          0.745              1.525              1.062
 Vibration    12          0.797              1.391              0.838
 Vibration    13          0.817              1.341              0.770
 Vibration    14          0.866              1.227              0.633
 Vibration    15          0.893              1.166              0.570
 Vibration    16          0.959              1.031              0.449
 Vibration    17          0.968              1.012              0.434

 Optimization completed.
    -- Stationary point found.
 Normal termination of Gaussian 16 at Fri May 23 05:10:06 2025.
