 Gaussian 16, Revision C.01,
 Gaussian 16:  ES64L-G16RevC.01  3-Jul-2019

 ----------------------------------------------------------------------
 #P wb97xd/6-311++G(d,p) Symm(None) scf(xqc) pop(None) geom(AllCheck,No
 KeepConstants) guess(Read) irc(RCFC,reverse,MaxPoints=100,StepSize=2)
 ----------------------------------------------------------------------

 Structure from the checkpoint file:  "2003846667223680600001_r12_insertion_R_2_5_6_IRC_R.chk"
 ------------------------------
 Gaussian input prepared by ASE
 ------------------------------
 Charge =  0 Multiplicity = 1

 SCF Done:  E(RwB97XD) =  -1199.59651381     A.U. after   19 cycles
 SCF Done:  E(RwB97XD) =  -1199.59655073     A.U. after   19 cycles
 SCF Done:  E(RwB97XD) =  -1199.59661455     A.U. after   20 cycles
 SCF Done:  E(RwB97XD) =  -1199.59670696     A.U. after   20 cycles
 SCF Done:  E(RwB97XD) =  -1199.59682899     A.U. after   20 cycles
 SCF Done:  E(RwB97XD) =  -1199.59698182     A.U. after   20 cycles
 SCF Done:  E(RwB97XD) =  -1199.59716732     A.U. after   20 cycles
 SCF Done:  E(RwB97XD) =  -1199.59738686     A.U. after   20 cycles
 SCF Done:  E(RwB97XD) =  -1199.59764076     A.U. after   20 cycles
 SCF Done:  E(RwB97XD) =  -1199.59792905     A.U. after   20 cycles
 SCF Done:  E(RwB97XD) =  -1199.70937128     A.U. after   12 cycles
 SCF Done:  E(RwB97XD) =  -1199.71202159     A.U. after   12 cycles
 SCF Done:  E(RwB97XD) =  -1199.71470377     A.U. after   12 cycles
 SCF Done:  E(RwB97XD) =  -1199.71741652     A.U. after   12 cycles
 SCF Done:  E(RwB97XD) =  -1199.72015840     A.U. after   12 cycles
 SCF Done:  E(RwB97XD) =  -1199.72292775     A.U. after   12 cycles
 SCF Done:  E(RwB97XD) =  -1199.72572269     A.U. after   12 cycles
 SCF Done:  E(RwB97XD) =  -1199.72854103     A.U. after   12 cycles
 SCF Done:  E(RwB97XD) =  -1199.73138029     A.U. after   12 cycles
 SCF Done:  E(RwB97XD) =  -1199.73423763     A.U. after   12 cycles

                          Input orientation:
 ---------------------------------------------------------------------
 Center     Atomic      Atomic             Coordinates (Angstroms)
 Number     Number       Type             X           Y           Z
 ---------------------------------------------------------------------
      1          6           0       -1.337323   -0.630545    0.512730
      2          6           0       -0.414985    0.319518   -0.303823
      3          9           0       -0.684277    0.218750   -1.602471
      4          9           0       -0.619841    1.549207    0.112326
      5         16           0        1.467163    0.109277   -0.069200
      6          8           0        1.775847    1.661958    0.629380
      7          8           0        1.712745   -1.338948   -0.067266
      8          8           0        2.053577    0.638448   -1.433589
      9          9           0       -1.408901   -1.837056   -0.020510
     10          9           0       -0.881561   -0.715977    1.758194
     11          9           0       -2.554420   -0.094350    0.533753
     12          1           0        2.276499    1.555403   -1.189133
 ---------------------------------------------------------------------

 Normal termination of Gaussian 16 at Fri May 23 06:55:03 2025.
