 Gaussian 16, Revision C.01,
 Gaussian 16:  ES64L-G16RevC.01  3-Jul-2019

 ----------------------------------------------------------------------
 #P wb97xd/6-311++G(d,p) Symm(None) scf(xqc) pop(None) freq opt(CalcFC,
  Tight)
 ----------------------------------------------------------------------

 ------------------------------
 Gaussian input prepared by ASE
 ------------------------------
 Symbolic Z-matrix:
 Charge =  0 Multiplicity = 1

 SCF Done:  E(RwB97XD) =  -1199.61057479     A.U. after   16 cycles
 SCF Done:  E(RwB97XD) =  -1199.61057479     A.U. after    5 cycles
 Optimization completed.
    -- Stationary point found.
 Normal termination of Gaussian 16 at Fri May 23 05:12:24 2025.

 ----------------------------------------------------------------------
 #P Geom=AllCheck Guess=TCheck SCRF=Check GenChk RwB97XD/6-311++G(d,p)
 Freq
 ----------------------------------------------------------------------

 Structure from the checkpoint file:  "2003885976044371740001_well.chk"
 ------------------------------
 Gaussian input prepared by ASE
 ------------------------------
 Charge =  0 Multiplicity = 1

                          Input orientation:
 ---------------------------------------------------------------------
 Center     Atomic      Atomic             Coordinates (Angstroms)
 Number     Number       Type             X           Y           Z
 ---------------------------------------------------------------------
      1          6           0        0.284051   -1.361760   -0.784544
      2          6           0        0.683363   -0.426393    0.320369
      3          9           0       -2.307005    0.750186   -0.089308
      4          9           0        0.963598   -1.071931    1.470437
      5         16           0        0.102745    1.090467    0.545319
      6          8           0       -1.536610    1.478552    0.838311
      7          8           0        0.678577    1.814297    1.636330
      8          8           0        0.120735    1.773429   -0.879770
      9          9           0        0.118504   -0.712629   -1.948175
     10          9           0        1.251444   -2.267679   -0.951112
     11          9           0       -0.845167   -2.035395   -0.535000
     12          1           0        0.925408    1.536129   -1.360602
 ---------------------------------------------------------------------

 SCF Done:  E(RwB97XD) =  -1199.61057479     A.U. after    1 cycles

 Isotropic polarizability for W=    0.000000       62.46 Bohr**3.
 End of Minotr F.D. properties file   721 does not exist.

                      1                      2                      3
                      A                      A                      A
 Frequencies --     39.2541                71.5818                93.1410
 Red. masses --     15.8306                17.2507                16.6730
 Frc consts  --      0.0144                 0.0521                 0.0852
 IR Inten    --      0.6238                 0.3022                 1.4805

                      4                      5                      6
                      A                      A                      A
 Frequencies --    171.5973               189.4664               201.5963
 Red. masses --      8.7954                12.4209                15.3756
 Frc consts  --      0.1526                 0.2627                 0.3682
 IR Inten    --      2.8936                13.4564                 2.0672

                      7                      8                      9
                      A                      A                      A
 Frequencies --    243.4917               307.2050               324.1334
 Red. masses --     17.2004                13.5297                17.4417
 Frc consts  --      0.6008                 0.7523                 1.0797
 IR Inten    --      3.6637                 1.3930                 4.7163

                     10                     11                     12
                      A                      A                      A
 Frequencies --    330.6154               351.3803               395.2527
 Red. masses --      4.7570                 1.5233                 6.5474
 Frc consts  --      0.3064                 0.1108                 0.6027
 IR Inten    --     13.4333                88.8799                32.8622

                     13                     14                     15
                      A                      A                      A
 Frequencies --    452.1727               463.6337               474.7936
 Red. masses --      8.5159                14.5640                17.3984
 Frc consts  --      1.0259                 1.8445                 2.3108
 IR Inten    --     20.6464                 1.3788                22.4298

                     16                     17                     18
                      A                      A                      A
 Frequencies --    554.9380               595.6708               603.7945
 Red. masses --     16.5649                16.1247                16.8707
 Frc consts  --      3.0056                 3.3710                 3.6238
 IR Inten    --     17.8093                 5.9562                10.1342

                     19                     20                     21
                      A                      A                      A
 Frequencies --    676.5851               765.0278               881.5576
 Red. masses --     14.1669                16.8787                17.6264
 Frc consts  --      3.8209                 5.8203                 8.0708
 IR Inten    --    233.1167                39.4472               160.7983

                     22                     23                     24
                      A                      A                      A
 Frequencies --    969.7470              1070.7930              1144.0153
 Red. masses --     16.9699                 5.5987                 1.3345
 Frc consts  --      9.4026                 3.7822                 1.0290
 IR Inten    --     14.5591                82.5017               181.7184

                     25                     26                     27
                      A                      A                      A
 Frequencies --   1174.2511              1193.8162              1257.1316
 Red. masses --     12.7434                12.8865                13.7225
 Frc consts  --     10.3528                10.8208                12.7775
 IR Inten    --    293.6455               298.8731                13.4180

                     28                     29                     30
                      A                      A                      A
 Frequencies --   1332.3310              1363.0521              3823.6772
 Red. masses --     12.3137                17.1616                 1.0660
 Frc consts  --     12.8785                18.7860                 9.1831
 IR Inten    --    450.1462               188.4850               161.7067

 - Thermochemistry -
 -------------------
 Temperature   298.150 Kelvin.  Pressure   1.00000 Atm.
 Atom     1 has atomic number  6 and mass  12.00000

 Molecular mass:   199.95666 amu.
 Principal axes and moments of inertia in atomic units:
                           1         2         3
     Eigenvalues --  1260.990462260.136272609.35267
           X           -0.26829   0.78317  -0.56095
           Y            0.88150  -0.03528  -0.47086
           Z            0.38855   0.62081   0.68090
 This molecule is an asymmetric top.
 Rotational symmetry number  1.
 Warning -- assumption of classical behavior for rotation
           may cause significant error
 Rotational temperatures (Kelvin)      0.06869     0.03832     0.03319
 Rotational constants (GHZ):           1.43121     0.79851     0.69164
 Zero-point vibrational energy     128692.5 (Joules/Mol)
                                   30.75824 (Kcal/Mol)
 Warning -- explicit consideration of  18 degrees of freedom as
           vibrations may cause significant error
 Vibrational temperatures:     56.48   102.99   134.01   246.89   272.60
          (Kelvin)            290.05   350.33   442.00   466.36   475.68
                              505.56   568.68   650.58   667.07   683.12
                              798.43   857.04   868.73   973.45  1100.70
                             1268.36  1395.25  1540.63  1645.98  1689.49
                             1717.64  1808.73  1916.93  1961.13  5501.42

 Zero-point correction=                           0.049016 (Hartree/Particle)
 Thermal correction to Energy=                    0.060034
 Thermal correction to Enthalpy=                  0.060978
 Thermal correction to Gibbs Free Energy=         0.011279
 Sum of electronic and zero-point Energies=          -1199.561558
 Sum of electronic and thermal Energies=             -1199.550541
 Sum of electronic and thermal Enthalpies=           -1199.549597
 Sum of electronic and thermal Free Energies=        -1199.599296

                     E (Thermal)             CV                S
                      KCal/Mol        Cal/Mol-Kelvin    Cal/Mol-Kelvin
 Total                   37.672             38.275            104.600
 Electronic               0.000              0.000              0.000
 Translational            0.889              2.981             41.783
 Rotational               0.889              2.981             30.387
 Vibrational             35.894             32.314             32.430
 Vibration     1          0.594              1.981              5.296
 Vibration     2          0.598              1.968              4.109
 Vibration     3          0.602              1.954              3.593
 Vibration     4          0.626              1.877              2.418
 Vibration     5          0.633              1.854              2.233
 Vibration     6          0.638              1.838              2.118
 Vibration     7          0.659              1.774              1.777
 Vibration     8          0.697              1.660              1.377
 Vibration     9          0.709              1.627              1.289
 Vibration    10          0.713              1.614              1.257
 Vibration    11          0.728              1.572              1.160
 Vibration    12          0.762              1.480              0.980
 Vibration    13          0.811              1.356              0.789
 Vibration    14          0.821              1.331              0.756
 Vibration    15          0.832              1.306              0.724
 Vibration    16          0.910              1.129              0.534
 Vibration    17          0.953              1.041              0.457
 Vibration    18          0.962              1.024              0.443

 Optimization completed.
    -- Stationary point found.
 Normal termination of Gaussian 16 at Fri May 23 05:13:37 2025.
