 Gaussian 16, Revision C.01,
 Gaussian 16:  ES64L-G16RevC.01  3-Jul-2019

 ----------------------------------------------------------------------
 #P wb97xd/6-311++G(d,p) Symm(None) scf(xqc) pop(None) freq opt(CalcFC)
 ----------------------------------------------------------------------

 ------------------------------
 Gaussian input prepared by ASE
 ------------------------------
 Symbolic Z-matrix:
 Charge =  0 Multiplicity = 1

 SCF Done:  E(RwB97XD) =  -1199.72786287     A.U. after   17 cycles
 SCF Done:  E(RwB97XD) =  -1199.73284650     A.U. after   15 cycles
 SCF Done:  E(RwB97XD) =  -1199.72756806     A.U. after   13 cycles
 SCF Done:  E(RwB97XD) =  -1199.74148660     A.U. after   13 cycles
 SCF Done:  E(RwB97XD) =  -1199.68600548     A.U. after   16 cycles
 SCF Done:  E(RwB97XD) =  -1199.73278201     A.U. after   15 cycles
 SCF Done:  E(RwB97XD) =  -1199.74494700     A.U. after   12 cycles
 SCF Done:  E(RwB97XD) =  -1199.75233063     A.U. after   12 cycles
 SCF Done:  E(RwB97XD) =  -1199.71919029     A.U. after   14 cycles
 SCF Done:  E(RwB97XD) =  -1199.76537326     A.U. after   13 cycles
 SCF Done:  E(RwB97XD) =  -1199.82583630     A.U. after   10 cycles
 SCF Done:  E(RwB97XD) =  -1199.82585449     A.U. after   10 cycles
 SCF Done:  E(RwB97XD) =  -1199.82586601     A.U. after   10 cycles
 SCF Done:  E(RwB97XD) =  -1199.82586723     A.U. after   10 cycles
 SCF Done:  E(RwB97XD) =  -1199.82587501     A.U. after    9 cycles
 SCF Done:  E(RwB97XD) =  -1199.82588081     A.U. after    9 cycles
 SCF Done:  E(RwB97XD) =  -1199.82588325     A.U. after   10 cycles
 SCF Done:  E(RwB97XD) =  -1199.82588384     A.U. after    8 cycles
 SCF Done:  E(RwB97XD) =  -1199.82588404     A.U. after    8 cycles
 Optimization completed.
    -- Stationary point found.
 Normal termination of Gaussian 16 at Fri May 23 05:23:03 2025.

 ----------------------------------------------------------------------
 #P Geom=AllCheck Guess=TCheck SCRF=Check GenChk RwB97XD/6-311++G(d,p)
 Freq
 ----------------------------------------------------------------------

 Structure from the checkpoint file:  "2003846667223680600001_r13_insertion_ROR_1_2_5_8_IRC_R_prod.chk"
 ------------------------------
 Gaussian input prepared by ASE
 ------------------------------
 Charge =  0 Multiplicity = 1

                          Input orientation:
 ---------------------------------------------------------------------
 Center     Atomic      Atomic             Coordinates (Angstroms)
 Number     Number       Type             X           Y           Z
 ---------------------------------------------------------------------
      1          6           0       -1.261752   -0.809595    0.426651
      2          6           0        0.144791   -0.705198   -0.231524
      3          9           0        0.952548   -1.602721    0.332310
      4          9           0        0.035309   -0.960269   -1.534451
      5         16           0        0.967761    0.970639   -0.030671
      6          8           0        0.687779    1.431926    1.300824
      7          8           0        2.283365    0.834604   -0.566351
      8          8           0        0.128090    1.836276   -1.083204
      9          9           0       -1.168857   -0.829212    1.743484
     10          9           0       -2.014295    0.236713    0.058965
     11          9           0       -1.859241   -1.919949    0.015927
     12          1           0       -0.652249    2.218232   -0.660064
 ---------------------------------------------------------------------

 SCF Done:  E(RwB97XD) =  -1199.82588404     A.U. after    1 cycles

 Isotropic polarizability for W=    0.000000       55.69 Bohr**3.
 End of Minotr F.D. properties file   721 does not exist.

                      1                      2                      3
                      A                      A                      A
 Frequencies --     58.1299                68.5427               144.3301
 Red. masses --     12.7690                16.4369                15.9715
 Frc consts  --      0.0254                 0.0455                 0.1960
 IR Inten    --      1.6849                 0.6582                 0.9827

                      4                      5                      6
                      A                      A                      A
 Frequencies --    201.2000               226.1727               240.2940
 Red. masses --     14.8109                18.0303                12.1163
 Frc consts  --      0.3533                 0.5434                 0.4122
 IR Inten    --      3.5785                 1.6032                 1.6586

                      7                      8                      9
                      A                      A                      A
 Frequencies --    277.4523               308.8516               318.6265
 Red. masses --     17.6237                13.6405                11.6605
 Frc consts  --      0.7993                 0.7666                 0.6975
 IR Inten    --      3.9697                 2.1118                 4.4991

                     10                     11                     12
                      A                      A                      A
 Frequencies --    364.3141               399.3464               440.9546
 Red. masses --      6.5392                 2.7113                13.8330
 Frc consts  --      0.5114                 0.2548                 1.5847
 IR Inten    --     11.9334                49.3230                15.2555

                     13                     14                     15
                      A                      A                      A
 Frequencies --    493.2852               510.5915               537.8656
 Red. masses --      1.7999                15.7803                17.6979
 Frc consts  --      0.2580                 2.4239                 3.0166
 IR Inten    --     71.6798                 9.8630                28.2606

                     16                     17                     18
                      A                      A                      A
 Frequencies --    599.1821               609.4988               656.5492
 Red. masses --     17.8097                20.4884                15.7768
 Frc consts  --      3.7673                 4.4844                 4.0069
 IR Inten    --      2.6293               118.2557                28.7993

                     19                     20                     21
                      A                      A                      A
 Frequencies --    763.6342               834.7313              1002.8014
 Red. masses --     17.2646                17.0764                12.7671
 Frc consts  --      5.9317                 7.0103                 7.5644
 IR Inten    --     18.7330               194.5503               101.0955

                     22                     23                     24
                      A                      A                      A
 Frequencies --   1139.3570              1155.8963              1208.8493
 Red. masses --      1.2221                12.0384                13.6045
 Frc consts  --      0.9347                 9.4767                11.7132
 IR Inten    --    149.1270               148.8573                78.7195

                     25                     26                     27
                      A                      A                      A
 Frequencies --   1226.5652              1228.0412              1262.3665
 Red. masses --     12.2747                13.1502                13.3232
 Frc consts  --     10.8803                11.6845                12.5092
 IR Inten    --    127.4079               189.1299               375.2622

                     28                     29                     30
                      A                      A                      A
 Frequencies --   1348.4079              1445.0371              3837.0738
 Red. masses --     12.6957                14.0266                 1.0660
 Frc consts  --     13.6004                17.2568                 9.2475
 IR Inten    --    113.5706               293.7994               149.4460

 - Thermochemistry -
 -------------------
 Temperature   298.150 Kelvin.  Pressure   1.00000 Atm.
 Atom     1 has atomic number  6 and mass  12.00000

 Molecular mass:   199.95666 amu.
 Principal axes and moments of inertia in atomic units:
                           1         2         3
     Eigenvalues --  1152.598532137.472162288.47356
           X            0.74026  -0.52887   0.41511
           Y            0.64783   0.72623  -0.23002
           Z           -0.17981   0.43920   0.88021
 This molecule is an asymmetric top.
 Rotational symmetry number  1.
 Warning -- assumption of classical behavior for rotation
           may cause significant error
 Rotational temperatures (Kelvin)      0.07515     0.04052     0.03785
 Rotational constants (GHZ):           1.56580     0.84433     0.78862
 Zero-point vibrational energy     137020.0 (Joules/Mol)
                                   32.74856 (Kcal/Mol)
 Warning -- explicit consideration of  17 degrees of freedom as
           vibrations may cause significant error
 Vibrational temperatures:     83.64    98.62   207.66   289.48   325.41
          (Kelvin)            345.73   399.19   444.37   458.43   524.17
                              574.57   634.44   709.73   734.63   773.87
                              862.09   876.93   944.63  1098.70  1200.99
                             1442.81  1639.28  1663.08  1739.26  1764.75
                             1766.88  1816.26  1940.06  2079.09  5520.69

 Zero-point correction=                           0.052188 (Hartree/Particle)
 Thermal correction to Energy=                    0.062452
 Thermal correction to Enthalpy=                  0.063396
 Thermal correction to Gibbs Free Energy=         0.015771
 Sum of electronic and zero-point Energies=          -1199.773696
 Sum of electronic and thermal Energies=             -1199.763432
 Sum of electronic and thermal Enthalpies=           -1199.762488
 Sum of electronic and thermal Free Energies=        -1199.810113

                     E (Thermal)             CV                S
                      KCal/Mol        Cal/Mol-Kelvin    Cal/Mol-Kelvin
 Total                   39.189             36.382            100.236
 Electronic               0.000              0.000              0.000
 Translational            0.889              2.981             41.783
 Rotational               0.889              2.981             30.112
 Vibrational             37.412             30.420             28.341
 Vibration     1          0.596              1.974              4.520
 Vibration     2          0.598              1.969              4.195
 Vibration     3          0.616              1.909              2.746
 Vibration     4          0.638              1.838              2.122
 Vibration     5          0.650              1.801              1.909
 Vibration     6          0.657              1.779              1.801
 Vibration     7          0.678              1.715              1.549
 Vibration     8          0.698              1.657              1.368
 Vibration     9          0.705              1.638              1.317
 Vibration    10          0.738              1.546              1.104
 Vibration    11          0.765              1.472              0.965
 Vibration    12          0.801              1.381              0.824
 Vibration    13          0.849              1.265              0.675
 Vibration    14          0.866              1.227              0.632
 Vibration    15          0.893              1.166              0.570
 Vibration    16          0.957              1.034              0.451
 Vibration    17          0.968              1.012              0.434

 Optimization completed.
    -- Stationary point found.
 Normal termination of Gaussian 16 at Fri May 23 05:24:21 2025.
