 Gaussian 16, Revision C.01,
 Gaussian 16:  ES64L-G16RevC.01  3-Jul-2019

 ----------------------------------------------------------------------
 #P wb97xd/6-311++G(d,p) Symm(None) scf(xqc) pop(None) freq opt(CalcFC)
 ----------------------------------------------------------------------

 ------------------------------
 Gaussian input prepared by ASE
 ------------------------------
 Symbolic Z-matrix:
 Charge =  0 Multiplicity = 1

 SCF Done:  E(RwB97XD) =  -1199.80306968     A.U. after   14 cycles
 SCF Done:  E(RwB97XD) =  -1199.81937332     A.U. after   13 cycles
 SCF Done:  E(RwB97XD) =  -1199.82187680     A.U. after   14 cycles
 SCF Done:  E(RwB97XD) =  -1199.82371320     A.U. after   12 cycles
 SCF Done:  E(RwB97XD) =  -1199.82434745     A.U. after   12 cycles
 SCF Done:  E(RwB97XD) =  -1199.82471977     A.U. after   12 cycles
 SCF Done:  E(RwB97XD) =  -1199.82517630     A.U. after   12 cycles
 SCF Done:  E(RwB97XD) =  -1199.82559333     A.U. after   12 cycles
 SCF Done:  E(RwB97XD) =  -1199.82591114     A.U. after   12 cycles
 SCF Done:  E(RwB97XD) =  -1199.82598038     A.U. after   12 cycles
 SCF Done:  E(RwB97XD) =  -1199.82602144     A.U. after   11 cycles
 SCF Done:  E(RwB97XD) =  -1199.82603316     A.U. after   10 cycles
 SCF Done:  E(RwB97XD) =  -1199.82603672     A.U. after   10 cycles
 SCF Done:  E(RwB97XD) =  -1199.82603859     A.U. after   10 cycles
 SCF Done:  E(RwB97XD) =  -1199.82604062     A.U. after   10 cycles
 SCF Done:  E(RwB97XD) =  -1199.82604412     A.U. after   10 cycles
 SCF Done:  E(RwB97XD) =  -1199.82604603     A.U. after   10 cycles
 Optimization completed.
    -- Stationary point found.
 Normal termination of Gaussian 16 at Fri May 23 04:28:50 2025.

 ----------------------------------------------------------------------
 #P Geom=AllCheck Guess=TCheck SCRF=Check GenChk RwB97XD/6-311++G(d,p)
 Freq
 ----------------------------------------------------------------------

 Structure from the checkpoint file:  "2003846667223680600001_r12_insertion_R_9_1_10_IRC_R_prod.chk"
 ------------------------------
 Gaussian input prepared by ASE
 ------------------------------
 Charge =  0 Multiplicity = 1

                          Input orientation:
 ---------------------------------------------------------------------
 Center     Atomic      Atomic             Coordinates (Angstroms)
 Number     Number       Type             X           Y           Z
 ---------------------------------------------------------------------
      1          6           0       -1.191195   -0.502094    0.730892
      2          6           0       -0.421053    0.187528   -0.431112
      3          9           0       -0.710450   -0.426331   -1.575044
      4          9           0       -0.806976    1.469134   -0.505507
      5         16           0        1.442731    0.176946   -0.218568
      6          8           0        1.731153    0.831424    1.026940
      7          8           0        1.923577   -1.119765   -0.568682
      8          8           0        1.818519    1.155039   -1.431666
      9          9           0       -1.075479    0.199091    1.848260
     10          9           0       -0.719058   -1.726427    0.928865
     11          9           0       -2.477275   -0.581664    0.404076
     12          1           0        1.798562    2.076194   -1.140472
 ---------------------------------------------------------------------

 SCF Done:  E(RwB97XD) =  -1199.82604603     A.U. after    1 cycles

 Isotropic polarizability for W=    0.000000       55.70 Bohr**3.
 End of Minotr F.D. properties file   721 does not exist.

                      1                      2                      3
                      A                      A                      A
 Frequencies --     28.6996                68.9896               132.8249
 Red. masses --     14.3546                14.2448                14.6721
 Frc consts  --      0.0070                 0.0399                 0.1525
 IR Inten    --      1.2138                 0.7909                 1.2655

                      4                      5                      6
                      A                      A                      A
 Frequencies --    194.7128               223.0824               234.5744
 Red. masses --      9.0597                18.0038                 8.0770
 Frc consts  --      0.2024                 0.5279                 0.2619
 IR Inten    --      8.5429                 1.2171                 9.4882

                      7                      8                      9
                      A                      A                      A
 Frequencies --    275.5518               310.8576               318.2427
 Red. masses --     15.2603                 4.9188                18.2016
 Frc consts  --      0.6827                 0.2800                 1.0861
 IR Inten    --      1.4023                17.3649                 0.3404

                     10                     11                     12
                      A                      A                      A
 Frequencies --    358.1498               371.4859               436.7279
 Red. masses --      1.8845                17.8074                 4.1681
 Frc consts  --      0.1424                 1.4479                 0.4684
 IR Inten    --     56.4281                 0.1269                30.7749

                     13                     14                     15
                      A                      A                      A
 Frequencies --    485.0940               489.7080               539.4738
 Red. masses --     12.9422                 8.5149                17.8455
 Frc consts  --      1.7944                 1.2031                 3.0600
 IR Inten    --     13.8603                21.3350                28.3815

                     16                     17                     18
                      A                      A                      A
 Frequencies --    600.2936               609.6045               653.7661
 Red. masses --     17.3797                20.1232                17.3553
 Frc consts  --      3.6900                 4.4060                 4.3705
 IR Inten    --      3.5656               118.4263                30.2423

                     19                     20                     21
                      A                      A                      A
 Frequencies --    764.8116               825.6500              1006.0946
 Red. masses --     17.1258                17.1352                13.8188
 Frc consts  --      5.9022                 6.8823                 8.2413
 IR Inten    --     40.8865               218.5658                52.7929

                     22                     23                     24
                      A                      A                      A
 Frequencies --   1131.2896              1158.2495              1203.3193
 Red. masses --      1.1951                12.0969                15.9634
 Frc consts  --      0.9012                 9.5616                13.6187
 IR Inten    --    108.6747               239.6166                 6.9657

                     25                     26                     27
                      A                      A                      A
 Frequencies --   1219.1269              1249.6210              1253.9978
 Red. masses --     13.1297                13.7629                13.1803
 Frc consts  --     11.4975                12.6625                12.2115
 IR Inten    --    108.5955               333.4205               262.3072

                     28                     29                     30
                      A                      A                      A
 Frequencies --   1345.0083              1446.8388              3832.3891
 Red. masses --     12.6465                14.3404                 1.0662
 Frc consts  --     13.4794                17.6869                 9.2267
 IR Inten    --    106.7664               313.0017               161.6330

 - Thermochemistry -
 -------------------
 Temperature   298.150 Kelvin.  Pressure   1.00000 Atm.
 Atom     1 has atomic number  6 and mass  12.00000

 Molecular mass:   199.95666 amu.
 Principal axes and moments of inertia in atomic units:
                           1         2         3
     Eigenvalues --  1133.377802197.809582320.36539
           X            0.90365   0.42442  -0.05726
           Y            0.25548  -0.42693   0.86745
           Z           -0.34371   0.79850   0.49423
 This molecule is an asymmetric top.
 Rotational symmetry number  1.
 Warning -- assumption of classical behavior for rotation
           may cause significant error
 Rotational temperatures (Kelvin)      0.07642     0.03941     0.03733
 Rotational constants (GHZ):           1.59236     0.82115     0.77778
 Zero-point vibrational energy     136184.3 (Joules/Mol)
                                   32.54883 (Kcal/Mol)
 Warning -- explicit consideration of  17 degrees of freedom as
           vibrations may cause significant error
 Vibrational temperatures:     41.29    99.26   191.11   280.15   320.97
          (Kelvin)            337.50   396.46   447.25   457.88   515.30
                              534.49   628.35   697.94   704.58   776.18
                              863.69   877.08   940.62  1100.39  1187.93
                             1447.55  1627.67  1666.46  1731.31  1754.05
                             1797.93  1804.22  1935.17  2081.68  5513.95

 Zero-point correction=                           0.051870 (Hartree/Particle)
 Thermal correction to Energy=                    0.062301
 Thermal correction to Enthalpy=                  0.063245
 Thermal correction to Gibbs Free Energy=         0.014705
 Sum of electronic and zero-point Energies=          -1199.774176
 Sum of electronic and thermal Energies=             -1199.763745
 Sum of electronic and thermal Enthalpies=           -1199.762801
 Sum of electronic and thermal Free Energies=        -1199.811341

                     E (Thermal)             CV                S
                      KCal/Mol        Cal/Mol-Kelvin    Cal/Mol-Kelvin
 Total                   39.095             36.586            102.162
 Electronic               0.000              0.000              0.000
 Translational            0.889              2.981             41.783
 Rotational               0.889              2.981             30.137
 Vibrational             37.317             30.624             30.242
 Vibration     1          0.593              1.984              5.917
 Vibration     2          0.598              1.969              4.182
 Vibration     3          0.613              1.921              2.905
 Vibration     4          0.635              1.847              2.182
 Vibration     5          0.649              1.806              1.934
 Vibration     6          0.654              1.788              1.844
 Vibration     7          0.677              1.719              1.561
 Vibration     8          0.700              1.653              1.358
 Vibration     9          0.705              1.639              1.319
 Vibration    10          0.733              1.558              1.130
 Vibration    11          0.743              1.531              1.074
 Vibration    12          0.797              1.390              0.837
 Vibration    13          0.841              1.283              0.696
 Vibration    14          0.846              1.273              0.684
 Vibration    15          0.895              1.163              0.566
 Vibration    16          0.958              1.031              0.449
 Vibration    17          0.969              1.011              0.433

 Optimization completed.
    -- Stationary point found.
 Normal termination of Gaussian 16 at Fri May 23 04:30:05 2025.
