 Gaussian 16, Revision C.01,
 Gaussian 16:  ES64L-G16RevC.01  3-Jul-2019

 ----------------------------------------------------------------------
 #P wb97xd/6-311++G(d,p) Symm(None) scf(xqc) pop(None) freq opt(CalcFC)
 ----------------------------------------------------------------------

 ------------------------------
 Gaussian input prepared by ASE
 ------------------------------
 Symbolic Z-matrix:
 Charge =  0 Multiplicity = 1

 SCF Done:  E(RwB97XD) =  -1199.80010312     A.U. after   14 cycles
 SCF Done:  E(RwB97XD) =  -1199.81899274     A.U. after   13 cycles
 SCF Done:  E(RwB97XD) =  -1199.82161458     A.U. after   13 cycles
 SCF Done:  E(RwB97XD) =  -1199.82296117     A.U. after   14 cycles
 SCF Done:  E(RwB97XD) =  -1199.82383534     A.U. after   14 cycles
 SCF Done:  E(RwB97XD) =  -1199.82453595     A.U. after   12 cycles
 SCF Done:  E(RwB97XD) =  -1199.82556433     A.U. after   12 cycles
 SCF Done:  E(RwB97XD) =  -1199.82595485     A.U. after   12 cycles
 SCF Done:  E(RwB97XD) =  -1199.82596888     A.U. after   11 cycles
 SCF Done:  E(RwB97XD) =  -1199.82599706     A.U. after   11 cycles
 SCF Done:  E(RwB97XD) =  -1199.82601655     A.U. after   11 cycles
 SCF Done:  E(RwB97XD) =  -1199.82603784     A.U. after   12 cycles
 SCF Done:  E(RwB97XD) =  -1199.82604143     A.U. after   12 cycles
 SCF Done:  E(RwB97XD) =  -1199.82604593     A.U. after   11 cycles
 SCF Done:  E(RwB97XD) =  -1199.82604660     A.U. after   10 cycles
 Optimization completed.
    -- Stationary point found.
 Normal termination of Gaussian 16 at Fri May 23 04:11:44 2025.

 ----------------------------------------------------------------------
 #P Geom=AllCheck Guess=TCheck SCRF=Check GenChk RwB97XD/6-311++G(d,p)
 Freq
 ----------------------------------------------------------------------

 Structure from the checkpoint file:  "2003846667223680600001_r12_insertion_R_9_1_2_IRC_R_prod.chk"
 ------------------------------
 Gaussian input prepared by ASE
 ------------------------------
 Charge =  0 Multiplicity = 1

                          Input orientation:
 ---------------------------------------------------------------------
 Center     Atomic      Atomic             Coordinates (Angstroms)
 Number     Number       Type             X           Y           Z
 ---------------------------------------------------------------------
      1          6           0       -1.341656   -0.360061    0.571245
      2          6           0       -0.348403    0.482164   -0.279262
      3          9           0       -0.723133    0.424597   -1.565094
      4          9           0       -0.379975    1.746662    0.131933
      5         16           0        1.426724   -0.117642   -0.186989
      6          8           0        1.987112    0.336759    1.043730
      7          8           0        1.433590   -1.488598   -0.615049
      8          8           0        2.041779    0.803430   -1.345695
      9          9           0       -0.906907   -0.453906    1.821619
     10          9           0       -2.526077    0.243373    0.568921
     11          9           0       -1.478397   -1.574651    0.061752
     12          1           0        1.948196    0.371574   -2.205030
 ---------------------------------------------------------------------

 SCF Done:  E(RwB97XD) =  -1199.82604660     A.U. after    1 cycles

 Isotropic polarizability for W=    0.000000       55.69 Bohr**3.
 End of Minotr F.D. properties file   721 does not exist.

                      1                      2                      3
                      A                      A                      A
 Frequencies --     29.8393                67.7171               131.7178
 Red. masses --     14.3727                14.2330                14.6913
 Frc consts  --      0.0075                 0.0385                 0.1502
 IR Inten    --      1.2030                 0.7950                 1.2451

                      4                      5                      6
                      A                      A                      A
 Frequencies --    194.9424               223.2765               234.6468
 Red. masses --      9.1928                17.8858                 8.0611
 Frc consts  --      0.2058                 0.5253                 0.2615
 IR Inten    --      8.4249                 1.2286                 9.5296

                      7                      8                      9
                      A                      A                      A
 Frequencies --    275.4348               311.2637               318.1751
 Red. masses --     15.2865                 5.1249                18.2002
 Frc consts  --      0.6833                 0.2925                 1.0856
 IR Inten    --      1.4181                16.3088                 0.3429

                     10                     11                     12
                      A                      A                      A
 Frequencies --    359.4690               371.4580               436.9513
 Red. masses --      1.8729                17.6517                 4.0946
 Frc consts  --      0.1426                 1.4350                 0.4606
 IR Inten    --     56.6587                 0.1767                31.3012

                     13                     14                     15
                      A                      A                      A
 Frequencies --    484.8971               489.7896               539.4444
 Red. masses --     12.7667                 8.4955                17.8448
 Frc consts  --      1.7686                 1.2008                 3.0595
 IR Inten    --     13.5936                21.8199                28.2455

                     16                     17                     18
                      A                      A                      A
 Frequencies --    600.2981               609.7829               653.8219
 Red. masses --     17.3749                20.1269                17.3642
 Frc consts  --      3.6890                 4.4094                 4.3735
 IR Inten    --      3.5077               118.3100                30.5913

                     19                     20                     21
                      A                      A                      A
 Frequencies --    764.6666               825.2409              1005.8604
 Red. masses --     17.1261                17.1436                13.8168
 Frc consts  --      5.9000                 6.8788                 8.2363
 IR Inten    --     41.0189               218.4203                52.5980

                     22                     23                     24
                      A                      A                      A
 Frequencies --   1131.0574              1158.2163              1203.8345
 Red. masses --      1.1963                11.9205                15.9697
 Frc consts  --      0.9017                 9.4216                13.6358
 IR Inten    --    110.3207               237.4323                 6.8660

                     25                     26                     27
                      A                      A                      A
 Frequencies --   1219.3616              1249.5468              1253.7793
 Red. masses --     13.1313                13.8034                13.1773
 Frc consts  --     11.5033                12.6981                12.2045
 IR Inten    --    110.5805               333.2549               261.4638

                     28                     29                     30
                      A                      A                      A
 Frequencies --   1344.9413              1447.2657              3832.9485
 Red. masses --     12.6493                14.3697                 1.0663
 Frc consts  --     13.4811                17.7335                 9.2295
 IR Inten    --    106.5965               312.7368               161.3230

 - Thermochemistry -
 -------------------
 Temperature   298.150 Kelvin.  Pressure   1.00000 Atm.
 Atom     1 has atomic number  6 and mass  12.00000

 Molecular mass:   199.95666 amu.
 Principal axes and moments of inertia in atomic units:
                           1         2         3
     Eigenvalues --  1133.551532197.309712320.08777
           X            0.95351  -0.24813   0.17101
           Y            0.09662   0.78925   0.60642
           Z           -0.28544  -0.56170   0.77654
 This molecule is an asymmetric top.
 Rotational symmetry number  1.
 Warning -- assumption of classical behavior for rotation
           may cause significant error
 Rotational temperatures (Kelvin)      0.07641     0.03942     0.03733
 Rotational constants (GHZ):           1.59211     0.82134     0.77788
 Zero-point vibrational energy     136192.7 (Joules/Mol)
                                   32.55084 (Kcal/Mol)
 Warning -- explicit consideration of  17 degrees of freedom as
           vibrations may cause significant error
 Vibrational temperatures:     42.93    97.43   189.51   280.48   321.25
          (Kelvin)            337.60   396.29   447.84   457.78   517.20
                              534.45   628.68   697.66   704.70   776.14
                              863.70   877.34   940.70  1100.18  1187.34
                             1447.21  1627.34  1666.41  1732.05  1754.39
                             1797.82  1803.91  1935.07  2082.29  5514.76

 Zero-point correction=                           0.051873 (Hartree/Particle)
 Thermal correction to Energy=                    0.062304
 Thermal correction to Enthalpy=                  0.063248
 Thermal correction to Gibbs Free Energy=         0.014725
 Sum of electronic and zero-point Energies=          -1199.774174
 Sum of electronic and thermal Energies=             -1199.763743
 Sum of electronic and thermal Enthalpies=           -1199.762798
 Sum of electronic and thermal Free Energies=        -1199.811322

                     E (Thermal)             CV                S
                      KCal/Mol        Cal/Mol-Kelvin    Cal/Mol-Kelvin
 Total                   39.096             36.584            102.127
 Electronic               0.000              0.000              0.000
 Translational            0.889              2.981             41.783
 Rotational               0.889              2.981             30.137
 Vibrational             37.319             30.622             30.206
 Vibration     1          0.594              1.984              5.840
 Vibration     2          0.598              1.970              4.219
 Vibration     3          0.612              1.922              2.921
 Vibration     4          0.636              1.847              2.180
 Vibration     5          0.649              1.806              1.932
 Vibration     6          0.654              1.788              1.843
 Vibration     7          0.677              1.719              1.562
 Vibration     8          0.700              1.652              1.356
 Vibration     9          0.705              1.639              1.319
 Vibration    10          0.734              1.556              1.124
 Vibration    11          0.743              1.531              1.074
 Vibration    12          0.797              1.390              0.836
 Vibration    13          0.841              1.284              0.697
 Vibration    14          0.846              1.273              0.684
 Vibration    15          0.894              1.163              0.566
 Vibration    16          0.958              1.031              0.449
 Vibration    17          0.969              1.011              0.433

 Optimization completed.
    -- Stationary point found.
 Normal termination of Gaussian 16 at Fri May 23 04:13:04 2025.
