 Gaussian 16, Revision C.01,
 Gaussian 16:  ES64L-G16RevC.01  3-Jul-2019

 ----------------------------------------------------------------------
 #P wb97xd/6-311++G(d,p) Symm(None) scf(xqc) pop(None) opt(NoFreeze,TS,
 CalcAll,NoEigentest,MaxCycle=999)
 ----------------------------------------------------------------------

 ------------------------------
 Gaussian input prepared by ASE
 ------------------------------
 Symbolic Z-matrix:
 Charge =  0 Multiplicity = 1

 SCF Done:  E(RwB97XD) =  -1199.46465774     A.U. after   28 cycles
 SCF Done:  E(RwB97XD) =  -1199.52565813     A.U. after   22 cycles
 SCF Done:  E(RwB97XD) =  -1199.57243787     A.U. after   20 cycles
 SCF Done:  E(RwB97XD) =  -1199.60727710     A.U. after   18 cycles
 SCF Done:  E(RwB97XD) =  -1199.62124821     A.U. after   18 cycles
 SCF Done:  E(RwB97XD) =  -1199.62457349     A.U. after   19 cycles
 SCF Done:  E(RwB97XD) =  -1199.62546630     A.U. after   17 cycles
 SCF Done:  E(RwB97XD) =  -1199.62990572     A.U. after   19 cycles
 SCF Done:  E(RwB97XD) =  -1199.63868384     A.U. after   19 cycles
 SCF Done:  E(RwB97XD) =  -1199.63945926     A.U. after   19 cycles
 SCF Done:  E(RwB97XD) =  -1199.64481837     A.U. after   18 cycles
 SCF Done:  E(RwB97XD) =  -1199.65247517     A.U. after   18 cycles
 SCF Done:  E(RwB97XD) =  -1199.65293078     A.U. after   16 cycles
 SCF Done:  E(RwB97XD) =  -1199.65605973     A.U. after   16 cycles
 SCF Done:  E(RwB97XD) =  -1199.65980894     A.U. after   17 cycles
 SCF Done:  E(RwB97XD) =  -1199.66247507     A.U. after   16 cycles
 SCF Done:  E(RwB97XD) =  -1199.66348087     A.U. after   15 cycles
 SCF Done:  E(RwB97XD) =  -1199.66366241     A.U. after   14 cycles
 SCF Done:  E(RwB97XD) =  -1199.66367504     A.U. after   13 cycles
 SCF Done:  E(RwB97XD) =  -1199.66367519     A.U. after   11 cycles

 Isotropic polarizability for W=    0.000000       72.64 Bohr**3.
 End of Minotr F.D. properties file   721 does not exist.

 Optimization completed.
    -- Stationary point found.

                          Input orientation:
 ---------------------------------------------------------------------
 Center     Atomic      Atomic             Coordinates (Angstroms)
 Number     Number       Type             X           Y           Z
 ---------------------------------------------------------------------
      1          6           0       -1.061763   -0.146890    1.024145
      2          6           0       -0.426978    0.640948    0.060140
      3          9           0       -0.568073    0.285147   -1.200221
      4          9           0       -0.474803    1.953604    0.240388
      5         16           0        1.847095    0.033097    0.541032
      6          8           0        2.652575    0.686190    1.541196
      7          8           0        2.047132   -1.201201   -0.154817
      8          8           0        1.936130    1.129863   -0.699098
      9          9           0       -1.448539    0.325000    2.143498
     10          9           0        0.765937   -0.744654    1.873622
     11          9           0       -1.424654   -1.341343    0.773447
     12          1           0        2.206364    1.978271   -0.325035
 ---------------------------------------------------------------------

 ******    1 imaginary frequencies (negative Signs) ******

                      1                      2                      3
                      A                      A                      A
 Frequencies --   -574.5448                34.0442                62.3905
 Red. masses --     12.7295                15.3562                12.1143
 Frc consts  --      2.4758                 0.0105                 0.0278
 IR Inten    --    193.7140                 1.8122                 2.6420

                      4                      5                      6
                      A                      A                      A
 Frequencies --    160.5728               170.4837               203.3933
 Red. masses --     18.7851                17.0890                17.4862
 Frc consts  --      0.2854                 0.2926                 0.4262
 IR Inten    --     17.0494                11.0670                 0.1697

                      7                      8                      9
                      A                      A                      A
 Frequencies --    210.9735               240.2907               274.4439
 Red. masses --     17.4334                15.7594                10.9716
 Frc consts  --      0.4572                 0.5361                 0.4869
 IR Inten    --      2.0117                 3.1451                 8.2001

                     10                     11                     12
                      A                      A                      A
 Frequencies --    318.6120               369.8634               388.6096
 Red. masses --      8.0171                 1.8497                13.8271
 Frc consts  --      0.4795                 0.1491                 1.2303
 IR Inten    --      9.4921                29.9702                16.7799

                     13                     14                     15
                      A                      A                      A
 Frequencies --    406.9448               444.1000               481.2120
 Red. masses --     15.6393                 5.4819                 3.7397
 Frc consts  --      1.5259                 0.6370                 0.5102
 IR Inten    --     26.8561               226.2801                 3.5605

                     16                     17                     18
                      A                      A                      A
 Frequencies --    512.5125               548.2048               560.2158
 Red. masses --     10.3060                16.7499                14.3375
 Frc consts  --      1.5950                 2.9658                 2.6511
 IR Inten    --    240.3972                 1.3582               140.4735

                     19                     20                     21
                      A                      A                      A
 Frequencies --    594.5124               646.5907               717.9563
 Red. masses --     16.5566                13.2640                16.7349
 Frc consts  --      3.4478                 3.2673                 5.0824
 IR Inten    --      4.3052                 9.2863               182.9979

                     22                     23                     24
                      A                      A                      A
 Frequencies --    813.0006              1117.3041              1148.5184
 Red. masses --     17.7510                 9.7400                 1.2706
 Frc consts  --      6.9128                 7.1639                 0.9875
 IR Inten    --     59.2858               228.0655               100.8082

                     25                     26                     27
                      A                      A                      A
 Frequencies --   1209.9043              1306.1657              1424.5479
 Red. masses --     13.7605                13.1150                12.4776
 Frc consts  --     11.8683                13.1830                14.9188
 IR Inten    --    321.6457               155.7021               186.8170

                     28                     29                     30
                      A                      A                      A
 Frequencies --   1478.9882              1606.1242              3836.4040
 Red. masses --     13.2375                12.4007                 1.0664
 Frc consts  --     17.0603                18.8476                 9.2471
 IR Inten    --    342.0300               814.4145               166.0083

 - Thermochemistry -
 -------------------
 Temperature   298.150 Kelvin.  Pressure   1.00000 Atm.
 Atom     1 has atomic number  6 and mass  12.00000

 Molecular mass:   199.95666 amu.
 Principal axes and moments of inertia in atomic units:
                           1         2         3
     Eigenvalues --  1312.243512074.175062351.89676
           X            0.98382   0.17339   0.04511
           Y            0.07501  -0.62725   0.77520
           Z           -0.16271   0.75927   0.63010
 This molecule is an asymmetric top.
 Rotational symmetry number  1.
 Warning -- assumption of classical behavior for rotation
           may cause significant error
 Rotational temperatures (Kelvin)      0.06600     0.04176     0.03683
 Rotational constants (GHZ):           1.37531     0.87010     0.76736
    1 imaginary frequencies ignored.
 Zero-point vibrational energy     127323.8 (Joules/Mol)
                                   30.43113 (Kcal/Mol)
 Warning -- explicit consideration of  18 degrees of freedom as
           vibrations may cause significant error
 Vibrational temperatures:     48.98    89.77   231.03   245.29   292.64
          (Kelvin)            303.54   345.72   394.86   458.41   532.15
                              559.12   585.50   638.96   692.36   737.39
                              788.74   806.03   855.37   930.30  1032.98
                             1169.73  1607.55  1652.46  1740.78  1879.28
                             2049.61  2127.93  2310.85  5519.73

 Zero-point correction=                           0.048495 (Hartree/Particle)
 Thermal correction to Energy=                    0.059314
 Thermal correction to Enthalpy=                  0.060258
 Thermal correction to Gibbs Free Energy=         0.011058
 Sum of electronic and zero-point Energies=          -1199.615180
 Sum of electronic and thermal Energies=             -1199.604361
 Sum of electronic and thermal Enthalpies=           -1199.603417
 Sum of electronic and thermal Free Energies=        -1199.652617

                     E (Thermal)             CV                S
                      KCal/Mol        Cal/Mol-Kelvin    Cal/Mol-Kelvin
 Total                   37.220             37.598            103.550
 Electronic               0.000              0.000              0.000
 Translational            0.889              2.981             41.783
 Rotational               0.889              2.981             30.238
 Vibrational             35.443             31.636             31.528
 Vibration     1          0.594              1.983              5.579
 Vibration     2          0.597              1.972              4.380
 Vibration     3          0.622              1.891              2.543
 Vibration     4          0.626              1.879              2.430
 Vibration     5          0.639              1.835              2.102
 Vibration     6          0.643              1.824              2.035
 Vibration     7          0.657              1.779              1.801
 Vibration     8          0.677              1.721              1.568
 Vibration     9          0.705              1.638              1.317
 Vibration    10          0.742              1.534              1.080
 Vibration    11          0.757              1.495              1.005
 Vibration    12          0.772              1.455              0.937
 Vibration    13          0.804              1.374              0.814
 Vibration    14          0.838              1.292              0.707
 Vibration    15          0.868              1.222              0.628
 Vibration    16          0.903              1.144              0.548
 Vibration    17          0.916              1.117              0.523
 Vibration    18          0.952              1.043              0.459

 Normal termination of Gaussian 16 at Fri May 23 03:52:40 2025.
