 Gaussian 16, Revision C.01,
 Gaussian 16:  ES64L-G16RevC.01  3-Jul-2019

 ----------------------------------------------------------------------
 #P wb97xd/6-311++G(d,p) Symm(None) scf(xqc) pop(None) opt(NoFreeze,TS,
 CalcAll,NoEigentest,MaxCycle=999)
 ----------------------------------------------------------------------

 ------------------------------
 Gaussian input prepared by ASE
 ------------------------------
 Symbolic Z-matrix:
 Charge =  0 Multiplicity = 1

 SCF Done:  E(RwB97XD) =  -1199.58445886     A.U. after   17 cycles
 SCF Done:  E(RwB97XD) =  -1199.61900130     A.U. after   17 cycles
 SCF Done:  E(RwB97XD) =  -1199.64263358     A.U. after   17 cycles
 SCF Done:  E(RwB97XD) =  -1199.65313981     A.U. after   17 cycles
 SCF Done:  E(RwB97XD) =  -1199.65647636     A.U. after   16 cycles
 SCF Done:  E(RwB97XD) =  -1199.65747777     A.U. after   15 cycles
 SCF Done:  E(RwB97XD) =  -1199.65753473     A.U. after   14 cycles
 SCF Done:  E(RwB97XD) =  -1199.65753496     A.U. after    9 cycles

 Isotropic polarizability for W=    0.000000       62.41 Bohr**3.
 End of Minotr F.D. properties file   721 does not exist.

 Optimization completed.
    -- Stationary point found.

                          Input orientation:
 ---------------------------------------------------------------------
 Center     Atomic      Atomic             Coordinates (Angstroms)
 Number     Number       Type             X           Y           Z
 ---------------------------------------------------------------------
      1          6           0       -0.657138    0.113540    1.460719
      2          6           0       -0.240013    0.156737   -0.041892
      3          9           0       -0.641271   -0.860341   -0.761261
      4          9           0       -0.727590    1.272293   -0.585100
      5         16           0        1.578070    0.301842    0.372728
      6          8           0        1.304107    0.773386    1.759009
      7          8           0        2.654114   -0.499062   -0.138206
      8          8           0        1.823859    1.735118   -0.368358
      9          9           0        0.763925   -1.421010    1.162086
     10          9           0       -1.036346    1.228384    1.972878
     11          9           0       -1.307423   -0.831776    1.994929
     12          1           0        2.536128    1.628915   -1.009239
 ---------------------------------------------------------------------

 ******    1 imaginary frequencies (negative Signs) ******

                      1                      2                      3
                      A                      A                      A
 Frequencies --   -359.4910               111.4436               171.8353
 Red. masses --     15.8025                12.6775                12.4776
 Frc consts  --      1.2032                 0.0928                 0.2171
 IR Inten    --     14.5159                13.1309                94.0841

                      4                      5                      6
                      A                      A                      A
 Frequencies --    183.4935               197.5289               241.9460
 Red. masses --     14.3399                16.3957                15.8963
 Frc consts  --      0.2845                 0.3769                 0.5483
 IR Inten    --     10.3777               110.8440                 4.7389

                      7                      8                      9
                      A                      A                      A
 Frequencies --    269.9228               289.8499               313.1594
 Red. masses --     14.5562                18.2671                13.9546
 Frc consts  --      0.6249                 0.9042                 0.8063
 IR Inten    --     25.0477                 5.7217                41.0882

                     10                     11                     12
                      A                      A                      A
 Frequencies --    333.8762               377.7112               396.6492
 Red. masses --      1.4013                 7.3131                15.1017
 Frc consts  --      0.0920                 0.6147                 1.3999
 IR Inten    --     89.9288                19.7956                41.6441

                     13                     14                     15
                      A                      A                      A
 Frequencies --    409.5621               478.8036               509.4085
 Red. masses --     14.4460                 4.9218                12.4849
 Frc consts  --      1.4277                 0.6648                 1.9088
 IR Inten    --     39.2574                15.1829                15.3197

                     16                     17                     18
                      A                      A                      A
 Frequencies --    536.9926               567.6114               626.1368
 Red. masses --     14.5103                16.4517                14.8172
 Frc consts  --      2.4653                 3.1229                 3.4226
 IR Inten    --     29.5526               179.6183                 7.3646

                     19                     20                     21
                      A                      A                      A
 Frequencies --    669.7080               754.3013               769.9380
 Red. masses --     15.4814                14.8976                17.8282
 Frc consts  --      4.0910                 4.9941                 6.2269
 IR Inten    --     52.8258                43.8811               230.6256

                     22                     23                     24
                      A                      A                      A
 Frequencies --    954.6684              1069.8646              1139.1987
 Red. masses --     13.3907                16.5615                 2.0191
 Frc consts  --      7.1905                11.1688                 1.5439
 IR Inten    --     55.2943               219.3828               172.1485

                     25                     26                     27
                      A                      A                      A
 Frequencies --   1144.4830              1276.9924              1346.8518
 Red. masses --      2.7077                12.6411                13.1945
 Frc consts  --      2.0896                12.1454                14.1020
 IR Inten    --     39.6580               290.1790               223.0772

                     28                     29                     30
                      A                      A                      A
 Frequencies --   1349.1664              1449.3653              3860.4499
 Red. masses --      9.1094                13.2896                 1.0664
 Frc consts  --      9.7694                16.4482                 9.3640
 IR Inten    --    390.8815               312.5372               166.4668

 - Thermochemistry -
 -------------------
 Temperature   298.150 Kelvin.  Pressure   1.00000 Atm.
 Atom     1 has atomic number  6 and mass  12.00000

 Molecular mass:   199.95666 amu.
 Principal axes and moments of inertia in atomic units:
                           1         2         3
     Eigenvalues --  1256.351971913.071842019.09737
           X            0.89649  -0.32788   0.29801
           Y            0.14004   0.84780   0.51149
           Z           -0.42036  -0.41681   0.80596
 This molecule is an asymmetric top.
 Rotational symmetry number  1.
 Warning -- assumption of classical behavior for rotation
           may cause significant error
 Rotational temperatures (Kelvin)      0.06894     0.04527     0.04290
 Rotational constants (GHZ):           1.43649     0.94337     0.89384
    1 imaginary frequencies ignored.
 Zero-point vibrational energy     130398.5 (Joules/Mol)
                                   31.16598 (Kcal/Mol)
 Warning -- explicit consideration of  16 degrees of freedom as
           vibrations may cause significant error
 Vibrational temperatures:    160.34   247.23   264.01   284.20   348.11
          (Kelvin)            388.36   417.03   450.57   480.37   543.44
                              570.69   589.27   688.89   732.93   772.61
                              816.67   900.87   963.56  1085.27  1107.77
                             1373.55  1539.30  1639.05  1646.66  1837.31
                             1937.82  1941.15  2085.31  5554.33

 Zero-point correction=                           0.049666 (Hartree/Particle)
 Thermal correction to Energy=                    0.059525
 Thermal correction to Enthalpy=                  0.060469
 Thermal correction to Gibbs Free Energy=         0.014718
 Sum of electronic and zero-point Energies=          -1199.607869
 Sum of electronic and thermal Energies=             -1199.598010
 Sum of electronic and thermal Enthalpies=           -1199.597066
 Sum of electronic and thermal Free Energies=        -1199.642817

                     E (Thermal)             CV                S
                      KCal/Mol        Cal/Mol-Kelvin    Cal/Mol-Kelvin
 Total                   37.352             36.204             96.291
 Electronic               0.000              0.000              0.000
 Translational            0.889              2.981             41.783
 Rotational               0.889              2.981             29.963
 Vibrational             35.575             30.242             24.544
 Vibration     1          0.607              1.940              3.244
 Vibration     2          0.626              1.877              2.415
 Vibration     3          0.631              1.862              2.293
 Vibration     4          0.637              1.843              2.156
 Vibration     5          0.658              1.776              1.789
 Vibration     6          0.674              1.729              1.597
 Vibration     7          0.686              1.693              1.475
 Vibration     8          0.701              1.649              1.346
 Vibration     9          0.715              1.608              1.241
 Vibration    10          0.748              1.518              1.048
 Vibration    11          0.763              1.477              0.975
 Vibration    12          0.774              1.449              0.928
 Vibration    13          0.835              1.297              0.713
 Vibration    14          0.865              1.229              0.635
 Vibration    15          0.892              1.168              0.572
 Vibration    16          0.924              1.101              0.509

 Normal termination of Gaussian 16 at Fri May 23 03:31:36 2025.
