 Gaussian 16, Revision C.01,
 Gaussian 16:  ES64L-G16RevC.01  3-Jul-2019

 ----------------------------------------------------------------------
 #P wb97xd/6-311++G(d,p) Symm(None) scf(xqc) pop(None) freq opt(CalcFC)
 ----------------------------------------------------------------------

 ------------------------------
 Gaussian input prepared by ASE
 ------------------------------
 Symbolic Z-matrix:
 Charge =  0 Multiplicity = 1

 SCF Done:  E(RwB97XD) =  -1199.76862720     A.U. after   15 cycles
 SCF Done:  E(RwB97XD) =  -1199.78542540     A.U. after   13 cycles
 SCF Done:  E(RwB97XD) =  -1199.80636361     A.U. after   13 cycles
 SCF Done:  E(RwB97XD) =  -1199.81372980     A.U. after   13 cycles
 SCF Done:  E(RwB97XD) =  -1199.80990204     A.U. after   13 cycles
 SCF Done:  E(RwB97XD) =  -1199.81547672     A.U. after   12 cycles
 SCF Done:  E(RwB97XD) =  -1199.81608315     A.U. after   12 cycles
 SCF Done:  E(RwB97XD) =  -1199.81804971     A.U. after   13 cycles
 SCF Done:  E(RwB97XD) =  -1199.80785595     A.U. after   13 cycles
 SCF Done:  E(RwB97XD) =  -1199.82058549     A.U. after   13 cycles
 SCF Done:  E(RwB97XD) =  -1199.82565437     A.U. after   12 cycles
 SCF Done:  E(RwB97XD) =  -1199.82572379     A.U. after   11 cycles
 SCF Done:  E(RwB97XD) =  -1199.82578088     A.U. after   11 cycles
 SCF Done:  E(RwB97XD) =  -1199.82582740     A.U. after   11 cycles
 SCF Done:  E(RwB97XD) =  -1199.82586737     A.U. after   11 cycles
 SCF Done:  E(RwB97XD) =  -1199.82587564     A.U. after   11 cycles
 SCF Done:  E(RwB97XD) =  -1199.82587883     A.U. after   10 cycles
 SCF Done:  E(RwB97XD) =  -1199.82587940     A.U. after    9 cycles
 SCF Done:  E(RwB97XD) =  -1199.82587948     A.U. after    8 cycles
 Optimization completed.
    -- Stationary point found.
 Normal termination of Gaussian 16 at Fri May 23 04:25:10 2025.

 ----------------------------------------------------------------------
 #P Geom=AllCheck Guess=TCheck SCRF=Check GenChk RwB97XD/6-311++G(d,p)
 Freq
 ----------------------------------------------------------------------

 Structure from the checkpoint file:  "2003846667223680600001_r12_insertion_R_3_2_5_IRC_R_prod.chk"
 ------------------------------
 Gaussian input prepared by ASE
 ------------------------------
 Charge =  0 Multiplicity = 1

                          Input orientation:
 ---------------------------------------------------------------------
 Center     Atomic      Atomic             Coordinates (Angstroms)
 Number     Number       Type             X           Y           Z
 ---------------------------------------------------------------------
      1          6           0       -1.251980   -0.020233    0.874778
      2          6           0       -0.454784   -0.467049   -0.384945
      3          9           0       -0.430786   -1.798609   -0.430728
      4          9           0       -1.060623    0.005728   -1.473151
      5         16           0        1.331713    0.111297   -0.412917
      6          8           0        1.845687   -0.009937    0.923207
      7          8           0        1.929756   -0.500476   -1.554958
      8          8           0        1.132247    1.659032   -0.769295
      9          9           0       -2.543744   -0.250698    0.683546
     10          9           0       -0.849153   -0.675156    1.948028
     11          9           0       -1.082292    1.293562    1.077683
     12          1           0        1.024223    2.179866    0.037601
 ---------------------------------------------------------------------

 SCF Done:  E(RwB97XD) =  -1199.82587948     A.U. after    1 cycles

 Isotropic polarizability for W=    0.000000       55.68 Bohr**3.
 End of Minotr F.D. properties file   721 does not exist.

                      1                      2                      3
                      A                      A                      A
 Frequencies --     55.9643                66.3541               137.5874
 Red. masses --     12.5756                16.6924                12.6393
 Frc consts  --      0.0232                 0.0433                 0.1410
 IR Inten    --      1.6875                 0.6474                 4.2676

                      4                      5                      6
                      A                      A                      A
 Frequencies --    200.3695               222.9519               238.7838
 Red. masses --     12.1372                13.7876                10.3357
 Frc consts  --      0.2871                 0.4038                 0.3472
 IR Inten    --      5.1612                 3.6612                 2.4577

                      7                      8                      9
                      A                      A                      A
 Frequencies --    277.2629               307.9728               313.6372
 Red. masses --     17.2704                 6.9687                 5.6022
 Frc consts  --      0.7822                 0.3894                 0.3247
 IR Inten    --      5.8272                12.3353                20.0301

                     10                     11                     12
                      A                      A                      A
 Frequencies --    341.4283               380.4109               439.3676
 Red. masses --      2.4335                 5.0998                13.3959
 Frc consts  --      0.1671                 0.4348                 1.5236
 IR Inten    --     51.4669                24.6579                 9.8202

                     13                     14                     15
                      A                      A                      A
 Frequencies --    455.9905               510.4192               537.9337
 Red. masses --      4.0049                16.3451                17.8481
 Frc consts  --      0.4906                 2.5090                 3.0430
 IR Inten    --     36.7473                 9.4530                26.1400

                     16                     17                     18
                      A                      A                      A
 Frequencies --    599.2228               609.1963               656.2163
 Red. masses --     17.8021                20.4643                16.1926
 Frc consts  --      3.7662                 4.4747                 4.1083
 IR Inten    --      2.8678               119.0871                26.6476

                     19                     20                     21
                      A                      A                      A
 Frequencies --    763.6312               834.7755              1002.7496
 Red. masses --     17.2872                17.4025                12.7502
 Frc consts  --      5.9394                 7.1450                 7.5535
 IR Inten    --     18.7117               193.0847               101.0824

                     22                     23                     24
                      A                      A                      A
 Frequencies --   1136.0758              1155.6860              1209.0505
 Red. masses --      1.2122                13.2644                13.7912
 Frc consts  --      0.9218                10.4380                11.8780
 IR Inten    --    136.8883               154.4772                80.7614

                     25                     26                     27
                      A                      A                      A
 Frequencies --   1226.7948              1228.2292              1262.3263
 Red. masses --     12.4077                13.2121                13.3272
 Frc consts  --     11.0023                11.7431                12.5122
 IR Inten    --    133.2071               185.9710               373.9860

                     28                     29                     30
                      A                      A                      A
 Frequencies --   1348.6108              1443.5627              3829.8510
 Red. masses --     12.6984                14.0381                 1.0663
 Frc consts  --     13.6073                17.2358                 9.2147
 IR Inten    --    113.4482               294.7962               150.7318

 - Thermochemistry -
 -------------------
 Temperature   298.150 Kelvin.  Pressure   1.00000 Atm.
 Atom     1 has atomic number  6 and mass  12.00000

 Molecular mass:   199.95666 amu.
 Principal axes and moments of inertia in atomic units:
                           1         2         3
     Eigenvalues --  1152.588832137.625492288.71899
           X            0.89105   0.30262  -0.33830
           Y            0.09490   0.60465   0.79082
           Z           -0.44387   0.73677  -0.51005
 This molecule is an asymmetric top.
 Rotational symmetry number  1.
 Warning -- assumption of classical behavior for rotation
           may cause significant error
 Rotational temperatures (Kelvin)      0.07515     0.04052     0.03784
 Rotational constants (GHZ):           1.56582     0.84427     0.78854
 Zero-point vibrational energy     136328.9 (Joules/Mol)
                                   32.58339 (Kcal/Mol)
 Warning -- explicit consideration of  17 degrees of freedom as
           vibrations may cause significant error
 Vibrational temperatures:     80.52    95.47   197.96   288.29   320.78
          (Kelvin)            343.56   398.92   443.10   451.25   491.24
                              547.33   632.15   656.07   734.38   773.97
                              862.15   876.50   944.15  1098.69  1201.06
                             1442.73  1634.56  1662.77  1739.55  1765.08
                             1767.15  1816.21  1940.35  2076.96  5510.30

 Zero-point correction=                           0.051925 (Hartree/Particle)
 Thermal correction to Energy=                    0.062301
 Thermal correction to Enthalpy=                  0.063245
 Thermal correction to Gibbs Free Energy=         0.015339
 Sum of electronic and zero-point Energies=          -1199.773955
 Sum of electronic and thermal Energies=             -1199.763578
 Sum of electronic and thermal Enthalpies=           -1199.762634
 Sum of electronic and thermal Free Energies=        -1199.810541

                     E (Thermal)             CV                S
                      KCal/Mol        Cal/Mol-Kelvin    Cal/Mol-Kelvin
 Total                   39.094             36.589            100.827
 Electronic               0.000              0.000              0.000
 Translational            0.889              2.981             41.783
 Rotational               0.889              2.981             30.112
 Vibrational             37.317             30.627             28.932
 Vibration     1          0.596              1.975              4.595
 Vibration     2          0.598              1.970              4.259
 Vibration     3          0.614              1.916              2.837
 Vibration     4          0.638              1.839              2.130
 Vibration     5          0.649              1.806              1.935
 Vibration     6          0.657              1.781              1.812
 Vibration     7          0.678              1.716              1.550
 Vibration     8          0.698              1.659              1.373
 Vibration     9          0.701              1.648              1.343
 Vibration    10          0.721              1.593              1.205
 Vibration    11          0.750              1.512              1.038
 Vibration    12          0.799              1.384              0.829
 Vibration    13          0.814              1.348              0.778
 Vibration    14          0.866              1.227              0.633
 Vibration    15          0.893              1.166              0.570
 Vibration    16          0.957              1.033              0.451
 Vibration    17          0.968              1.012              0.434

 Optimization completed.
    -- Stationary point found.
 Normal termination of Gaussian 16 at Fri May 23 04:26:32 2025.
