 Gaussian 16, Revision C.01,
 Gaussian 16:  ES64L-G16RevC.01  3-Jul-2019

 ----------------------------------------------------------------------
 #P wb97xd/6-311++G(d,p) Symm(None) scf(xqc) pop(None) freq opt(CalcFC)
 ----------------------------------------------------------------------

 ------------------------------
 Gaussian input prepared by ASE
 ------------------------------
 Symbolic Z-matrix:
 Charge =  0 Multiplicity = 1

 SCF Done:  E(RwB97XD) =  -1199.81317359     A.U. after   14 cycles
 SCF Done:  E(RwB97XD) =  -1199.82231154     A.U. after   13 cycles
 SCF Done:  E(RwB97XD) =  -1199.82388978     A.U. after   13 cycles
 SCF Done:  E(RwB97XD) =  -1199.82454582     A.U. after   13 cycles
 SCF Done:  E(RwB97XD) =  -1199.81895310     A.U. after   15 cycles
 SCF Done:  E(RwB97XD) =  -1199.82469223     A.U. after   13 cycles
 SCF Done:  E(RwB97XD) =  -1199.82505455     A.U. after   13 cycles
 SCF Done:  E(RwB97XD) =  -1199.82484988     A.U. after   12 cycles
 SCF Done:  E(RwB97XD) =  -1199.82553353     A.U. after   12 cycles
 SCF Done:  E(RwB97XD) =  -1199.82576556     A.U. after   12 cycles
 SCF Done:  E(RwB97XD) =  -1199.82587063     A.U. after   12 cycles
 SCF Done:  E(RwB97XD) =  -1199.82587836     A.U. after   10 cycles
 SCF Done:  E(RwB97XD) =  -1199.82587989     A.U. after   11 cycles
 SCF Done:  E(RwB97XD) =  -1199.82588077     A.U. after    9 cycles
 Optimization completed.
    -- Stationary point found.
 Normal termination of Gaussian 16 at Fri May 23 04:15:36 2025.

 ----------------------------------------------------------------------
 #P Geom=AllCheck Guess=TCheck SCRF=Check GenChk RwB97XD/6-311++G(d,p)
 Freq
 ----------------------------------------------------------------------

 Structure from the checkpoint file:  "2003846667223680600001_r12_insertion_R_5_2_3_IRC_F_prod.chk"
 ------------------------------
 Gaussian input prepared by ASE
 ------------------------------
 Charge =  0 Multiplicity = 1

                          Input orientation:
 ---------------------------------------------------------------------
 Center     Atomic      Atomic             Coordinates (Angstroms)
 Number     Number       Type             X           Y           Z
 ---------------------------------------------------------------------
      1          6           0       -1.069401    0.078953    0.971619
      2          6           0       -0.398138   -0.434507   -0.335236
      3          9           0       -0.400776   -1.767061   -0.327061
      4          9           0       -1.092822    0.006383   -1.382957
      5         16           0        1.387778    0.105610   -0.549012
      6          8           0        2.019359    0.029134    0.739183
      7          8           0        1.869088   -0.564791   -1.713152
      8          8           0        1.182397    1.641156   -0.951752
      9          9           0       -2.376856   -0.133162    0.907955
     10          9           0       -0.581122   -0.540176    2.030615
     11          9           0       -0.860439    1.396068    1.102835
     12          1           0        1.161854    2.197473   -0.161815
 ---------------------------------------------------------------------

 SCF Done:  E(RwB97XD) =  -1199.82588077     A.U. after    1 cycles

 Isotropic polarizability for W=    0.000000       55.70 Bohr**3.
 End of Minotr F.D. properties file   721 does not exist.

                      1                      2                      3
                      A                      A                      A
 Frequencies --     56.6908                68.3712               142.2692
 Red. masses --     12.8053                16.4236                14.8642
 Frc consts  --      0.0242                 0.0452                 0.1773
 IR Inten    --      1.5813                 0.6394                 2.0303

                      4                      5                      6
                      A                      A                      A
 Frequencies --    201.0745               224.8321               239.3302
 Red. masses --     14.0098                16.2436                11.0956
 Frc consts  --      0.3337                 0.4838                 0.3745
 IR Inten    --      3.9498                 2.4157                 1.9049

                      7                      8                      9
                      A                      A                      A
 Frequencies --    277.2493               308.5796               316.5575
 Red. masses --     17.5370                12.0135                 8.2560
 Frc consts  --      0.7942                 0.6740                 0.4874
 IR Inten    --      4.8393                 3.4858                10.3516

                     10                     11                     12
                      A                      A                      A
 Frequencies --    355.2781               386.3559               440.6593
 Red. masses --      2.9774                 3.1311                13.9128
 Frc consts  --      0.2214                 0.2754                 1.5917
 IR Inten    --     39.0859                43.9448                13.0137

                     13                     14                     15
                      A                      A                      A
 Frequencies --    466.0865               510.6810               537.7896
 Red. masses --      2.7564                16.3120                17.8209
 Frc consts  --      0.3528                 2.5064                 3.0367
 IR Inten    --     49.1908                 9.4928                26.7769

                     16                     17                     18
                      A                      A                      A
 Frequencies --    599.1961               609.3853               656.2897
 Red. masses --     17.8011                20.4838                16.0655
 Frc consts  --      3.7656                 4.4817                 4.0770
 IR Inten    --      2.7301               118.3971                27.0438

                     19                     20                     21
                      A                      A                      A
 Frequencies --    763.5372               835.0291              1002.3012
 Red. masses --     17.2845                17.2705                12.7270
 Frc consts  --      5.9370                 7.0951                 7.5331
 IR Inten    --     18.7007               194.3253               100.2350

                     22                     23                     24
                      A                      A                      A
 Frequencies --   1133.4103              1155.8427              1208.8387
 Red. masses --      1.2117                13.1681                13.8762
 Frc consts  --      0.9171                10.3650                11.9469
 IR Inten    --    135.7063               154.6468                82.1027

                     25                     26                     27
                      A                      A                      A
 Frequencies --   1226.4135              1228.0240              1262.0303
 Red. masses --     12.5280                13.1385                13.3288
 Frc consts  --     11.1021                11.6737                12.5078
 IR Inten    --    123.4304               195.5899               375.9170

                     28                     29                     30
                      A                      A                      A
 Frequencies --   1348.5140              1444.9109              3833.4655
 Red. masses --     12.6951                14.1667                 1.0662
 Frc consts  --     13.6018                17.4261                 9.2313
 IR Inten    --    113.5183               294.0037               150.6269

 - Thermochemistry -
 -------------------
 Temperature   298.150 Kelvin.  Pressure   1.00000 Atm.
 Atom     1 has atomic number  6 and mass  12.00000

 Molecular mass:   199.95666 amu.
 Principal axes and moments of inertia in atomic units:
                           1         2         3
     Eigenvalues --  1152.622172137.697992288.87170
           X            0.84829   0.37856  -0.37025
           Y            0.05878   0.62758   0.77633
           Z           -0.52625   0.68032  -0.51012
 This molecule is an asymmetric top.
 Rotational symmetry number  1.
 Warning -- assumption of classical behavior for rotation
           may cause significant error
 Rotational temperatures (Kelvin)      0.07515     0.04052     0.03784
 Rotational constants (GHZ):           1.56577     0.84425     0.78849
 Zero-point vibrational energy     136607.5 (Joules/Mol)
                                   32.64998 (Kcal/Mol)
 Warning -- explicit consideration of  17 degrees of freedom as
           vibrations may cause significant error
 Vibrational temperatures:     81.57    98.37   204.69   289.30   323.48
          (Kelvin)            344.34   398.90   443.98   455.46   511.17
                              555.88   634.01   670.59   734.76   773.76
                              862.11   876.77   944.25  1098.56  1201.42
                             1442.09  1630.72  1663.00  1739.25  1764.54
                             1766.85  1815.78  1940.21  2078.90  5515.50

 Zero-point correction=                           0.052031 (Hartree/Particle)
 Thermal correction to Energy=                    0.062353
 Thermal correction to Enthalpy=                  0.063298
 Thermal correction to Gibbs Free Energy=         0.015539
 Sum of electronic and zero-point Energies=          -1199.773850
 Sum of electronic and thermal Energies=             -1199.763527
 Sum of electronic and thermal Enthalpies=           -1199.762583
 Sum of electronic and thermal Free Energies=        -1199.810341

                     E (Thermal)             CV                S
                      KCal/Mol        Cal/Mol-Kelvin    Cal/Mol-Kelvin
 Total                   39.127             36.507            100.516
 Electronic               0.000              0.000              0.000
 Translational            0.889              2.981             41.783
 Rotational               0.889              2.981             30.112
 Vibrational             37.350             30.545             28.620
 Vibration     1          0.596              1.975              4.569
 Vibration     2          0.598              1.969              4.200
 Vibration     3          0.616              1.911              2.773
 Vibration     4          0.638              1.838              2.123
 Vibration     5          0.649              1.803              1.920
 Vibration     6          0.657              1.780              1.808
 Vibration     7          0.678              1.716              1.551
 Vibration     8          0.698              1.657              1.370
 Vibration     9          0.703              1.642              1.328
 Vibration    10          0.731              1.564              1.143
 Vibration    11          0.755              1.499              1.014
 Vibration    12          0.801              1.381              0.825
 Vibration    13          0.823              1.325              0.749
 Vibration    14          0.866              1.226              0.632
 Vibration    15          0.893              1.166              0.570
 Vibration    16          0.957              1.034              0.451
 Vibration    17          0.968              1.012              0.434

 Optimization completed.
    -- Stationary point found.
 Normal termination of Gaussian 16 at Fri May 23 04:16:57 2025.
