 Gaussian 16, Revision C.01,
 Gaussian 16:  ES64L-G16RevC.01  3-Jul-2019

 ----------------------------------------------------------------------
 #P wb97xd/6-311++G(d,p) Symm(None) scf(xqc) pop(None) geom(AllCheck,No
 KeepConstants) guess(Read) irc(RCFC,reverse,MaxPoints=100,StepSize=2)
 ----------------------------------------------------------------------

 Structure from the checkpoint file:  "2003846667223680600001_r12_insertion_R_8_5_2_IRC_R.chk"
 ------------------------------
 Gaussian input prepared by ASE
 ------------------------------
 Charge =  0 Multiplicity = 1

 SCF Done:  E(RwB97XD) =  -1199.82202211     A.U. after    9 cycles

                          Input orientation:
 ---------------------------------------------------------------------
 Center     Atomic      Atomic             Coordinates (Angstroms)
 Number     Number       Type             X           Y           Z
 ---------------------------------------------------------------------
      1          6           0       -1.286881   -0.299593    0.748127
      2          6           0       -0.405807    0.366786   -0.381128
      3          9           0       -0.856506    0.005405   -1.578005
      4          9           0       -0.469923    1.699044   -0.277820
      5         16           0        1.408337   -0.095784   -0.283463
      6          8           0        1.932869    0.478761    0.923932
      7          8           0        1.528957   -1.472511   -0.641128
      8          8           0        1.928558    0.759839   -1.536483
      9          9           0       -0.537193   -1.058142    1.541056
     10          9           0       -1.866705    0.638762    1.482342
     11          9           0       -2.224645   -1.056740    0.199474
     12          1           0        2.183965    1.646727   -1.250531
 ---------------------------------------------------------------------

 Normal termination of Gaussian 16 at Fri May 23 03:37:18 2025.
