 Gaussian 16, Revision C.01,
 Gaussian 16:  ES64L-G16RevC.01  3-Jul-2019

 ----------------------------------------------------------------------
 #P wb97xd/6-311++G(d,p) Symm(None) scf(xqc) pop(None) geom(AllCheck,No
 KeepConstants) guess(Read) irc(RCFC,forward,MaxPoints=100,StepSize=2)
 ----------------------------------------------------------------------

 Structure from the checkpoint file:  "2003846667223680600001_r12_insertion_R_2_1_9_IRC_F.chk"
 ------------------------------
 Gaussian input prepared by ASE
 ------------------------------
 Charge =  0 Multiplicity = 1

 SCF Done:  E(RwB97XD) =  -1199.65755036     A.U. after   13 cycles
 SCF Done:  E(RwB97XD) =  -1199.65759643     A.U. after   13 cycles
 SCF Done:  E(RwB97XD) =  -1199.65767309     A.U. after   13 cycles
 SCF Done:  E(RwB97XD) =  -1199.65778042     A.U. after   13 cycles
 SCF Done:  E(RwB97XD) =  -1199.65791865     A.U. after   13 cycles
 SCF Done:  E(RwB97XD) =  -1199.65808811     A.U. after   13 cycles
 SCF Done:  E(RwB97XD) =  -1199.65828918     A.U. after   13 cycles
 SCF Done:  E(RwB97XD) =  -1199.65852212     A.U. after   13 cycles
 SCF Done:  E(RwB97XD) =  -1199.65878699     A.U. after   13 cycles
 SCF Done:  E(RwB97XD) =  -1199.65908363     A.U. after   13 cycles
 SCF Done:  E(RwB97XD) =  -1199.72053112     A.U. after   10 cycles
 SCF Done:  E(RwB97XD) =  -1199.72088051     A.U. after   10 cycles
 SCF Done:  E(RwB97XD) =  -1199.72121603     A.U. after   10 cycles
 SCF Done:  E(RwB97XD) =  -1199.72153814     A.U. after   10 cycles
 SCF Done:  E(RwB97XD) =  -1199.72184725     A.U. after   10 cycles
 SCF Done:  E(RwB97XD) =  -1199.72214351     A.U. after   10 cycles
 SCF Done:  E(RwB97XD) =  -1199.72242302     A.U. after   11 cycles
 SCF Done:  E(RwB97XD) =  -1199.72269018     A.U. after   11 cycles
 SCF Done:  E(RwB97XD) =  -1199.72294832     A.U. after   11 cycles
 SCF Done:  E(RwB97XD) =  -1199.72320864     A.U. after   10 cycles

                          Input orientation:
 ---------------------------------------------------------------------
 Center     Atomic      Atomic             Coordinates (Angstroms)
 Number     Number       Type             X           Y           Z
 ---------------------------------------------------------------------
      1          6           0       -0.859601    0.179803    0.914686
      2          6           0       -0.732473    0.025801   -0.660981
      3          9           0       -1.203361   -1.022726   -1.279070
      4          9           0       -1.106675    1.119392   -1.279771
      5         16           0        1.126837   -0.074621   -0.269210
      6          8           0        0.482052    0.427449    1.217635
      7          8           0        2.424002   -0.588471   -0.662218
      8          8           0        1.379164    1.498178   -0.736054
      9          9           0        0.649545   -1.662012    0.278518
     10          9           0       -1.578159    1.234404    1.277087
     11          9           0       -1.380373   -0.881653    1.506520
     12          1           0        2.271824    1.561420   -1.092047
 ---------------------------------------------------------------------

 Normal termination of Gaussian 16 at Fri May 23 04:10:44 2025.
