 Gaussian 16, Revision C.01,
 Gaussian 16:  ES64L-G16RevC.01  3-Jul-2019

 ----------------------------------------------------------------------
 #P wb97xd/6-311++G(d,p) Symm(None) scf(xqc) pop(None) geom(AllCheck,No
 KeepConstants) guess(Read) irc(RCFC,reverse,MaxPoints=100,StepSize=2)
 ----------------------------------------------------------------------

 Structure from the checkpoint file:  "2003846667223680600001_r13_insertion_ROR_1_2_5_8_IRC_R.chk"
 ------------------------------
 Gaussian input prepared by ASE
 ------------------------------
 Charge =  0 Multiplicity = 1

 SCF Done:  E(RwB97XD) =  -1199.72786287     A.U. after   12 cycles

                          Input orientation:
 ---------------------------------------------------------------------
 Center     Atomic      Atomic             Coordinates (Angstroms)
 Number     Number       Type             X           Y           Z
 ---------------------------------------------------------------------
      1          6           0       -1.051109   -1.006287    0.349724
      2          6           0        0.313412   -0.846778   -0.169514
      3          9           0        1.165703   -1.504613    0.628481
      4          9           0        0.376289   -1.307871   -1.417423
      5         16           0        0.996320    1.071965   -0.140930
      6          8           0        0.929227    1.331247    1.278217
      7          8           0        2.265061    0.826465   -0.772200
      8          8           0       -0.004156    1.768195   -0.968222
      9          9           0       -1.286793   -0.944147    1.576251
     10          9           0       -2.070365    1.080159    0.128726
     11          9           0       -2.008044   -1.346091   -0.385762
     12          1           0       -1.382298    1.579203   -0.335452
 ---------------------------------------------------------------------

 Normal termination of Gaussian 16 at Fri May 23 05:07:31 2025.
