 Gaussian 16, Revision C.01,
 Gaussian 16:  ES64L-G16RevC.01  3-Jul-2019

 ----------------------------------------------------------------------
 #P wb97xd/6-311++G(d,p) Symm(None) scf(xqc) pop(None) geom(AllCheck,No
 KeepConstants) guess(Read) irc(RCFC,reverse,MaxPoints=100,StepSize=2)
 ----------------------------------------------------------------------

 Structure from the checkpoint file:  "2003846667223680600001_intra_H_migration_6_12_IRC_R.chk"
 ------------------------------
 Gaussian input prepared by ASE
 ------------------------------
 Charge =  0 Multiplicity = 1

 SCF Done:  E(RwB97XD) =  -1199.76592892     A.U. after    9 cycles
 SCF Done:  E(RwB97XD) =  -1199.76602066     A.U. after   10 cycles
 SCF Done:  E(RwB97XD) =  -1199.76617245     A.U. after   10 cycles
 SCF Done:  E(RwB97XD) =  -1199.76638321     A.U. after   10 cycles
 SCF Done:  E(RwB97XD) =  -1199.76665204     A.U. after   10 cycles
 SCF Done:  E(RwB97XD) =  -1199.76697822     A.U. after   10 cycles
 SCF Done:  E(RwB97XD) =  -1199.76736092     A.U. after   10 cycles
 SCF Done:  E(RwB97XD) =  -1199.76779886     A.U. after   10 cycles
 SCF Done:  E(RwB97XD) =  -1199.76829012     A.U. after   10 cycles
 SCF Done:  E(RwB97XD) =  -1199.76883223     A.U. after   10 cycles
 SCF Done:  E(RwB97XD) =  -1199.81603152     A.U. after    9 cycles
 SCF Done:  E(RwB97XD) =  -1199.81627392     A.U. after    9 cycles
 SCF Done:  E(RwB97XD) =  -1199.81651170     A.U. after    9 cycles
 SCF Done:  E(RwB97XD) =  -1199.81674495     A.U. after    9 cycles
 SCF Done:  E(RwB97XD) =  -1199.81697376     A.U. after    9 cycles
 SCF Done:  E(RwB97XD) =  -1199.81719823     A.U. after    9 cycles
 SCF Done:  E(RwB97XD) =  -1199.81741845     A.U. after    9 cycles
 SCF Done:  E(RwB97XD) =  -1199.81763448     A.U. after    9 cycles
 SCF Done:  E(RwB97XD) =  -1199.81784640     A.U. after    9 cycles
 SCF Done:  E(RwB97XD) =  -1199.81805430     A.U. after    9 cycles

                          Input orientation:
 ---------------------------------------------------------------------
 Center     Atomic      Atomic             Coordinates (Angstroms)
 Number     Number       Type             X           Y           Z
 ---------------------------------------------------------------------
      1          6           0        0.507485   -1.302695   -0.445661
      2          6           0        0.672945    0.068134    0.273022
      3          9           0        1.014164   -0.156282    1.541159
      4          9           0        1.628170    0.775875   -0.325798
      5         16           0       -0.913878    1.098477    0.319351
      6          8           0       -2.051678    0.211758    0.324361
      7          8           0       -0.684767    2.083205    1.332171
      8          8           0       -1.033331    1.679369   -1.167235
      9          9           0       -0.286536   -2.100826    0.246937
     10          9           0        0.003863   -1.126299   -1.665351
     11          9           0        1.702739   -1.872620   -0.556518
     12          1           0       -1.814242    1.231154   -1.522377
 ---------------------------------------------------------------------

 Normal termination of Gaussian 16 at Fri May 23 04:12:08 2025.
