 Gaussian 16, Revision C.01,
 Gaussian 16:  ES64L-G16RevC.01  3-Jul-2019

 ----------------------------------------------------------------------
 #P wb97xd/6-311++G(d,p) Symm(None) scf(xqc) pop(None) opt(NoFreeze,TS,
 CalcAll,NoEigentest,MaxCycle=999)
 ----------------------------------------------------------------------

 ------------------------------
 Gaussian input prepared by ASE
 ------------------------------
 Symbolic Z-matrix:
 Charge =  0 Multiplicity = 1

 SCF Done:  E(RwB97XD) =  -1199.45916707     A.U. after   20 cycles
 SCF Done:  E(RwB97XD) =  -1199.55661609     A.U. after   15 cycles
 SCF Done:  E(RwB97XD) =  -1199.62296532     A.U. after   15 cycles
 SCF Done:  E(RwB97XD) =  -1199.64804641     A.U. after   15 cycles
 SCF Done:  E(RwB97XD) =  -1199.65466682     A.U. after   16 cycles
 SCF Done:  E(RwB97XD) =  -1199.65927063     A.U. after   16 cycles
 SCF Done:  E(RwB97XD) =  -1199.66432234     A.U. after   15 cycles
 SCF Done:  E(RwB97XD) =  -1199.67163197     A.U. after   14 cycles
 SCF Done:  E(RwB97XD) =  -1199.67485468     A.U. after   14 cycles
 SCF Done:  E(RwB97XD) =  -1199.67644209     A.U. after   16 cycles
 SCF Done:  E(RwB97XD) =  -1199.67688249     A.U. after   14 cycles
 SCF Done:  E(RwB97XD) =  -1199.67699712     A.U. after   14 cycles
 SCF Done:  E(RwB97XD) =  -1199.67700257     A.U. after   12 cycles
 SCF Done:  E(RwB97XD) =  -1199.67700259     A.U. after    9 cycles

 Isotropic polarizability for W=    0.000000       80.86 Bohr**3.
 End of Minotr F.D. properties file   721 does not exist.

 Optimization completed.
    -- Stationary point found.

                          Input orientation:
 ---------------------------------------------------------------------
 Center     Atomic      Atomic             Coordinates (Angstroms)
 Number     Number       Type             X           Y           Z
 ---------------------------------------------------------------------
      1          6           0       -0.468753   -0.315038    1.283303
      2          6           0       -0.613281    0.377935    0.059491
      3          9           0       -0.433729   -0.204274   -1.055171
      4          9           0       -0.868190    1.619209    0.021431
      5         16           0        1.875546    0.577872    0.733528
      6          8           0        2.127841    1.558546    1.771245
      7          8           0        2.699399   -0.621001    0.612328
      8          8           0        2.043595    1.377488   -0.708476
      9          9           0       -0.143699   -1.541849    1.315673
     10          9           0       -0.579133    0.278704    2.399025
     11          9           0       -2.212534   -0.363753    0.662019
     12          1           0        2.623361    0.854193   -1.276108
 ---------------------------------------------------------------------

 ******    1 imaginary frequencies (negative Signs) ******

                      1                      2                      3
                      A                      A                      A
 Frequencies --   -902.9763                29.8518                86.9271
 Red. masses --     12.2583                12.0576                14.2471
 Frc consts  --      5.8889                 0.0063                 0.0634
 IR Inten    --      7.5362                 2.3037                17.5283

                      4                      5                      6
                      A                      A                      A
 Frequencies --     95.1480               121.5440               161.3078
 Red. masses --     15.3267                15.3907                13.2907
 Frc consts  --      0.0818                 0.1340                 0.2038
 IR Inten    --      3.2201                 3.3324                 6.5919

                      7                      8                      9
                      A                      A                      A
 Frequencies --    165.6854               231.7928               235.5504
 Red. masses --     14.8119                13.4865                14.0613
 Frc consts  --      0.2396                 0.4269                 0.4597
 IR Inten    --     28.6159                 3.6522                 1.1098

                     10                     11                     12
                      A                      A                      A
 Frequencies --    247.2841               308.3515               361.1951
 Red. masses --      1.3917                17.7609                 9.2365
 Frc consts  --      0.0501                 0.9950                 0.7100
 IR Inten    --     36.4415                11.9066                 4.0000

                     13                     14                     15
                      A                      A                      A
 Frequencies --    387.8055               399.3171               410.9377
 Red. masses --     16.9208                 4.6253                18.6585
 Frc consts  --      1.4993                 0.4345                 1.8564
 IR Inten    --    191.0879                16.3420                61.8331

                     16                     17                     18
                      A                      A                      A
 Frequencies --    447.1251               541.8459               548.9852
 Red. masses --      9.6597                17.2741                15.8547
 Frc consts  --      1.1378                 2.9881                 2.8153
 IR Inten    --     19.6183                 0.3488               516.2864

                     19                     20                     21
                      A                      A                      A
 Frequencies --    624.2318               661.5703               760.3352
 Red. masses --     16.7723                14.0951                15.7733
 Frc consts  --      3.8506                 3.6347                 5.3726
 IR Inten    --     23.2476               754.8986               185.4324

                     22                     23                     24
                      A                      A                      A
 Frequencies --    833.6641              1075.1411              1142.9666
 Red. masses --     18.2778                 1.2932                 8.2436
 Frc consts  --      7.4844                 0.8807                 6.3451
 IR Inten    --      8.2674                39.2646               168.8208

                     25                     26                     27
                      A                      A                      A
 Frequencies --   1247.3729              1338.6624              1503.4460
 Red. masses --     14.3737                13.5163                13.5025
 Frc consts  --     13.1768                14.2708                17.9821
 IR Inten    --    453.4150               181.4870               551.0634

                     28                     29                     30
                      A                      A                      A
 Frequencies --   1511.4974              1692.7354              3838.8065
 Red. masses --     13.0364                12.3177                 1.0663
 Frc consts  --     17.5479                20.7949                 9.2582
 IR Inten    --      2.8200               265.6840               155.8889

 - Thermochemistry -
 -------------------
 Temperature   298.150 Kelvin.  Pressure   1.00000 Atm.
 Atom     1 has atomic number  6 and mass  12.00000

 Molecular mass:   199.95666 amu.
 Principal axes and moments of inertia in atomic units:
                           1         2         3
     Eigenvalues --  1241.254292247.441482482.04651
           X            0.96918   0.14816  -0.19683
           Y            0.24364  -0.45797   0.85493
           Z           -0.03653   0.87654   0.47995
 This molecule is an asymmetric top.
 Rotational symmetry number  1.
 Warning -- assumption of classical behavior for rotation
           may cause significant error
 Rotational temperatures (Kelvin)      0.06978     0.03854     0.03490
 Rotational constants (GHZ):           1.45397     0.80302     0.72712
    1 imaginary frequencies ignored.
 Zero-point vibrational energy     125674.2 (Joules/Mol)
                                   30.03685 (Kcal/Mol)
 Warning -- explicit consideration of  17 degrees of freedom as
           vibrations may cause significant error
 Vibrational temperatures:     42.95   125.07   136.90   174.87   232.09
          (Kelvin)            238.38   333.50   338.90   355.79   443.65
                              519.68   557.97   574.53   591.25   643.31
                              779.60   789.87   898.13   951.85  1093.95
                             1199.46  1546.89  1644.47  1794.69  1926.04
                             2163.12  2174.71  2435.47  5523.19

 Zero-point correction=                           0.047867 (Hartree/Particle)
 Thermal correction to Energy=                    0.059386
 Thermal correction to Enthalpy=                  0.060330
 Thermal correction to Gibbs Free Energy=         0.009275
 Sum of electronic and zero-point Energies=          -1199.629136
 Sum of electronic and thermal Energies=             -1199.617617
 Sum of electronic and thermal Enthalpies=           -1199.616672
 Sum of electronic and thermal Free Energies=        -1199.667728

                     E (Thermal)             CV                S
                      KCal/Mol        Cal/Mol-Kelvin    Cal/Mol-Kelvin
 Total                   37.265             38.436            107.456
 Electronic               0.000              0.000              0.000
 Translational            0.889              2.981             41.783
 Rotational               0.889              2.981             30.316
 Vibrational             35.488             32.475             35.356
 Vibration     1          0.594              1.984              5.839
 Vibration     2          0.601              1.958              3.728
 Vibration     3          0.603              1.953              3.551
 Vibration     4          0.609              1.931              3.076
 Vibration     5          0.622              1.890              2.534
 Vibration     6          0.624              1.885              2.484
 Vibration     7          0.653              1.792              1.865
 Vibration     8          0.655              1.786              1.836
 Vibration     9          0.661              1.767              1.750
 Vibration    10          0.698              1.658              1.371
 Vibration    11          0.735              1.552              1.117
 Vibration    12          0.756              1.496              1.009
 Vibration    13          0.765              1.472              0.965
 Vibration    14          0.775              1.446              0.923
 Vibration    15          0.806              1.367              0.805
 Vibration    16          0.897              1.158              0.561
 Vibration    17          0.904              1.142              0.546

 Normal termination of Gaussian 16 at Fri May 23 03:37:04 2025.
