 Gaussian 16, Revision C.01,
 Gaussian 16:  ES64L-G16RevC.01  3-Jul-2019

 ----------------------------------------------------------------------
 #P wb97xd/6-311++G(d,p) Symm(None) scf(xqc) pop(None) geom(AllCheck,No
 KeepConstants) guess(Read) irc(RCFC,forward,MaxPoints=100,StepSize=2)
 ----------------------------------------------------------------------

 Structure from the checkpoint file:  "2003846667223680600001_r13_insertion_ROR_1_2_5_8_IRC_F.chk"
 ------------------------------
 Gaussian input prepared by ASE
 ------------------------------
 Charge =  0 Multiplicity = 1

 SCF Done:  E(RwB97XD) =  -1199.72786258     A.U. after   12 cycles

                          Input orientation:
 ---------------------------------------------------------------------
 Center     Atomic      Atomic             Coordinates (Angstroms)
 Number     Number       Type             X           Y           Z
 ---------------------------------------------------------------------
      1          6           0       -1.047952   -1.013270    0.349656
      2          6           0        0.311520   -0.855674   -0.168633
      3          9           0        1.170310   -1.504646    0.628500
      4          9           0        0.378411   -1.310590   -1.418183
      5         16           0        0.996002    1.074771   -0.140956
      6          8           0        0.928907    1.331406    1.278431
      7          8           0        2.264129    0.823414   -0.771262
      8          8           0       -0.003012    1.769139   -0.969273
      9          9           0       -1.285717   -0.944517    1.576150
     10          9           0       -2.077219    1.086347    0.129921
     11          9           0       -2.008609   -1.342519   -0.386762
     12          1           0       -1.392799    1.585060   -0.333737
 ---------------------------------------------------------------------

 Normal termination of Gaussian 16 at Fri May 23 05:07:34 2025.
