 Gaussian 16, Revision C.01,
 Gaussian 16:  ES64L-G16RevC.01  3-Jul-2019

 ----------------------------------------------------------------------
 #P wb97xd/6-311++G(d,p) Symm(None) scf(xqc) pop(None) freq opt(CalcFC)
 ----------------------------------------------------------------------

 ------------------------------
 Gaussian input prepared by ASE
 ------------------------------
 Symbolic Z-matrix:
 Charge =  0 Multiplicity = 1

 SCF Done:  E(RwB97XD) =  -1199.82202847     A.U. after   14 cycles
 SCF Done:  E(RwB97XD) =  -1199.82242435     A.U. after   13 cycles
 SCF Done:  E(RwB97XD) =  -1199.82375379     A.U. after   14 cycles
 SCF Done:  E(RwB97XD) =  -1199.82541773     A.U. after   14 cycles
 SCF Done:  E(RwB97XD) =  -1199.82543717     A.U. after   14 cycles
 SCF Done:  E(RwB97XD) =  -1199.82431398     A.U. after   14 cycles
 SCF Done:  E(RwB97XD) =  -1199.82567194     A.U. after   14 cycles
 SCF Done:  E(RwB97XD) =  -1199.82523518     A.U. after   12 cycles
 SCF Done:  E(RwB97XD) =  -1199.82576790     A.U. after   12 cycles
 SCF Done:  E(RwB97XD) =  -1199.82584242     A.U. after   12 cycles
 SCF Done:  E(RwB97XD) =  -1199.82598277     A.U. after   13 cycles
 SCF Done:  E(RwB97XD) =  -1199.82600459     A.U. after   10 cycles
 SCF Done:  E(RwB97XD) =  -1199.82603886     A.U. after   11 cycles
 SCF Done:  E(RwB97XD) =  -1199.82604377     A.U. after   11 cycles
 SCF Done:  E(RwB97XD) =  -1199.82604407     A.U. after   10 cycles
 SCF Done:  E(RwB97XD) =  -1199.82604416     A.U. after    9 cycles
 Optimization completed.
    -- Stationary point found.
 Normal termination of Gaussian 16 at Fri May 23 03:41:38 2025.

 ----------------------------------------------------------------------
 #P Geom=AllCheck Guess=TCheck SCRF=Check GenChk RwB97XD/6-311++G(d,p)
 Freq
 ----------------------------------------------------------------------

 Structure from the checkpoint file:  "2003846667223680600001_r12_insertion_R_2_5_8_IRC_F_prod.chk"
 ------------------------------
 Gaussian input prepared by ASE
 ------------------------------
 Charge =  0 Multiplicity = 1

                          Input orientation:
 ---------------------------------------------------------------------
 Center     Atomic      Atomic             Coordinates (Angstroms)
 Number     Number       Type             X           Y           Z
 ---------------------------------------------------------------------
      1          6           0       -1.263187   -0.607563    0.529714
      2          6           0       -0.425626    0.252477   -0.459149
      3          9           0       -0.492796   -0.301189   -1.678155
      4          9           0       -0.929362    1.482622   -0.506341
      5         16           0        1.389623    0.382408   -0.004108
      6          8           0        1.516630    1.331864    1.053106
      7          8           0        1.910551   -0.954898    0.050582
      8          8           0        1.910266    1.100592   -1.339276
      9          9           0       -0.903839   -1.880309    0.461208
     10          9           0       -1.095821   -0.169450    1.771113
     11          9           0       -2.547857   -0.505026    0.203924
     12          1           0        2.135284    0.442512   -2.010107
 ---------------------------------------------------------------------

 SCF Done:  E(RwB97XD) =  -1199.82604416     A.U. after    1 cycles

 Isotropic polarizability for W=    0.000000       55.70 Bohr**3.
 End of Minotr F.D. properties file   721 does not exist.

                      1                      2                      3
                      A                      A                      A
 Frequencies --     28.2046                68.4109               132.0926
 Red. masses --     14.3599                14.2613                14.5765
 Frc consts  --      0.0067                 0.0393                 0.1499
 IR Inten    --      1.2407                 0.7970                 1.3040

                      4                      5                      6
                      A                      A                      A
 Frequencies --    193.0702               222.8019               234.0148
 Red. masses --      8.8382                17.8431                 7.9736
 Frc consts  --      0.1941                 0.5219                 0.2573
 IR Inten    --      8.8912                 1.3074                 9.7830

                      7                      8                      9
                      A                      A                      A
 Frequencies --    275.1466               310.7925               317.9322
 Red. masses --     15.1080                 4.9380                18.2195
 Frc consts  --      0.6739                 0.2810                 1.0851
 IR Inten    --      1.3461                17.4002                 0.2934

                     10                     11                     12
                      A                      A                      A
 Frequencies --    357.0823               371.4320               435.8480
 Red. masses --      1.8716                17.7405                 4.2736
 Frc consts  --      0.1406                 1.4420                 0.4783
 IR Inten    --     57.0036                 0.1473                29.9895

                     13                     14                     15
                      A                      A                      A
 Frequencies --    484.6641               489.4748               539.4391
 Red. masses --     13.2600                 8.6048                17.8535
 Frc consts  --      1.8352                 1.2146                 3.0610
 IR Inten    --     14.2171                20.7009                28.7166

                     16                     17                     18
                      A                      A                      A
 Frequencies --    600.3789               609.0959               653.7176
 Red. masses --     17.3811                20.1367                17.3414
 Frc consts  --      3.6913                 4.4016                 4.3663
 IR Inten    --      3.4927               118.5804                29.7754

                     19                     20                     21
                      A                      A                      A
 Frequencies --    764.7472               826.0837              1005.7549
 Red. masses --     17.1237                17.1071                13.8257
 Frc consts  --      5.9004                 6.8782                 8.2399
 IR Inten    --     40.5795               218.4976                52.6478

                     22                     23                     24
                      A                      A                      A
 Frequencies --   1131.8272              1157.7941              1202.0861
 Red. masses --      1.1963                12.0743                16.0103
 Frc consts  --      0.9029                 9.5362                13.6308
 IR Inten    --    109.2617               240.4632                 6.3311

                     25                     26                     27
                      A                      A                      A
 Frequencies --   1219.3483              1249.2667              1253.9962
 Red. masses --     13.1167                13.7146                13.1797
 Frc consts  --     11.4903                12.6108                12.2109
 IR Inten    --    109.1192               333.2224               260.6021

                     28                     29                     30
                      A                      A                      A
 Frequencies --   1344.8712              1444.0978              3833.3943
 Red. masses --     12.6442                14.2320                 1.0662
 Frc consts  --     13.4742                17.4868                 9.2316
 IR Inten    --    107.0726               313.6697               161.8290

 - Thermochemistry -
 -------------------
 Temperature   298.150 Kelvin.  Pressure   1.00000 Atm.
 Atom     1 has atomic number  6 and mass  12.00000

 Molecular mass:   199.95666 amu.
 Principal axes and moments of inertia in atomic units:
                           1         2         3
     Eigenvalues --  1133.373692198.075622320.67679
           X            0.91428   0.35904  -0.18755
           Y            0.34585  -0.45083   0.82289
           Z           -0.21090   0.81722   0.53636
 This molecule is an asymmetric top.
 Rotational symmetry number  1.
 Warning -- assumption of classical behavior for rotation
           may cause significant error
 Rotational temperatures (Kelvin)      0.07642     0.03940     0.03732
 Rotational constants (GHZ):           1.59236     0.82106     0.77768
 Zero-point vibrational energy     136116.3 (Joules/Mol)
                                   32.53257 (Kcal/Mol)
 Warning -- explicit consideration of  17 degrees of freedom as
           vibrations may cause significant error
 Vibrational temperatures:     40.58    98.43   190.05   277.79   320.56
          (Kelvin)            336.70   395.87   447.16   457.43   513.76
                              534.41   627.09   697.32   704.25   776.13
                              863.81   876.35   940.55  1100.30  1188.55
                             1447.06  1628.45  1665.81  1729.53  1754.37
                             1797.42  1804.22  1934.97  2077.73  5515.40

 Zero-point correction=                           0.051844 (Hartree/Particle)
 Thermal correction to Energy=                    0.062287
 Thermal correction to Enthalpy=                  0.063231
 Thermal correction to Gibbs Free Energy=         0.014643
 Sum of electronic and zero-point Energies=          -1199.774200
 Sum of electronic and thermal Energies=             -1199.763758
 Sum of electronic and thermal Enthalpies=           -1199.762813
 Sum of electronic and thermal Free Energies=        -1199.811401

                     E (Thermal)             CV                S
                      KCal/Mol        Cal/Mol-Kelvin    Cal/Mol-Kelvin
 Total                   39.085             36.600            102.262
 Electronic               0.000              0.000              0.000
 Translational            0.889              2.981             41.783
 Rotational               0.889              2.981             30.137
 Vibrational             37.308             30.639             30.341
 Vibration     1          0.593              1.984              5.952
 Vibration     2          0.598              1.969              4.199
 Vibration     3          0.612              1.921              2.915
 Vibration     4          0.635              1.849              2.198
 Vibration     5          0.648              1.806              1.936
 Vibration     6          0.654              1.789              1.848
 Vibration     7          0.677              1.719              1.564
 Vibration     8          0.700              1.653              1.358
 Vibration     9          0.704              1.639              1.321
 Vibration    10          0.732              1.561              1.135
 Vibration    11          0.743              1.531              1.074
 Vibration    12          0.796              1.392              0.840
 Vibration    13          0.841              1.284              0.698
 Vibration    14          0.845              1.273              0.685
 Vibration    15          0.894              1.163              0.566
 Vibration    16          0.959              1.031              0.449
 Vibration    17          0.968              1.013              0.434

 Optimization completed.
    -- Stationary point found.
 Normal termination of Gaussian 16 at Fri May 23 03:42:57 2025.
