 Gaussian 16, Revision C.01,
 Gaussian 16:  ES64L-G16RevC.01  3-Jul-2019

 ----------------------------------------------------------------------
 #P wb97xd/6-311++G(d,p) Symm(None) scf(xqc) pop(None) freq opt(CalcFC)
 ----------------------------------------------------------------------

 ------------------------------
 Gaussian input prepared by ASE
 ------------------------------
 Symbolic Z-matrix:
 Charge =  0 Multiplicity = 1

 SCF Done:  E(RwB97XD) =  -1199.82202114     A.U. after   14 cycles
 SCF Done:  E(RwB97XD) =  -1199.82242181     A.U. after   13 cycles
 SCF Done:  E(RwB97XD) =  -1199.82376658     A.U. after   14 cycles
 SCF Done:  E(RwB97XD) =  -1199.82542235     A.U. after   14 cycles
 SCF Done:  E(RwB97XD) =  -1199.82547297     A.U. after   12 cycles
 SCF Done:  E(RwB97XD) =  -1199.82447256     A.U. after   14 cycles
 SCF Done:  E(RwB97XD) =  -1199.82568923     A.U. after   14 cycles
 SCF Done:  E(RwB97XD) =  -1199.82534649     A.U. after   12 cycles
 SCF Done:  E(RwB97XD) =  -1199.82577663     A.U. after   12 cycles
 SCF Done:  E(RwB97XD) =  -1199.82586339     A.U. after   12 cycles
 SCF Done:  E(RwB97XD) =  -1199.82598024     A.U. after   13 cycles
 SCF Done:  E(RwB97XD) =  -1199.82599253     A.U. after    9 cycles
 SCF Done:  E(RwB97XD) =  -1199.82603929     A.U. after   11 cycles
 SCF Done:  E(RwB97XD) =  -1199.82604239     A.U. after   10 cycles
 SCF Done:  E(RwB97XD) =  -1199.82604246     A.U. after    9 cycles
 SCF Done:  E(RwB97XD) =  -1199.82604247     A.U. after    8 cycles
 Optimization completed.
    -- Stationary point found.
 Normal termination of Gaussian 16 at Fri May 23 03:45:05 2025.

 ----------------------------------------------------------------------
 #P Geom=AllCheck Guess=TCheck SCRF=Check GenChk RwB97XD/6-311++G(d,p)
 Freq
 ----------------------------------------------------------------------

 Structure from the checkpoint file:  "2003846667223680600001_r12_insertion_R_8_5_2_IRC_F_prod.chk"
 ------------------------------
 Gaussian input prepared by ASE
 ------------------------------
 Charge =  0 Multiplicity = 1

                          Input orientation:
 ---------------------------------------------------------------------
 Center     Atomic      Atomic             Coordinates (Angstroms)
 Number     Number       Type             X           Y           Z
 ---------------------------------------------------------------------
      1          6           0       -1.237419   -0.234943    0.811356
      2          6           0       -0.397906    0.454336   -0.301800
      3          9           0       -1.028926    0.332908   -1.466377
      4          9           0       -0.266475    1.754365   -0.002211
      5         16           0        1.329484   -0.250701   -0.497569
      6          8           0        1.987135   -0.120732    0.772631
      7          8           0        1.231539   -1.474729   -1.223738
      8          8           0        1.911694    0.845937   -1.511455
      9          9           0       -0.732059    0.027201    2.006971
     10          9           0       -2.481694    0.229900    0.758829
     11          9           0       -1.258179   -1.548088    0.620849
     12          1           0        2.280877    1.593765   -1.023419
 ---------------------------------------------------------------------

 SCF Done:  E(RwB97XD) =  -1199.82604247     A.U. after    1 cycles

 Isotropic polarizability for W=    0.000000       55.71 Bohr**3.
 End of Minotr F.D. properties file   721 does not exist.

                      1                      2                      3
                      A                      A                      A
 Frequencies --     27.5557                68.2158               131.9162
 Red. masses --     14.1523                14.4976                14.7856
 Frc consts  --      0.0063                 0.0397                 0.1516
 IR Inten    --      1.2855                 0.7249                 1.2578

                      4                      5                      6
                      A                      A                      A
 Frequencies --    193.8606               222.6956               234.8037
 Red. masses --      9.7757                18.0688                 8.2405
 Frc consts  --      0.2165                 0.5280                 0.2677
 IR Inten    --      7.6460                 1.1414                 9.2893

                      7                      8                      9
                      A                      A                      A
 Frequencies --    275.2694               311.7673               318.1481
 Red. masses --     15.4110                 5.5690                18.1827
 Frc consts  --      0.6880                 0.3189                 1.0843
 IR Inten    --      1.4997                14.1952                 0.3478

                     10                     11                     12
                      A                      A                      A
 Frequencies --    362.7471               371.4593               438.0840
 Red. masses --      1.8569                16.8591                 3.8579
 Frc consts  --      0.1440                 1.3706                 0.4362
 IR Inten    --     56.7617                 0.4366                32.9590

                     13                     14                     15
                      A                      A                      A
 Frequencies --    484.7067               489.7053               539.5281
 Red. masses --     13.1514                 8.0711                17.8265
 Frc consts  --      1.8205                 1.1404                 3.0574
 IR Inten    --     15.4969                20.4933                28.7339

                     16                     17                     18
                      A                      A                      A
 Frequencies --    600.3052               609.1050               653.7491
 Red. masses --     17.3800                20.1208                17.3526
 Frc consts  --      3.6901                 4.3983                 4.3695
 IR Inten    --      3.5448               118.8561                30.0287

                     19                     20                     21
                      A                      A                      A
 Frequencies --    764.8051               826.0365              1006.2313
 Red. masses --     17.1272                17.1202                13.8145
 Frc consts  --      5.9025                 6.8827                 8.2410
 IR Inten    --     40.5871               218.6092                52.9036

                     22                     23                     24
                      A                      A                      A
 Frequencies --   1131.0292              1157.7664              1202.1892
 Red. masses --      1.1955                12.1141                15.9864
 Frc consts  --      0.9011                 9.5672                13.6128
 IR Inten    --    108.4105               240.0431                 6.7453

                     25                     26                     27
                      A                      A                      A
 Frequencies --   1219.0267              1249.1533              1253.9984
 Red. masses --     13.1240                13.7205                13.1794
 Frc consts  --     11.4906                12.6140                12.2107
 IR Inten    --    109.0908               334.0434               260.8888

                     28                     29                     30
                      A                      A                      A
 Frequencies --   1344.8005              1444.5901              3832.4802
 Red. masses --     12.6427                14.2786                 1.0663
 Frc consts  --     13.4712                17.5560                 9.2272
 IR Inten    --    106.8516               313.3329               161.6837

 - Thermochemistry -
 -------------------
 Temperature   298.150 Kelvin.  Pressure   1.00000 Atm.
 Atom     1 has atomic number  6 and mass  12.00000

 Molecular mass:   199.95666 amu.
 Principal axes and moments of inertia in atomic units:
                           1         2         3
     Eigenvalues --  1133.364032198.078862320.68425
           X            0.88715  -0.31488   0.33736
           Y            0.01992   0.75649   0.65371
           Z           -0.46105  -0.57322   0.67739
 This molecule is an asymmetric top.
 Rotational symmetry number  1.
 Warning -- assumption of classical behavior for rotation
           may cause significant error
 Rotational temperatures (Kelvin)      0.07642     0.03940     0.03732
 Rotational constants (GHZ):           1.59238     0.82105     0.77768
 Zero-point vibrational energy     136169.3 (Joules/Mol)
                                   32.54524 (Kcal/Mol)
 Warning -- explicit consideration of  17 degrees of freedom as
           vibrations may cause significant error
 Vibrational temperatures:     39.65    98.15   189.80   278.92   320.41
          (Kelvin)            337.83   396.05   448.56   457.74   521.91
                              534.45   630.31   697.38   704.58   776.26
                              863.71   876.37   940.60  1100.38  1188.48
                             1447.74  1627.30  1665.77  1729.68  1753.91
                             1797.25  1804.22  1934.87  2078.44  5514.08

 Zero-point correction=                           0.051864 (Hartree/Particle)
 Thermal correction to Energy=                    0.062297
 Thermal correction to Enthalpy=                  0.063241
 Thermal correction to Gibbs Free Energy=         0.014652
 Sum of electronic and zero-point Energies=          -1199.774178
 Sum of electronic and thermal Energies=             -1199.763746
 Sum of electronic and thermal Enthalpies=           -1199.762802
 Sum of electronic and thermal Free Energies=        -1199.811390

                     E (Thermal)             CV                S
                      KCal/Mol        Cal/Mol-Kelvin    Cal/Mol-Kelvin
 Total                   39.092             36.579            102.264
 Electronic               0.000              0.000              0.000
 Translational            0.889              2.981             41.783
 Rotational               0.889              2.981             30.137
 Vibrational             37.314             30.617             30.343
 Vibration     1          0.593              1.984              5.998
 Vibration     2          0.598              1.969              4.204
 Vibration     3          0.612              1.921              2.918
 Vibration     4          0.635              1.848              2.191
 Vibration     5          0.648              1.807              1.937
 Vibration     6          0.655              1.788              1.842
 Vibration     7          0.677              1.719              1.563
 Vibration     8          0.700              1.651              1.353
 Vibration     9          0.705              1.639              1.320
 Vibration    10          0.737              1.549              1.110
 Vibration    11          0.743              1.531              1.074
 Vibration    12          0.798              1.387              0.833
 Vibration    13          0.841              1.284              0.697
 Vibration    14          0.846              1.273              0.684
 Vibration    15          0.895              1.163              0.566
 Vibration    16          0.958              1.031              0.449
 Vibration    17          0.968              1.013              0.434

 Optimization completed.
    -- Stationary point found.
 Normal termination of Gaussian 16 at Fri May 23 03:46:24 2025.
