 Gaussian 16, Revision C.01,
 Gaussian 16:  ES64L-G16RevC.01  3-Jul-2019

 ----------------------------------------------------------------------
 #P mp2/6-31G Symm(None) scf(xqc) pop(None) guess(Read,Mix) geom(AllChe
 ck,NoKeepConstants) irc(RCFC,forward,MaxPoints=100,StepSize=2)
 ----------------------------------------------------------------------

 Structure from the checkpoint file:  "2003846667223680600001_R_Addition_MultipleBond_5_8_12_IRC_F.chk"
 ------------------------------
 Gaussian input prepared by ASE
 ------------------------------
 Charge =  0 Multiplicity = 1

 SCF Done:  E(RHF) =  -1194.90488823     A.U. after   19 cycles
 E2 =    -0.1296031038D+01 EUMP2 =    -0.11962009192702D+04
 SCF Done:  E(RHF) =  -1194.90499845     A.U. after   13 cycles
 E2 =    -0.1295991719D+01 EUMP2 =    -0.11962009901735D+04
 SCF Done:  E(RHF) =  -1194.90519099     A.U. after   13 cycles
 E2 =    -0.1295917065D+01 EUMP2 =    -0.11962011080594D+04
 SCF Done:  E(RHF) =  -1194.90546492     A.U. after   13 cycles
 E2 =    -0.1295807620D+01 EUMP2 =    -0.11962012725364D+04
 SCF Done:  E(RHF) =  -1194.90581895     A.U. after   13 cycles
 E2 =    -0.1295664114D+01 EUMP2 =    -0.11962014830656D+04
 SCF Done:  E(RHF) =  -1194.90625148     A.U. after   13 cycles
 E2 =    -0.1295487470D+01 EUMP2 =    -0.11962017389479D+04
 SCF Done:  E(RHF) =  -1194.90676054     A.U. after   13 cycles
 E2 =    -0.1295278789D+01 EUMP2 =    -0.11962020393242D+04
 SCF Done:  E(RHF) =  -1194.90734383     A.U. after   14 cycles
 E2 =    -0.1295039337D+01 EUMP2 =    -0.11962023831698D+04
 SCF Done:  E(RHF) =  -1194.90799876     A.U. after   14 cycles
 E2 =    -0.1294770528D+01 EUMP2 =    -0.11962027692865D+04
 SCF Done:  E(RHF) =  -1194.90872239     A.U. after   14 cycles
 E2 =    -0.1294473907D+01 EUMP2 =    -0.11962031962994D+04
 E2 =    -0.1294151133D+01 EUMP2 =    -0.11962036626513D+04
 E2 =    -0.1293803958D+01 EUMP2 =    -0.11962041665989D+04
 E2 =    -0.1293434215D+01 EUMP2 =    -0.11962047062110D+04
 E2 =    -0.1293043799D+01 EUMP2 =    -0.11962052793687D+04
 E2 =    -0.1292634656D+01 EUMP2 =    -0.11962058837666D+04
 E2 =    -0.1292208768D+01 EUMP2 =    -0.11962065169186D+04
 E2 =    -0.1291768148D+01 EUMP2 =    -0.11962071761628D+04
 E2 =    -0.1291314837D+01 EUMP2 =    -0.11962078586803D+04
 E2 =    -0.1290850887D+01 EUMP2 =    -0.11962085614984D+04
 E2 =    -0.1290378376D+01 EUMP2 =    -0.11962092815163D+04
 E2 =    -0.1285384565D+01 EUMP2 =    -0.11962380776053D+04
 E2 =    -0.1285513110D+01 EUMP2 =    -0.11962383409222D+04
 E2 =    -0.1285640937D+01 EUMP2 =    -0.11962386005353D+04
 E2 =    -0.1285767937D+01 EUMP2 =    -0.11962388565044D+04
 E2 =    -0.1285894010D+01 EUMP2 =    -0.11962391088880D+04
 E2 =    -0.1286019061D+01 EUMP2 =    -0.11962393577443D+04
 E2 =    -0.1286143003D+01 EUMP2 =    -0.11962396031308D+04
 E2 =    -0.1286265751D+01 EUMP2 =    -0.11962398451040D+04
 E2 =    -0.1286387229D+01 EUMP2 =    -0.11962400837198D+04
 E2 =    -0.1286507366D+01 EUMP2 =    -0.11962403190332D+04
 SCF Done:  E(RHF) =  -1194.95392500     A.U. after   12 cycles
 E2 =    -0.1286626096D+01 EUMP2 =    -0.11962405510983D+04
 SCF Done:  E(RHF) =  -1194.95403661     A.U. after   12 cycles
 E2 =    -0.1286743356D+01 EUMP2 =    -0.11962407799683D+04
 SCF Done:  E(RHF) =  -1194.95414660     A.U. after   12 cycles
 E2 =    -0.1286859092D+01 EUMP2 =    -0.11962410056955D+04
 SCF Done:  E(RHF) =  -1194.95425508     A.U. after   12 cycles
 E2 =    -0.1286973251D+01 EUMP2 =    -0.11962412283309D+04
 SCF Done:  E(RHF) =  -1194.95436214     A.U. after   12 cycles
 E2 =    -0.1287085787D+01 EUMP2 =    -0.11962414479247D+04
 SCF Done:  E(RHF) =  -1194.95446787     A.U. after   12 cycles
 E2 =    -0.1287196658D+01 EUMP2 =    -0.11962416645260D+04
 SCF Done:  E(RHF) =  -1194.95457236     A.U. after   12 cycles
 E2 =    -0.1287305826D+01 EUMP2 =    -0.11962418781827D+04
 SCF Done:  E(RHF) =  -1194.95467568     A.U. after   12 cycles
 E2 =    -0.1287413258D+01 EUMP2 =    -0.11962420889415D+04
 SCF Done:  E(RHF) =  -1194.95477792     A.U. after   12 cycles
 E2 =    -0.1287518924D+01 EUMP2 =    -0.11962422968480D+04
 SCF Done:  E(RHF) =  -1194.95487915     A.U. after   12 cycles
 E2 =    -0.1287622798D+01 EUMP2 =    -0.11962425019468D+04

                          Input orientation:
 ---------------------------------------------------------------------
 Center     Atomic      Atomic             Coordinates (Angstroms)
 Number     Number       Type             X           Y           Z
 ---------------------------------------------------------------------
      1          6           0       -1.200197    0.029075    0.920224
      2          6           0       -0.621733   -0.169015   -0.483038
      3          9           0       -0.923658   -1.425929   -0.977824
      4          9           0       -1.069272    0.825876   -1.346841
      5         16           0        1.405617    0.013717   -0.598538
      6          8           0        2.054651   -0.102708    1.079790
      7          8           0        1.902189   -1.070185   -1.647530
      8          8           0        1.734494    1.593201   -0.682249
      9          9           0       -0.782337   -1.006916    1.743733
     10          9           0       -0.767919    1.243155    1.443502
     11          9           0       -2.590887    0.031262    0.858775
     12          1           0        2.409028    0.829400    1.171762
 ---------------------------------------------------------------------

 Normal termination of Gaussian 16 at Fri May 23 03:35:13 2025.
