 Gaussian 16, Revision C.01,
 Gaussian 16:  ES64L-G16RevC.01  3-Jul-2019

 ----------------------------------------------------------------------
 #P wb97xd/6-311++G(d,p) Symm(None) scf(xqc) pop(None) opt(NoFreeze,TS,
 CalcAll,NoEigentest,MaxCycle=999)
 ----------------------------------------------------------------------

 ------------------------------
 Gaussian input prepared by ASE
 ------------------------------
 Symbolic Z-matrix:
 Charge =  0 Multiplicity = 1

 SCF Done:  E(RwB97XD) =  -1199.66636390     A.U. after   17 cycles
 SCF Done:  E(RwB97XD) =  -1199.66800187     A.U. after   15 cycles
 SCF Done:  E(RwB97XD) =  -1199.67087526     A.U. after   15 cycles
 SCF Done:  E(RwB97XD) =  -1199.67375504     A.U. after   15 cycles
 SCF Done:  E(RwB97XD) =  -1199.67444519     A.U. after   14 cycles
 SCF Done:  E(RwB97XD) =  -1199.67453436     A.U. after   14 cycles
 SCF Done:  E(RwB97XD) =  -1199.67453734     A.U. after   12 cycles

 Isotropic polarizability for W=    0.000000       70.56 Bohr**3.
 End of Minotr F.D. properties file   721 does not exist.

 Optimization completed.
    -- Stationary point found.

                          Input orientation:
 ---------------------------------------------------------------------
 Center     Atomic      Atomic             Coordinates (Angstroms)
 Number     Number       Type             X           Y           Z
 ---------------------------------------------------------------------
      1          6           0        1.780739   -0.040251   -0.078062
      2          6           0        2.361133    1.242847    0.065012
      3          9           0        3.122724    1.424866    1.134949
      4          9           0        2.911031    1.732084   -1.034211
      5         16           0        0.466570    2.476423    0.498440
      6          8           0        0.605401    2.266214    1.915644
      7          8           0        1.069998    3.517723   -0.289935
      8          8           0       -1.088840    2.764074    0.208120
      9          9           0       -0.056725    0.682809   -0.152488
     10          9           0        1.664086   -0.620285   -1.211363
     11          9           0        1.599962   -0.793355    0.936442
     12          1           0       -1.613159    2.006416    0.498735
 ---------------------------------------------------------------------

 ******    1 imaginary frequencies (negative Signs) ******

                      1                      2                      3
                      A                      A                      A
 Frequencies --   -643.3289                36.1358                77.2421
 Red. masses --     14.0577                13.8700                 8.3129
 Frc consts  --      3.4279                 0.0107                 0.0292
 IR Inten    --    191.9923                 1.0315                 8.7575

                      4                      5                      6
                      A                      A                      A
 Frequencies --    171.0708               191.8913               197.6213
 Red. masses --     12.6552                11.7945                11.5977
 Frc consts  --      0.2182                 0.2559                 0.2669
 IR Inten    --     17.7235                 5.3154                 3.8388

                      7                      8                      9
                      A                      A                      A
 Frequencies --    214.5551               239.6597               277.1095
 Red. masses --     18.1856                 3.8758                 7.7310
 Frc consts  --      0.4932                 0.1312                 0.3498
 IR Inten    --      4.8106                15.6035                 6.6238

                     10                     11                     12
                      A                      A                      A
 Frequencies --    303.4981               329.3269               370.4376
 Red. masses --     13.7291                13.7435                11.0085
 Frc consts  --      0.7451                 0.8782                 0.8900
 IR Inten    --     11.3077                13.4565                63.5027

                     13                     14                     15
                      A                      A                      A
 Frequencies --    423.3564               437.8467               488.8322
 Red. masses --      3.3106                 5.0091                 6.8668
 Frc consts  --      0.3496                 0.5658                 0.9668
 IR Inten    --    142.9604                91.2870                36.1862

                     16                     17                     18
                      A                      A                      A
 Frequencies --    521.4107               545.9899               556.0687
 Red. masses --     10.2507                14.8826                15.0748
 Frc consts  --      1.6420                 2.6140                 2.7464
 IR Inten    --    117.2307               156.2622               102.9202

                     19                     20                     21
                      A                      A                      A
 Frequencies --    600.8616               681.0424               782.4360
 Red. masses --     16.9989                12.2641                15.9290
 Frc consts  --      3.6159                 3.3515                 5.7456
 IR Inten    --      9.0420                14.8454               222.9232

                     22                     23                     24
                      A                      A                      A
 Frequencies --    821.8922              1134.3212              1198.7581
 Red. masses --     17.0412                10.0584                 2.5119
 Frc consts  --      6.7823                 7.6252                 2.1268
 IR Inten    --    196.8217                73.5385               243.9869

                     25                     26                     27
                      A                      A                      A
 Frequencies --   1205.3132              1293.3942              1400.9573
 Red. masses --      2.1285                13.1117                13.2691
 Frc consts  --      1.8219                12.9232                15.3441
 IR Inten    --    195.3170               122.9092               194.7385

                     28                     29                     30
                      A                      A                      A
 Frequencies --   1457.9617              1559.4428              3830.7622
 Red. masses --     13.2550                12.5221                 1.0659
 Frc consts  --     16.6005                17.9418                 9.2156
 IR Inten    --    345.6665               701.5449               134.4853

 - Thermochemistry -
 -------------------
 Temperature   298.150 Kelvin.  Pressure   1.00000 Atm.
 Atom     1 has atomic number  6 and mass  12.00000

 Molecular mass:   199.95666 amu.
 Principal axes and moments of inertia in atomic units:
                           1         2         3
     Eigenvalues --  1275.741352105.993532373.09112
           X           -0.59544   0.79791   0.09379
           Y            0.78328   0.60252  -0.15310
           Z            0.17867   0.01770   0.98375
 This molecule is an asymmetric top.
 Rotational symmetry number  1.
 Warning -- assumption of classical behavior for rotation
           may cause significant error
 Rotational temperatures (Kelvin)      0.06789     0.04113     0.03650
 Rotational constants (GHZ):           1.41466     0.85695     0.76050
    1 imaginary frequencies ignored.
 Zero-point vibrational energy     127696.5 (Joules/Mol)
                                   30.52021 (Kcal/Mol)
 Warning -- explicit consideration of  18 degrees of freedom as
           vibrations may cause significant error
 Vibrational temperatures:     51.99   111.13   246.13   276.09   284.33
          (Kelvin)            308.70   344.82   398.70   436.67   473.83
                              532.98   609.12   629.96   703.32   750.19
                              785.56   800.06   864.51   979.87  1125.75
                             1182.52  1632.04  1724.75  1734.18  1860.91
                             2015.67  2097.68  2243.69  5511.61

 Zero-point correction=                           0.048637 (Hartree/Particle)
 Thermal correction to Energy=                    0.059388
 Thermal correction to Enthalpy=                  0.060332
 Thermal correction to Gibbs Free Energy=         0.011482
 Sum of electronic and zero-point Energies=          -1199.625900
 Sum of electronic and thermal Energies=             -1199.615150
 Sum of electronic and thermal Enthalpies=           -1199.614205
 Sum of electronic and thermal Free Energies=        -1199.663055

                     E (Thermal)             CV                S
                      KCal/Mol        Cal/Mol-Kelvin    Cal/Mol-Kelvin
 Total                   37.266             37.426            102.813
 Electronic               0.000              0.000              0.000
 Translational            0.889              2.981             41.783
 Rotational               0.889              2.981             30.234
 Vibrational             35.489             31.464             30.796
 Vibration     1          0.594              1.982              5.460
 Vibration     2          0.599              1.964              3.960
 Vibration     3          0.626              1.878              2.424
 Vibration     4          0.634              1.851              2.209
 Vibration     5          0.637              1.843              2.155
 Vibration     6          0.644              1.819              2.005
 Vibration     7          0.657              1.780              1.805
 Vibration     8          0.678              1.716              1.551
 Vibration     9          0.695              1.667              1.398
 Vibration    10          0.712              1.617              1.263
 Vibration    11          0.742              1.533              1.078
 Vibration    12          0.786              1.419              0.881
 Vibration    13          0.798              1.388              0.833
 Vibration    14          0.845              1.275              0.687
 Vibration    15          0.876              1.203              0.607
 Vibration    16          0.901              1.148              0.553
 Vibration    17          0.912              1.126              0.532
 Vibration    18          0.959              1.030              0.448

 Normal termination of Gaussian 16 at Fri May 23 04:07:31 2025.
