 Gaussian 16, Revision C.01,
 Gaussian 16:  ES64L-G16RevC.01  3-Jul-2019

 ----------------------------------------------------------------------
 #P wb97xd/6-311++G(d,p) Symm(None) scf(xqc) pop(None) freq opt(CalcFC,
  Tight)
 ----------------------------------------------------------------------

 ------------------------------
 Gaussian input prepared by ASE
 ------------------------------
 Symbolic Z-matrix:
 Charge =  0 Multiplicity = 1

 SCF Done:  E(RwB97XD) =  -1199.82551530     A.U. after   15 cycles
 SCF Done:  E(RwB97XD) =  -1199.82551533     A.U. after    7 cycles
 Optimization completed.
    -- Stationary point found.
 Normal termination of Gaussian 16 at Fri May 23 04:15:34 2025.

 ----------------------------------------------------------------------
 #P Geom=AllCheck Guess=TCheck SCRF=Check GenChk RwB97XD/6-311++G(d,p)
 Freq
 ----------------------------------------------------------------------

 Structure from the checkpoint file:  "2003847066703800600001_well.chk"
 ------------------------------
 Gaussian input prepared by ASE
 ------------------------------
 Charge =  0 Multiplicity = 1

                          Input orientation:
 ---------------------------------------------------------------------
 Center     Atomic      Atomic             Coordinates (Angstroms)
 Number     Number       Type             X           Y           Z
 ---------------------------------------------------------------------
      1          6           0       -0.741744   -0.807775    1.015502
      2          6           0        0.170614    0.967811   -1.235846
      3          9           0       -0.938085    0.331585   -1.671241
      4          9           0       -0.163851    2.185426   -0.854947
      5         16           0        0.808586   -0.025919    0.259083
      6          8           0        1.351235    0.862310    1.253301
      7          8           0        1.576498   -1.094020   -0.353716
      8          8           0        1.135815    1.021835   -2.149852
      9          9           0       -0.390280   -1.307488    2.185293
     10          9           0       -1.661853    0.127394    1.184506
     11          9           0       -1.207643   -1.766736    0.241531
     12          1           0        1.533231    0.146830   -2.263213
 ---------------------------------------------------------------------

 SCF Done:  E(RwB97XD) =  -1199.82551533     A.U. after    1 cycles

 Isotropic polarizability for W=    0.000000       58.33 Bohr**3.
 End of Minotr F.D. properties file   721 does not exist.

                      1                      2                      3
                      A                      A                      A
 Frequencies --     38.9029                61.4377               109.7111
 Red. masses --     13.8667                17.8152                16.6391
 Frc consts  --      0.0124                 0.0396                 0.1180
 IR Inten    --      1.1078                 0.1880                 0.3899

                      4                      5                      6
                      A                      A                      A
 Frequencies --    189.4340               195.6971               232.6006
 Red. masses --     13.2536                12.9042                 9.0269
 Frc consts  --      0.2802                 0.2912                 0.2877
 IR Inten    --     10.3284                 2.4793                25.7691

                      7                      8                      9
                      A                      A                      A
 Frequencies --    264.7973               283.4955               307.2054
 Red. masses --      6.0556                10.7958                17.1234
 Frc consts  --      0.2502                 0.5112                 0.9521
 IR Inten    --     17.8905                12.3425                 0.1739

                     10                     11                     12
                      A                      A                      A
 Frequencies --    328.1196               388.7683               415.9808
 Red. masses --      9.7059                 3.3894                 2.2642
 Frc consts  --      0.6157                 0.3018                 0.2308
 IR Inten    --      3.2364                24.9807                78.4795

                     13                     14                     15
                      A                      A                      A
 Frequencies --    522.2378               530.9198               549.2249
 Red. masses --     18.7967                11.2788                10.9018
 Frc consts  --      3.0204                 1.8731                 1.9375
 IR Inten    --     34.7006                31.4240                 8.0514

                     16                     17                     18
                      A                      A                      A
 Frequencies --    569.8645               593.1261               632.0908
 Red. masses --     12.6267                13.2804                17.0247
 Frc consts  --      2.4159                 2.7527                 4.0076
 IR Inten    --      6.4032                42.0825               132.6371

                     19                     20                     21
                      A                      A                      A
 Frequencies --    767.4109               791.4990              1035.7094
 Red. masses --     14.5871                16.7890                 6.4921
 Frc consts  --      5.0615                 6.1969                 4.1031
 IR Inten    --      9.8161                 1.1573               235.2218

                     22                     23                     24
                      A                      A                      A
 Frequencies --   1110.2604              1138.9037              1221.0581
 Red. masses --     12.4640                 3.3085                10.1809
 Frc consts  --      9.0523                 2.5285                 8.9435
 IR Inten    --    185.3422               168.1047               170.2735

                     25                     26                     27
                      A                      A                      A
 Frequencies --   1244.3192              1261.4595              1306.6723
 Red. masses --     13.1562                13.0568                 5.3445
 Frc consts  --     12.0017                12.2415                 5.3763
 IR Inten    --    273.1919               259.0196               406.1429

                     28                     29                     30
                      A                      A                      A
 Frequencies --   1374.3045              1418.9353              3794.8744
 Red. masses --      5.5438                 3.7066                 1.0657
 Frc consts  --      6.1692                 4.3969                 9.0426
 IR Inten    --     98.1739               301.4691               117.7687

 - Thermochemistry -
 -------------------
 Temperature   298.150 Kelvin.  Pressure   1.00000 Atm.
 Atom     1 has atomic number  6 and mass  12.00000

 Molecular mass:   199.95666 amu.
 Principal axes and moments of inertia in atomic units:
                           1         2         3
     Eigenvalues --  1204.311222140.849342340.73513
           X           -0.30336   0.94663  -0.10891
           Y           -0.58912  -0.09650   0.80226
           Z            0.74894   0.30753   0.58696
 This molecule is an asymmetric top.
 Rotational symmetry number  1.
 Warning -- assumption of classical behavior for rotation
           may cause significant error
 Rotational temperatures (Kelvin)      0.07192     0.04046     0.03700
 Rotational constants (GHZ):           1.49857     0.84300     0.77101
 Zero-point vibrational energy     135650.7 (Joules/Mol)
                                   32.42129 (Kcal/Mol)
 Warning -- explicit consideration of  17 degrees of freedom as
           vibrations may cause significant error
 Vibrational temperatures:     55.97    88.40   157.85   272.55   281.56
          (Kelvin)            334.66   380.98   407.89   442.00   472.09
                              559.35   598.50   751.38   763.88   790.21
                              819.91   853.38   909.44  1104.13  1138.79
                             1490.15  1597.42  1638.63  1756.83  1790.30
                             1814.96  1880.01  1977.32  2041.53  5459.98

 Zero-point correction=                           0.051667 (Hartree/Particle)
 Thermal correction to Energy=                    0.062260
 Thermal correction to Enthalpy=                  0.063205
 Thermal correction to Gibbs Free Energy=         0.014343
 Sum of electronic and zero-point Energies=          -1199.773849
 Sum of electronic and thermal Energies=             -1199.763255
 Sum of electronic and thermal Enthalpies=           -1199.762311
 Sum of electronic and thermal Free Energies=        -1199.811172

                     E (Thermal)             CV                S
                      KCal/Mol        Cal/Mol-Kelvin    Cal/Mol-Kelvin
 Total                   39.069             36.757            102.838
 Electronic               0.000              0.000              0.000
 Translational            0.889              2.981             41.783
 Rotational               0.889              2.981             30.180
 Vibrational             37.292             30.796             30.874
 Vibration     1          0.594              1.981              5.314
 Vibration     2          0.597              1.973              4.410
 Vibration     3          0.606              1.941              3.274
 Vibration     4          0.633              1.854              2.233
 Vibration     5          0.636              1.846              2.173
 Vibration     6          0.653              1.791              1.859
 Vibration     7          0.671              1.738              1.630
 Vibration     8          0.682              1.704              1.512
 Vibration     9          0.697              1.660              1.377
 Vibration    10          0.711              1.619              1.269
 Vibration    11          0.757              1.494              1.005
 Vibration    12          0.779              1.436              0.906
 Vibration    13          0.877              1.201              0.605
 Vibration    14          0.886              1.182              0.585
 Vibration    15          0.904              1.141              0.546
 Vibration    16          0.926              1.096              0.504
 Vibration    17          0.951              1.046              0.462

 Optimization completed.
    -- Stationary point found.
 Normal termination of Gaussian 16 at Fri May 23 04:16:48 2025.
