 Gaussian 16, Revision C.01,
 Gaussian 16:  ES64L-G16RevC.01  3-Jul-2019

 ----------------------------------------------------------------------
 #P wb97xd/6-311++G(d,p) Symm(None) scf(xqc) pop(None) geom(AllCheck,No
 KeepConstants) guess(Read) irc(RCFC,reverse,MaxPoints=100,StepSize=2)
 ----------------------------------------------------------------------

 Structure from the checkpoint file:  "2003846667223680600001_r12_insertion_R_8_5_6_IRC_R.chk"
 ------------------------------
 Gaussian input prepared by ASE
 ------------------------------
 Charge =  0 Multiplicity = 1

 SCF Done:  E(RwB97XD) =  -1199.82201603     A.U. after    9 cycles

                          Input orientation:
 ---------------------------------------------------------------------
 Center     Atomic      Atomic             Coordinates (Angstroms)
 Number     Number       Type             X           Y           Z
 ---------------------------------------------------------------------
      1          6           0       -1.264770   -0.306330    0.782219
      2          6           0       -0.415394    0.375404   -0.362054
      3          9           0       -0.904740    0.037212   -1.550505
      4          9           0       -0.469055    1.705945   -0.233772
      5         16           0        1.398341   -0.097734   -0.328475
      6          8           0        1.962852    0.452579    0.872171
      7          8           0        1.500293   -1.468436   -0.713951
      8          8           0        1.884542    0.777508   -1.581631
      9          9           0       -0.495009   -1.082072    1.538440
     10          9           0       -1.816724    0.621867    1.550065
     11          9           0       -2.222972   -1.049386    0.249875
     12          1           0        2.153527    1.657860   -1.288033
 ---------------------------------------------------------------------

 Normal termination of Gaussian 16 at Fri May 23 03:38:41 2025.
