 Gaussian 16, Revision C.01,
 Gaussian 16:  ES64L-G16RevC.01  3-Jul-2019

 ----------------------------------------------------------------------
 #P wb97xd/6-311++G(d,p) Symm(None) scf(xqc) pop(None) freq opt(CalcFC)
 ----------------------------------------------------------------------

 ------------------------------
 Gaussian input prepared by ASE
 ------------------------------
 Symbolic Z-matrix:
 Charge =  0 Multiplicity = 1

 SCF Done:  E(RwB97XD) =  -1199.81848173     A.U. after   14 cycles
 SCF Done:  E(RwB97XD) =  -1199.82519673     A.U. after   13 cycles
 SCF Done:  E(RwB97XD) =  -1199.82588374     A.U. after   11 cycles
 SCF Done:  E(RwB97XD) =  -1199.82597894     A.U. after   11 cycles
 SCF Done:  E(RwB97XD) =  -1199.82598015     A.U. after   10 cycles
 Optimization completed.
    -- Stationary point found.
 Normal termination of Gaussian 16 at Fri May 23 04:11:36 2025.

 ----------------------------------------------------------------------
 #P Geom=AllCheck Guess=TCheck SCRF=Check GenChk RwB97XD/6-311++G(d,p)
 Freq
 ----------------------------------------------------------------------

 Structure from the checkpoint file:  "2003846667223680600001_r12_insertion_R_12_8_5_IRC_R_prod.chk"
 ------------------------------
 Gaussian input prepared by ASE
 ------------------------------
 Charge =  0 Multiplicity = 1

                          Input orientation:
 ---------------------------------------------------------------------
 Center     Atomic      Atomic             Coordinates (Angstroms)
 Number     Number       Type             X           Y           Z
 ---------------------------------------------------------------------
      1          6           0       -1.190524   -0.341799    0.756424
      2          6           0       -0.425235    0.176421   -0.494662
      3          9           0       -0.824257   -0.511621   -1.562336
      4          9           0       -0.708256    1.473832   -0.673014
      5         16           0        1.443928    0.025657   -0.416296
      6          8           0        1.778773    1.212981    0.604748
      7          8           0        1.771240   -1.198003    0.242790
      8          8           0        1.915502    0.382238   -1.724411
      9          9           0       -1.081225   -1.656005    0.856618
     10          9           0       -0.718943    0.228471    1.858703
     11          9           0       -2.476891   -0.025549    0.628103
     12          1           0        1.884113    2.046710    0.127822
 ---------------------------------------------------------------------

 SCF Done:  E(RwB97XD) =  -1199.82598015     A.U. after    1 cycles

 Isotropic polarizability for W=    0.000000       55.76 Bohr**3.
 End of Minotr F.D. properties file   721 does not exist.

                      1                      2                      3
                      A                      A                      A
 Frequencies --     45.2847                66.7469               130.6877
 Red. masses --     13.0734                16.2523                16.6918
 Frc consts  --      0.0158                 0.0427                 0.1680
 IR Inten    --      2.0102                 0.3744                 0.7608

                      4                      5                      6
                      A                      A                      A
 Frequencies --    189.8197               223.2257               239.4147
 Red. masses --      5.5939                17.1399                14.8662
 Frc consts  --      0.1188                 0.5032                 0.5021
 IR Inten    --     14.2512                 1.3079                 7.3297

                      7                      8                      9
                      A                      A                      A
 Frequencies --    276.1234               311.0750               316.9537
 Red. masses --     12.2225                16.2946                 5.6776
 Frc consts  --      0.5491                 0.9290                 0.3360
 IR Inten    --      0.8184                 0.3602                11.8272

                     10                     11                     12
                      A                      A                      A
 Frequencies --    344.5984               373.9185               436.2004
 Red. masses --      1.9725                 7.4685                11.9424
 Frc consts  --      0.1380                 0.6152                 1.3388
 IR Inten    --     54.9747                 8.1732                16.3057

                     13                     14                     15
                      A                      A                      A
 Frequencies --    457.7832               510.3061               537.9283
 Red. masses --      4.3726                14.2430                17.9956
 Frc consts  --      0.5399                 2.1853                 3.0681
 IR Inten    --     36.1551                13.3264                23.4587

                     16                     17                     18
                      A                      A                      A
 Frequencies --    600.5917               609.0777               654.2096
 Red. masses --     17.4319                20.2569                17.1102
 Frc consts  --      3.7047                 4.4276                 4.3146
 IR Inten    --      4.0601               119.8972                25.1673

                     19                     20                     21
                      A                      A                      A
 Frequencies --    764.9697               833.9737              1005.9253
 Red. masses --     17.1771                17.4386                13.5138
 Frc consts  --      5.9223                 7.1461                 8.0567
 IR Inten    --     20.2244               195.7365               112.9975

                     22                     23                     24
                      A                      A                      A
 Frequencies --   1131.9712              1152.9122              1206.0943
 Red. masses --      1.1905                14.0295                13.8031
 Frc consts  --      0.8988                10.9871                11.8301
 IR Inten    --     91.0408               133.8643                47.1736

                     25                     26                     27
                      A                      A                      A
 Frequencies --   1224.3044              1234.9116              1260.5134
 Red. masses --     14.0202                13.3980                13.2953
 Frc consts  --     12.3818                12.0382                12.4464
 IR Inten    --    196.3901               214.5417               396.4719

                     28                     29                     30
                      A                      A                      A
 Frequencies --   1345.1747              1444.1023              3835.0610
 Red. masses --     12.6777                14.1665                 1.0663
 Frc consts  --     13.5160                17.4064                 9.2397
 IR Inten    --     96.5138               293.8372               163.4968

 - Thermochemistry -
 -------------------
 Temperature   298.150 Kelvin.  Pressure   1.00000 Atm.
 Atom     1 has atomic number  6 and mass  12.00000

 Molecular mass:   199.95666 amu.
 Principal axes and moments of inertia in atomic units:
                           1         2         3
     Eigenvalues --  1146.439062162.507682302.18497
           X            0.91780   0.39701  -0.00401
           Y            0.15903  -0.35835   0.91994
           Z           -0.36379   0.84496   0.39203
 This molecule is an asymmetric top.
 Rotational symmetry number  1.
 Warning -- assumption of classical behavior for rotation
           may cause significant error
 Rotational temperatures (Kelvin)      0.07555     0.04005     0.03762
 Rotational constants (GHZ):           1.57421     0.83456     0.78393
 Zero-point vibrational energy     136158.1 (Joules/Mol)
                                   32.54257 (Kcal/Mol)
 Warning -- explicit consideration of  17 degrees of freedom as
           vibrations may cause significant error
 Vibrational temperatures:     65.15    96.03   188.03   273.11   321.17
          (Kelvin)            344.46   397.28   447.57   456.03   495.80
                              537.99   627.60   658.65   734.22   773.96
                              864.12   876.33   941.26  1100.62  1199.90
                             1447.30  1628.65  1658.78  1735.30  1761.50
                             1776.76  1813.60  1935.41  2077.74  5517.80

 Zero-point correction=                           0.051860 (Hartree/Particle)
 Thermal correction to Energy=                    0.062284
 Thermal correction to Enthalpy=                  0.063228
 Thermal correction to Gibbs Free Energy=         0.015036
 Sum of electronic and zero-point Energies=          -1199.774120
 Sum of electronic and thermal Energies=             -1199.763696
 Sum of electronic and thermal Enthalpies=           -1199.762752
 Sum of electronic and thermal Free Energies=        -1199.810944

                     E (Thermal)             CV                S
                      KCal/Mol        Cal/Mol-Kelvin    Cal/Mol-Kelvin
 Total                   39.084             36.617            101.429
 Electronic               0.000              0.000              0.000
 Translational            0.889              2.981             41.783
 Rotational               0.889              2.981             30.124
 Vibrational             37.306             30.655             29.521
 Vibration     1          0.595              1.979              5.013
 Vibration     2          0.598              1.970              4.247
 Vibration     3          0.612              1.923              2.936
 Vibration     4          0.633              1.854              2.230
 Vibration     5          0.649              1.806              1.933
 Vibration     6          0.657              1.780              1.807
 Vibration     7          0.678              1.718              1.558
 Vibration     8          0.700              1.653              1.357
 Vibration     9          0.704              1.641              1.326
 Vibration    10          0.723              1.586              1.191
 Vibration    11          0.745              1.526              1.064
 Vibration    12          0.797              1.391              0.839
 Vibration    13          0.816              1.344              0.773
 Vibration    14          0.865              1.227              0.633
 Vibration    15          0.893              1.166              0.570
 Vibration    16          0.959              1.031              0.449
 Vibration    17          0.968              1.013              0.434

 Optimization completed.
    -- Stationary point found.
 Normal termination of Gaussian 16 at Fri May 23 04:12:50 2025.
