 Gaussian 16, Revision C.01,
 Gaussian 16:  ES64L-G16RevC.01  3-Jul-2019

 ----------------------------------------------------------------------
 #P wb97xd/6-311++G(d,p) Symm(None) scf(xqc) pop(None) geom(AllCheck,No
 KeepConstants) guess(Read) irc(RCFC,reverse,MaxPoints=100,StepSize=2)
 ----------------------------------------------------------------------

 Structure from the checkpoint file:  "2003846667223680600001_r12_insertion_R_9_1_10_IRC_R.chk"
 ------------------------------
 Gaussian input prepared by ASE
 ------------------------------
 Charge =  0 Multiplicity = 1

 SCF Done:  E(RwB97XD) =  -1199.66370744     A.U. after   12 cycles
 SCF Done:  E(RwB97XD) =  -1199.66380606     A.U. after   12 cycles
 SCF Done:  E(RwB97XD) =  -1199.66397355     A.U. after   12 cycles
 SCF Done:  E(RwB97XD) =  -1199.66421197     A.U. after   12 cycles
 SCF Done:  E(RwB97XD) =  -1199.66452294     A.U. after   12 cycles
 SCF Done:  E(RwB97XD) =  -1199.66490780     A.U. after   12 cycles
 SCF Done:  E(RwB97XD) =  -1199.66536786     A.U. after   12 cycles
 SCF Done:  E(RwB97XD) =  -1199.66590440     A.U. after   12 cycles
 SCF Done:  E(RwB97XD) =  -1199.66651868     A.U. after   12 cycles
 SCF Done:  E(RwB97XD) =  -1199.66721169     A.U. after   13 cycles
 SCF Done:  E(RwB97XD) =  -1199.79646061     A.U. after   10 cycles
 SCF Done:  E(RwB97XD) =  -1199.79726038     A.U. after   10 cycles
 SCF Done:  E(RwB97XD) =  -1199.79804241     A.U. after   10 cycles
 SCF Done:  E(RwB97XD) =  -1199.79880747     A.U. after   10 cycles
 SCF Done:  E(RwB97XD) =  -1199.79955619     A.U. after   10 cycles
 SCF Done:  E(RwB97XD) =  -1199.80028910     A.U. after   10 cycles
 SCF Done:  E(RwB97XD) =  -1199.80100656     A.U. after   10 cycles
 SCF Done:  E(RwB97XD) =  -1199.80170889     A.U. after   10 cycles
 SCF Done:  E(RwB97XD) =  -1199.80239645     A.U. after   10 cycles
 SCF Done:  E(RwB97XD) =  -1199.80306966     A.U. after   10 cycles

                          Input orientation:
 ---------------------------------------------------------------------
 Center     Atomic      Atomic             Coordinates (Angstroms)
 Number     Number       Type             X           Y           Z
 ---------------------------------------------------------------------
      1          6           0       -1.186542   -0.464706    0.702106
      2          6           0       -0.564891    0.427982   -0.415721
      3          9           0       -0.962802    0.095778   -1.639872
      4          9           0       -0.854812    1.718769   -0.260299
      5         16           0        1.367292    0.040499   -0.230055
      6          8           0        2.044933    0.522253    0.948947
      7          8           0        1.562922   -1.299245   -0.698287
      8          8           0        1.677268    1.077028   -1.412876
      9          9           0       -1.933393    0.211460    1.555098
     10          9           0       -0.136655   -0.945026    1.381422
     11          9           0       -1.871846   -1.475617    0.205027
     12          1           0        2.171582    1.829901   -1.067506
 ---------------------------------------------------------------------

 Normal termination of Gaussian 16 at Fri May 23 04:22:55 2025.
