 Gaussian 16, Revision C.01,
 Gaussian 16:  ES64L-G16RevC.01  3-Jul-2019

 ----------------------------------------------------------------------
 #P wb97xd/6-311++G(d,p) Symm(None) scf(xqc) pop(None) geom(AllCheck,No
 KeepConstants) guess(Read) irc(RCFC,reverse,MaxPoints=100,StepSize=2)
 ----------------------------------------------------------------------

 Structure from the checkpoint file:  "2003846667223680600001_r12_insertion_R_2_5_8_IRC_R.chk"
 ------------------------------
 Gaussian input prepared by ASE
 ------------------------------
 Charge =  0 Multiplicity = 1

 SCF Done:  E(RwB97XD) =  -1199.82202928     A.U. after    9 cycles
 SCF Done:  E(RwB97XD) =  -1199.82202938     A.U. after    6 cycles

                          Input orientation:
 ---------------------------------------------------------------------
 Center     Atomic      Atomic             Coordinates (Angstroms)
 Number     Number       Type             X           Y           Z
 ---------------------------------------------------------------------
      1          6           0       -1.297899   -0.528429    0.584553
      2          6           0       -0.414847    0.348595   -0.388403
      3          9           0       -0.661553    0.003913   -1.657291
      4          9           0       -0.706443    1.635124   -0.227109
      5         16           0        1.428313    0.135996   -0.119832
      6          8           0        1.759554    0.731719    1.134537
      7          8           0        1.763512   -1.209614   -0.493751
      8          8           0        1.941388    1.137594   -1.262811
      9          9           0       -0.528830   -1.243609    1.398929
     10          9           0       -2.076279    0.254899    1.315435
     11          9           0       -2.058161   -1.356147   -0.117293
     12          1           0        2.051387    0.662129   -2.096721
 ---------------------------------------------------------------------

 Normal termination of Gaussian 16 at Fri May 23 03:33:21 2025.
