 Gaussian 16, Revision C.01,
 Gaussian 16:  ES64L-G16RevC.01  3-Jul-2019

 ----------------------------------------------------------------------
 #P wb97xd/6-311++G(d,p) Symm(None) scf(xqc) pop(None) geom(AllCheck,No
 KeepConstants) guess(Read) irc(RCFC,reverse,MaxPoints=100,StepSize=2)
 ----------------------------------------------------------------------

 Structure from the checkpoint file:  "2003846667223680600001_r12_insertion_R_1_2_5_IRC_R.chk"
 ------------------------------
 Gaussian input prepared by ASE
 ------------------------------
 Charge =  0 Multiplicity = 1

 SCF Done:  E(RwB97XD) =  -1199.67707792     A.U. after   13 cycles
 SCF Done:  E(RwB97XD) =  -1199.67730302     A.U. after   13 cycles
 SCF Done:  E(RwB97XD) =  -1199.67767745     A.U. after   13 cycles
 SCF Done:  E(RwB97XD) =  -1199.67820106     A.U. after   13 cycles
 SCF Done:  E(RwB97XD) =  -1199.67887318     A.U. after   13 cycles
 SCF Done:  E(RwB97XD) =  -1199.67969178     A.U. after   13 cycles
 SCF Done:  E(RwB97XD) =  -1199.68065308     A.U. after   13 cycles
 SCF Done:  E(RwB97XD) =  -1199.68175187     A.U. after   13 cycles
 SCF Done:  E(RwB97XD) =  -1199.68298188     A.U. after   12 cycles
 SCF Done:  E(RwB97XD) =  -1199.68433623     A.U. after   12 cycles
 SCF Done:  E(RwB97XD) =  -1199.81087035     A.U. after   10 cycles
 SCF Done:  E(RwB97XD) =  -1199.81139945     A.U. after   10 cycles
 SCF Done:  E(RwB97XD) =  -1199.81191609     A.U. after   10 cycles
 SCF Done:  E(RwB97XD) =  -1199.81242036     A.U. after   10 cycles
 SCF Done:  E(RwB97XD) =  -1199.81291229     A.U. after   10 cycles
 SCF Done:  E(RwB97XD) =  -1199.81339195     A.U. after   10 cycles
 SCF Done:  E(RwB97XD) =  -1199.81385935     A.U. after   10 cycles
 SCF Done:  E(RwB97XD) =  -1199.81431451     A.U. after    9 cycles
 SCF Done:  E(RwB97XD) =  -1199.81475742     A.U. after    9 cycles
 SCF Done:  E(RwB97XD) =  -1199.81518804     A.U. after    9 cycles

                          Input orientation:
 ---------------------------------------------------------------------
 Center     Atomic      Atomic             Coordinates (Angstroms)
 Number     Number       Type             X           Y           Z
 ---------------------------------------------------------------------
      1          6           0       -0.377828   -0.427516    0.573408
      2          6           0       -1.346044    0.000128   -0.526936
      3          9           0       -0.934855   -0.507826   -1.689503
      4          9           0       -1.371956    1.321610   -0.608342
      5         16           0        1.466304    0.253772    0.180606
      6          8           0        1.694605    1.276340    1.152120
      7          8           0        2.279648   -0.918869    0.002372
      8          8           0        1.476103    1.025957   -1.237655
      9          9           0       -0.381260   -1.755552    0.653895
     10          9           0       -0.811437    0.056941    1.732771
     11          9           0       -2.559599   -0.458585   -0.249391
     12          1           0        1.727371    0.406630   -1.936126
 ---------------------------------------------------------------------

 Normal termination of Gaussian 16 at Fri May 23 04:26:15 2025.
