 Gaussian 16, Revision C.01,
 Gaussian 16:  ES64L-G16RevC.01  3-Jul-2019

 ----------------------------------------------------------------------
 #P wb97xd/6-311++G(d,p) Symm(None) scf(xqc) pop(None) freq opt(CalcFC)
 ----------------------------------------------------------------------

 ------------------------------
 Gaussian input prepared by ASE
 ------------------------------
 Symbolic Z-matrix:
 Charge =  0 Multiplicity = 1

 SCF Done:  E(RwB97XD) =  -1199.81804982     A.U. after   14 cycles
 SCF Done:  E(RwB97XD) =  -1199.82489683     A.U. after   13 cycles
 SCF Done:  E(RwB97XD) =  -1199.82576483     A.U. after   12 cycles
 SCF Done:  E(RwB97XD) =  -1199.82587608     A.U. after   11 cycles
 SCF Done:  E(RwB97XD) =  -1199.82587842     A.U. after   10 cycles
 SCF Done:  E(RwB97XD) =  -1199.82587847     A.U. after    9 cycles
 Optimization completed.
    -- Stationary point found.
 Normal termination of Gaussian 16 at Fri May 23 02:50:25 2025.

 ----------------------------------------------------------------------
 #P Geom=AllCheck Guess=TCheck SCRF=Check GenChk RwB97XD/6-311++G(d,p)
 Freq
 ----------------------------------------------------------------------

 Structure from the checkpoint file:  "2003846667223680600001_intra_H_migration_5_12_IRC_R_prod.chk"
 ------------------------------
 Gaussian input prepared by ASE
 ------------------------------
 Charge =  0 Multiplicity = 1

                          Input orientation:
 ---------------------------------------------------------------------
 Center     Atomic      Atomic             Coordinates (Angstroms)
 Number     Number       Type             X           Y           Z
 ---------------------------------------------------------------------
      1          6           0       -1.106446    0.129174    0.911807
      2          6           0       -0.458737   -0.245335   -0.452890
      3          9           0       -0.759143   -1.511439   -0.740115
      4          9           0       -0.946836    0.554576   -1.399807
      5         16           0        1.414245   -0.109883   -0.482182
      6          8           0        1.902832   -0.597483    0.777832
      7          8           0        1.829398   -0.619862   -1.748622
      8          8           0        1.591217    1.479801   -0.543628
      9          9           0       -0.859462   -0.793704    1.823133
     10          9           0       -0.621174    1.303049    1.338665
     11          9           0       -2.418128    0.249382    0.758597
     12          1           0        1.629577    1.849921    0.348248
 ---------------------------------------------------------------------

 SCF Done:  E(RwB97XD) =  -1199.82587847     A.U. after    1 cycles

 Isotropic polarizability for W=    0.000000       55.70 Bohr**3.
 End of Minotr F.D. properties file   721 does not exist.

                      1                      2                      3
                      A                      A                      A
 Frequencies --     57.2524                67.5130               139.8411
 Red. masses --     12.7004                16.1339                13.8101
 Frc consts  --      0.0245                 0.0433                 0.1591
 IR Inten    --      1.8054                 0.7218                 2.8244

                      4                      5                      6
                      A                      A                      A
 Frequencies --    199.6775               223.7124               238.5075
 Red. masses --     13.4391                14.3442                10.2592
 Frc consts  --      0.3157                 0.4230                 0.3438
 IR Inten    --      4.2043                 3.2700                 2.3347

                      7                      8                      9
                      A                      A                      A
 Frequencies --    277.0351               308.2325               313.0024
 Red. masses --     17.2464                 8.1308                 5.7033
 Frc consts  --      0.7799                 0.4551                 0.3292
 IR Inten    --      5.8841                 9.2808                19.3316

                     10                     11                     12
                      A                      A                      A
 Frequencies --    344.8633               380.8419               439.5494
 Red. masses --      2.5234                 4.8999                14.4346
 Frc consts  --      0.1768                 0.4187                 1.6431
 IR Inten    --     49.2628                26.1270                11.0633

                     13                     14                     15
                      A                      A                      A
 Frequencies --    463.5152               510.2879               537.8510
 Red. masses --      3.3588                16.3689                17.8450
 Frc consts  --      0.4252                 2.5113                 3.0415
 IR Inten    --     41.2940                 9.3655                25.6058

                     16                     17                     18
                      A                      A                      A
 Frequencies --    599.2046               608.9083               656.2391
 Red. masses --     17.8039                20.4681                16.1340
 Frc consts  --      3.7663                 4.4713                 4.0937
 IR Inten    --      3.0623               118.5994                26.7074

                     19                     20                     21
                      A                      A                      A
 Frequencies --    763.6189               834.6273              1002.5066
 Red. masses --     17.2734                17.3330                12.7868
 Frc consts  --      5.9345                 7.1139                 7.5716
 IR Inten    --     18.8236               193.3618               101.1080

                     22                     23                     24
                      A                      A                      A
 Frequencies --   1139.5670              1155.4952              1207.5117
 Red. masses --      1.2184                12.3266                14.2238
 Frc consts  --      0.9322                 9.6969                12.2193
 IR Inten    --    141.9648               149.3879                85.3656

                     25                     26                     27
                      A                      A                      A
 Frequencies --   1226.2888              1227.7471              1261.9909
 Red. masses --     12.4696                12.7056                13.3205
 Frc consts  --     11.0481                11.2840                12.4992
 IR Inten    --    100.0870               215.0206               375.1795

                     28                     29                     30
                      A                      A                      A
 Frequencies --   1348.4828              1442.1261              3832.4809
 Red. masses --     12.6905                13.8957                 1.0662
 Frc consts  --     13.5963                17.0270                 9.2270
 IR Inten    --    114.0352               293.4231               150.7550

 - Thermochemistry -
 -------------------
 Temperature   298.150 Kelvin.  Pressure   1.00000 Atm.
 Atom     1 has atomic number  6 and mass  12.00000

 Molecular mass:   199.95666 amu.
 Principal axes and moments of inertia in atomic units:
                           1         2         3
     Eigenvalues --  1152.532242138.310352289.38263
           X            0.88117   0.45049  -0.14352
           Y           -0.03522   0.36524   0.93025
           Z           -0.47149   0.81465  -0.33770
 This molecule is an asymmetric top.
 Rotational symmetry number  1.
 Warning -- assumption of classical behavior for rotation
           may cause significant error
 Rotational temperatures (Kelvin)      0.07515     0.04051     0.03783
 Rotational constants (GHZ):           1.56589     0.84400     0.78831
 Zero-point vibrational energy     136425.0 (Joules/Mol)
                                   32.60636 (Kcal/Mol)
 Warning -- explicit consideration of  17 degrees of freedom as
           vibrations may cause significant error
 Vibrational temperatures:     82.37    97.14   201.20   287.29   321.87
          (Kelvin)            343.16   398.59   443.48   450.34   496.18
                              547.95   632.41   666.90   734.19   773.85
                              862.12   876.08   944.18  1098.68  1200.84
                             1442.38  1639.58  1662.50  1737.34  1764.36
                             1766.45  1815.72  1940.17  2074.90  5514.09

 Zero-point correction=                           0.051962 (Hartree/Particle)
 Thermal correction to Energy=                    0.062319
 Thermal correction to Enthalpy=                  0.063264
 Thermal correction to Gibbs Free Energy=         0.015425
 Sum of electronic and zero-point Energies=          -1199.773917
 Sum of electronic and thermal Energies=             -1199.763559
 Sum of electronic and thermal Enthalpies=           -1199.762615
 Sum of electronic and thermal Free Energies=        -1199.810453

                     E (Thermal)             CV                S
                      KCal/Mol        Cal/Mol-Kelvin    Cal/Mol-Kelvin
 Total                   39.106             36.563            100.684
 Electronic               0.000              0.000              0.000
 Translational            0.889              2.981             41.783
 Rotational               0.889              2.981             30.113
 Vibrational             37.329             30.602             28.788
 Vibration     1          0.596              1.975              4.550
 Vibration     2          0.598              1.970              4.225
 Vibration     3          0.615              1.913              2.806
 Vibration     4          0.638              1.840              2.136
 Vibration     5          0.649              1.805              1.929
 Vibration     6          0.656              1.782              1.814
 Vibration     7          0.678              1.716              1.552
 Vibration     8          0.698              1.658              1.372
 Vibration     9          0.701              1.649              1.346
 Vibration    10          0.723              1.586              1.190
 Vibration    11          0.751              1.511              1.036
 Vibration    12          0.800              1.384              0.828
 Vibration    13          0.821              1.331              0.756
 Vibration    14          0.865              1.227              0.633
 Vibration    15          0.893              1.166              0.570
 Vibration    16          0.957              1.033              0.451
 Vibration    17          0.968              1.013              0.435

 Optimization completed.
    -- Stationary point found.
 Normal termination of Gaussian 16 at Fri May 23 02:51:42 2025.
