 Gaussian 16, Revision C.01,
 Gaussian 16:  ES64L-G16RevC.01  3-Jul-2019

 ----------------------------------------------------------------------
 #P wb97xd/6-311++G(d,p) Symm(None) scf(xqc) pop(None) opt(NoFreeze,TS,
 CalcAll,NoEigentest,MaxCycle=999)
 ----------------------------------------------------------------------

 ------------------------------
 Gaussian input prepared by ASE
 ------------------------------
 Symbolic Z-matrix:
 Charge =  0 Multiplicity = 1

 SCF Done:  E(RwB97XD) =  -1199.44967183     A.U. after   26 cycles
 SCF Done:  E(RwB97XD) =  -1199.48471304     A.U. after   20 cycles
 SCF Done:  E(RwB97XD) =  -1199.51403156     A.U. after   19 cycles
 SCF Done:  E(RwB97XD) =  -1199.53794000     A.U. after   18 cycles
 SCF Done:  E(RwB97XD) =  -1199.55947132     A.U. after   18 cycles
 SCF Done:  E(RwB97XD) =  -1199.57257220     A.U. after   17 cycles
 SCF Done:  E(RwB97XD) =  -1199.57840329     A.U. after   17 cycles
 SCF Done:  E(RwB97XD) =  -1199.58170174     A.U. after   18 cycles
 SCF Done:  E(RwB97XD) =  -1199.58347366     A.U. after   18 cycles
 SCF Done:  E(RwB97XD) =  -1199.58422428     A.U. after   18 cycles
 SCF Done:  E(RwB97XD) =  -1199.58430821     A.U. after   16 cycles
 SCF Done:  E(RwB97XD) =  -1199.58430936     A.U. after   13 cycles

 Isotropic polarizability for W=    0.000000       72.65 Bohr**3.
 End of Minotr F.D. properties file   721 does not exist.

 Optimization completed.
    -- Stationary point found.

                          Input orientation:
 ---------------------------------------------------------------------
 Center     Atomic      Atomic             Coordinates (Angstroms)
 Number     Number       Type             X           Y           Z
 ---------------------------------------------------------------------
      1          6           0        1.921181   -0.836716   -1.182421
      2          6           0        2.018465    0.035200    0.037560
      3          9           0       -0.555048    1.032577   -0.503797
      4          9           0        1.938426   -0.630406    1.187233
      5         16           0        1.762604    1.671349    0.206970
      6          8           0        0.310011    2.037146    0.585234
      7          8           0        2.587558    2.291445    1.188585
      8          8           0        1.995835    2.289885   -1.215976
      9          9           0        1.745068   -0.125778   -2.302721
     10          9           0        3.045017   -1.549642   -1.324017
     11          9           0        0.917065   -1.705689   -1.075421
     12          1           0        1.240568    2.123349   -1.803591
 ---------------------------------------------------------------------

 ******    1 imaginary frequencies (negative Signs) ******

                      1                      2                      3
                      A                      A                      A
 Frequencies --   -526.4597                41.5758                50.3045
 Red. masses --     17.0806                17.6573                16.4059
 Frc consts  --      2.7892                 0.0180                 0.0245
 IR Inten    --    540.4094                 0.0949                 0.6901

                      4                      5                      6
                      A                      A                      A
 Frequencies --     71.6343               137.4570               193.8602
 Red. masses --     12.5993                14.7220                13.1824
 Frc consts  --      0.0381                 0.1639                 0.2919
 IR Inten    --      2.6427                 1.3651                 6.0149

                      7                      8                      9
                      A                      A                      A
 Frequencies --    222.5852               240.1378               288.0771
 Red. masses --     15.8144                15.8361                 9.8925
 Frc consts  --      0.4616                 0.5380                 0.4837
 IR Inten    --     15.8785                 2.4090                 3.1691

                     10                     11                     12
                      A                      A                      A
 Frequencies --    313.4922               331.9290               390.0143
 Red. masses --     13.7205                15.6721                 2.0568
 Frc consts  --      0.7945                 1.0173                 0.1843
 IR Inten    --     11.7668                 0.8012                51.7222

                     13                     14                     15
                      A                      A                      A
 Frequencies --    432.5070               450.6131               468.6344
 Red. masses --     12.6801                 4.1543                 3.1050
 Frc consts  --      1.3975                 0.4970                 0.4018
 IR Inten    --      9.3166                32.4631                40.5151

                     16                     17                     18
                      A                      A                      A
 Frequencies --    509.2206               583.7051               599.0413
 Red. masses --     16.1701                15.9356                17.2289
 Frc consts  --      2.4704                 3.1989                 3.6427
 IR Inten    --     59.7392                12.4040                 7.3497

                     19                     20                     21
                      A                      A                      A
 Frequencies --    605.6273               756.4625               800.9667
 Red. masses --     15.6489                17.3233                17.9877
 Frc consts  --      3.3818                 5.8406                 6.7992
 IR Inten    --    162.7480                 7.2076                 3.7109

                     22                     23                     24
                      A                      A                      A
 Frequencies --    918.9093              1072.7278              1137.9037
 Red. masses --     17.9686                10.4764                 1.2347
 Frc consts  --      8.9394                 7.1030                 0.9419
 IR Inten    --    183.7038               170.2243               162.9658

                     25                     26                     27
                      A                      A                      A
 Frequencies --   1168.3602              1210.4062              1255.1717
 Red. masses --     11.2184                12.5002                13.1885
 Frc consts  --      9.0227                10.7902                12.2420
 IR Inten    --    273.8082               341.7902                38.8644

                     28                     29                     30
                      A                      A                      A
 Frequencies --   1344.2179              1366.5969              3759.1197
 Red. masses --     12.1426                12.6113                 1.0658
 Frc consts  --     12.9271                13.8769                 8.8737
 IR Inten    --    384.1679               177.7924               146.1921

 - Thermochemistry -
 -------------------
 Temperature   298.150 Kelvin.  Pressure   1.00000 Atm.
 Atom     1 has atomic number  6 and mass  12.00000

 Molecular mass:   199.95666 amu.
 Principal axes and moments of inertia in atomic units:
                           1         2         3
     Eigenvalues --  1238.135952308.161182454.04540
           X           -0.15949   0.80940  -0.56519
           Y            0.88464  -0.13692  -0.44572
           Z            0.43815   0.57108   0.69419
 This molecule is an asymmetric top.
 Rotational symmetry number  1.
 Warning -- assumption of classical behavior for rotation
           may cause significant error
 Rotational temperatures (Kelvin)      0.06996     0.03753     0.03529
 Rotational constants (GHZ):           1.45763     0.78190     0.73541
    1 imaginary frequencies ignored.
 Zero-point vibrational energy     123940.7 (Joules/Mol)
                                   29.62253 (Kcal/Mol)
 Warning -- explicit consideration of  18 degrees of freedom as
           vibrations may cause significant error
 Vibrational temperatures:     59.82    72.38   103.07   197.77   278.92
          (Kelvin)            320.25   345.50   414.48   451.05   477.57
                              561.14   622.28   648.33   674.26   732.65
                              839.82   861.89   871.36  1088.38  1152.41
                             1322.11  1543.42  1637.19  1681.01  1741.50
                             1805.91  1934.03  1966.23  5408.53

 Zero-point correction=                           0.047207 (Hartree/Particle)
 Thermal correction to Energy=                    0.058149
 Thermal correction to Enthalpy=                  0.059093
 Thermal correction to Gibbs Free Energy=         0.009054
 Sum of electronic and zero-point Energies=          -1199.537103
 Sum of electronic and thermal Energies=             -1199.526160
 Sum of electronic and thermal Enthalpies=           -1199.525216
 Sum of electronic and thermal Free Energies=        -1199.575255

                     E (Thermal)             CV                S
                      KCal/Mol        Cal/Mol-Kelvin    Cal/Mol-Kelvin
 Total                   36.489             37.357            105.317
 Electronic               0.000              0.000              0.000
 Translational            0.889              2.981             41.783
 Rotational               0.889              2.981             30.329
 Vibrational             34.712             31.396             33.204
 Vibration     1          0.594              1.981              5.183
 Vibration     2          0.595              1.977              4.805
 Vibration     3          0.598              1.968              4.108
 Vibration     4          0.614              1.916              2.839
 Vibration     5          0.635              1.848              2.191
 Vibration     6          0.648              1.807              1.938
 Vibration     7          0.657              1.779              1.802
 Vibration     8          0.685              1.696              1.485
 Vibration     9          0.701              1.648              1.344
 Vibration    10          0.714              1.612              1.251
 Vibration    11          0.758              1.492              1.000
 Vibration    12          0.793              1.399              0.851
 Vibration    13          0.809              1.360              0.794
 Vibration    14          0.826              1.320              0.741
 Vibration    15          0.864              1.230              0.635
 Vibration    16          0.941              1.067              0.479
 Vibration    17          0.957              1.034              0.451
 Vibration    18          0.964              1.020              0.440

 Normal termination of Gaussian 16 at Fri May 23 04:18:20 2025.
