 Gaussian 16, Revision C.01,
 Gaussian 16:  ES64L-G16RevC.01  3-Jul-2019

 ----------------------------------------------------------------------
 #P wb97xd/6-311++G(d,p) Symm(None) scf(xqc) pop(None) geom(AllCheck,No
 KeepConstants) guess(Read) irc(RCFC,forward,MaxPoints=100,StepSize=2)
 ----------------------------------------------------------------------

 Structure from the checkpoint file:  "2003846667223680600001_r12_insertion_R_3_2_5_IRC_F.chk"
 ------------------------------
 Gaussian input prepared by ASE
 ------------------------------
 Charge =  0 Multiplicity = 1

 SCF Done:  E(RwB97XD) =  -1199.70532130     A.U. after   11 cycles
 SCF Done:  E(RwB97XD) =  -1199.70542160     A.U. after   11 cycles
 SCF Done:  E(RwB97XD) =  -1199.70558849     A.U. after   11 cycles
 SCF Done:  E(RwB97XD) =  -1199.70582153     A.U. after   11 cycles
 SCF Done:  E(RwB97XD) =  -1199.70612001     A.U. after   12 cycles
 SCF Done:  E(RwB97XD) =  -1199.70648295     A.U. after   12 cycles
 SCF Done:  E(RwB97XD) =  -1199.70690904     A.U. after   12 cycles
 SCF Done:  E(RwB97XD) =  -1199.70739661     A.U. after   12 cycles
 SCF Done:  E(RwB97XD) =  -1199.70794368     A.U. after   12 cycles
 SCF Done:  E(RwB97XD) =  -1199.70854797     A.U. after   12 cycles
 SCF Done:  E(RwB97XD) =  -1199.75822771     A.U. after    9 cycles
 SCF Done:  E(RwB97XD) =  -1199.75851939     A.U. after    9 cycles
 SCF Done:  E(RwB97XD) =  -1199.75880785     A.U. after    9 cycles
 SCF Done:  E(RwB97XD) =  -1199.75909319     A.U. after    9 cycles
 SCF Done:  E(RwB97XD) =  -1199.75937549     A.U. after    9 cycles
 SCF Done:  E(RwB97XD) =  -1199.75965485     A.U. after    9 cycles
 SCF Done:  E(RwB97XD) =  -1199.75993132     A.U. after    9 cycles
 SCF Done:  E(RwB97XD) =  -1199.76020500     A.U. after    9 cycles
 SCF Done:  E(RwB97XD) =  -1199.76047595     A.U. after    9 cycles
 SCF Done:  E(RwB97XD) =  -1199.76074424     A.U. after    9 cycles

                          Input orientation:
 ---------------------------------------------------------------------
 Center     Atomic      Atomic             Coordinates (Angstroms)
 Number     Number       Type             X           Y           Z
 ---------------------------------------------------------------------
      1          6           0       -1.552768    0.197711    0.837431
      2          6           0       -0.610182   -0.335846   -0.212691
      3          9           0       -0.305864   -1.617766    0.000576
      4          9           0       -1.043540   -0.155792   -1.457446
      5         16           0        1.901958    0.157687   -0.564768
      6          8           0        2.432015   -0.811821    0.340117
      7          8           0        1.884703   -0.062753   -1.975641
      8          8           0        1.551050    1.463488   -0.058358
      9          9           0       -2.680712   -0.472809    0.779442
     10          9           0       -0.990647    0.060667    2.040723
     11          9           0       -1.764990    1.494570    0.619770
     12          1           0        0.208247    0.324257   -0.021474
 ---------------------------------------------------------------------

 Normal termination of Gaussian 16 at Fri May 23 04:10:52 2025.
