 Gaussian 16, Revision C.01,
 Gaussian 16:  ES64L-G16RevC.01  3-Jul-2019

 ----------------------------------------------------------------------
 #P wb97xd/6-311++G(d,p) Symm(None) scf(xqc) pop(None) opt(NoFreeze,TS,
 CalcAll,NoEigentest,MaxCycle=999)
 ----------------------------------------------------------------------

 ------------------------------
 Gaussian input prepared by ASE
 ------------------------------
 Symbolic Z-matrix:
 Charge =  0 Multiplicity = 1

 SCF Done:  E(RwB97XD) =  -1199.58575221     A.U. after   28 cycles
 SCF Done:  E(RwB97XD) =  -1199.59873364     A.U. after   24 cycles
 SCF Done:  E(RwB97XD) =  -1199.62473597     A.U. after   20 cycles
 SCF Done:  E(RwB97XD) =  -1199.65118312     A.U. after   18 cycles
 SCF Done:  E(RwB97XD) =  -1199.67201931     A.U. after   17 cycles
 SCF Done:  E(RwB97XD) =  -1199.68579953     A.U. after   15 cycles
 SCF Done:  E(RwB97XD) =  -1199.68980977     A.U. after   15 cycles
 SCF Done:  E(RwB97XD) =  -1199.69032479     A.U. after   14 cycles
 SCF Done:  E(RwB97XD) =  -1199.69035966     A.U. after   12 cycles
 SCF Done:  E(RwB97XD) =  -1199.69035982     A.U. after    9 cycles

 Isotropic polarizability for W=    0.000000       61.27 Bohr**3.
 End of Minotr F.D. properties file   721 does not exist.

 Optimization completed.
    -- Stationary point found.

                          Input orientation:
 ---------------------------------------------------------------------
 Center     Atomic      Atomic             Coordinates (Angstroms)
 Number     Number       Type             X           Y           Z
 ---------------------------------------------------------------------
      1          6           0       -0.667009    0.389025    1.371828
      2          6           0        0.114715    0.200404    0.045664
      3          9           0        0.521363   -1.688176    0.148483
      4          9           0       -0.604699    0.290681   -1.002221
      5         16           0        1.795741   -0.156963   -0.125935
      6          8           0        2.570975   -0.293326    1.058998
      7          8           0        2.222802   -0.380705   -1.460233
      8          8           0        1.282208    1.683964   -0.117335
      9          9           0       -1.629561   -0.505378    1.441725
     10          9           0        0.129028    0.290881    2.417861
     11          9           0       -1.209478    1.605961    1.351651
     12          1           0        1.524338    2.161662    0.687804
 ---------------------------------------------------------------------

 ******    1 imaginary frequencies (negative Signs) ******

                      1                      2                      3
                      A                      A                      A
 Frequencies --   -692.1332                39.5494               124.6543
 Red. masses --     10.1842                16.1310                 9.6239
 Frc consts  --      2.8745                 0.0149                 0.0881
 IR Inten    --     29.5722                 0.5194                14.9034

                      4                      5                      6
                      A                      A                      A
 Frequencies --    141.6806               149.6286               209.3328
 Red. masses --     14.2916                12.6475                14.2198
 Frc consts  --      0.1690                 0.1668                 0.3671
 IR Inten    --      4.3492                10.6280                10.3767

                      7                      8                      9
                      A                      A                      A
 Frequencies --    271.5330               280.1833               309.4633
 Red. masses --     16.6323                15.2383                16.5554
 Frc consts  --      0.7225                 0.7048                 0.9341
 IR Inten    --      0.8689                 3.9863                 5.2584

                     10                     11                     12
                      A                      A                      A
 Frequencies --    328.5213               353.9597               372.7300
 Red. masses --     11.9320                 9.3810                15.6915
 Frc consts  --      0.7587                 0.6925                 1.2844
 IR Inten    --      0.6235                 8.3363                28.6852

                     13                     14                     15
                      A                      A                      A
 Frequencies --    415.6585               458.0615               509.1768
 Red. masses --     13.1771                16.3155                13.6314
 Frc consts  --      1.3414                 2.0170                 2.0822
 IR Inten    --     10.4788                32.3421                 8.9947

                     16                     17                     18
                      A                      A                      A
 Frequencies --    560.5022               569.9673               590.2339
 Red. masses --     15.6466                 9.6022                16.0046
 Frc consts  --      2.8962                 1.8379                 3.2851
 IR Inten    --     72.3973                74.4229                 5.8179

                     19                     20                     21
                      A                      A                      A
 Frequencies --    665.3739               711.5417               772.6895
 Red. masses --     12.0958                 1.2465                15.4536
 Frc consts  --      3.1551                 0.3718                 5.4361
 IR Inten    --    433.2169               148.4631                19.7851

                     22                     23                     24
                      A                      A                      A
 Frequencies --    825.4425              1052.4846              1203.8153
 Red. masses --      1.2705                10.5204                14.9847
 Frc consts  --      0.5100                 6.8662                12.7943
 IR Inten    --     58.1099               240.1116                63.6529

                     25                     26                     27
                      A                      A                      A
 Frequencies --   1233.1683              1280.6289              1316.3038
 Red. masses --     13.8407                13.1226                12.8140
 Frc consts  --     12.4009                12.6799                13.0812
 IR Inten    --    273.1700               232.7535               175.0113

                     28                     29                     30
                      A                      A                      A
 Frequencies --   1428.9932              1482.7470              3828.3527
 Red. masses --     13.3325                19.8052                 1.0668
 Frc consts  --     16.0406                25.6545                 9.2123
 IR Inten    --    119.7382               244.6534               147.5320

 - Thermochemistry -
 -------------------
 Temperature   298.150 Kelvin.  Pressure   1.00000 Atm.
 Atom     1 has atomic number  6 and mass  12.00000

 Molecular mass:   199.95666 amu.
 Principal axes and moments of inertia in atomic units:
                           1         2         3
     Eigenvalues --  1130.333472183.726932213.16957
           X            0.83167   0.52481   0.18138
           Y           -0.19772  -0.02535   0.97993
           Z           -0.51887   0.85084  -0.08268
 This molecule is an asymmetric top.
 Rotational symmetry number  1.
 Warning -- assumption of classical behavior for rotation
           may cause significant error
 Rotational temperatures (Kelvin)      0.07663     0.03966     0.03914
 Rotational constants (GHZ):           1.59664     0.82645     0.81546
    1 imaginary frequencies ignored.
 Zero-point vibrational energy     128517.1 (Joules/Mol)
                                   30.71632 (Kcal/Mol)
 Warning -- explicit consideration of  17 degrees of freedom as
           vibrations may cause significant error
 Vibrational temperatures:     56.90   179.35   203.85   215.28   301.18
          (Kelvin)            390.68   403.12   445.25   472.67   509.27
                              536.28   598.04   659.05   732.59   806.44
                              820.06   849.22   957.32  1023.75  1111.73
                             1187.63  1514.29  1732.02  1774.25  1842.54
                             1893.87  2056.00  2133.34  5508.15

 Zero-point correction=                           0.048950 (Hartree/Particle)
 Thermal correction to Energy=                    0.059350
 Thermal correction to Enthalpy=                  0.060294
 Thermal correction to Gibbs Free Energy=         0.012423
 Sum of electronic and zero-point Energies=          -1199.641410
 Sum of electronic and thermal Energies=             -1199.631010
 Sum of electronic and thermal Enthalpies=           -1199.630066
 Sum of electronic and thermal Free Energies=        -1199.677937

                     E (Thermal)             CV                S
                      KCal/Mol        Cal/Mol-Kelvin    Cal/Mol-Kelvin
 Total                   37.243             36.786            100.754
 Electronic               0.000              0.000              0.000
 Translational            0.889              2.981             41.783
 Rotational               0.889              2.981             30.081
 Vibrational             35.465             30.825             28.889
 Vibration     1          0.594              1.981              5.282
 Vibration     2          0.610              1.928              3.027
 Vibration     3          0.615              1.912              2.781
 Vibration     4          0.618              1.903              2.677
 Vibration     5          0.642              1.827              2.049
 Vibration     6          0.675              1.726              1.586
 Vibration     7          0.680              1.710              1.533
 Vibration     8          0.699              1.656              1.365
 Vibration     9          0.712              1.619              1.267
 Vibration    10          0.730              1.567              1.149
 Vibration    11          0.744              1.528              1.069
 Vibration    12          0.779              1.436              0.907
 Vibration    13          0.816              1.343              0.772
 Vibration    14          0.864              1.230              0.636
 Vibration    15          0.916              1.117              0.523
 Vibration    16          0.926              1.096              0.504
 Vibration    17          0.948              1.053              0.467

 Normal termination of Gaussian 16 at Fri May 23 03:33:18 2025.
