 Gaussian 16, Revision C.01,
 Gaussian 16:  ES64L-G16RevC.01  3-Jul-2019

 ----------------------------------------------------------------------
 #P wb97xd/6-311++G(d,p) Symm(None) scf(xqc) pop(None) opt(NoFreeze,TS,
 CalcAll,NoEigentest,MaxCycle=999)
 ----------------------------------------------------------------------

 ------------------------------
 Gaussian input prepared by ASE
 ------------------------------
 Symbolic Z-matrix:
 Charge =  0 Multiplicity = 1

 SCF Done:  E(RwB97XD) =  -1199.55613030     A.U. after   17 cycles
 SCF Done:  E(RwB97XD) =  -1199.57039759     A.U. after   16 cycles
 SCF Done:  E(RwB97XD) =  -1199.57939906     A.U. after   16 cycles
 SCF Done:  E(RwB97XD) =  -1199.58693332     A.U. after   16 cycles
 SCF Done:  E(RwB97XD) =  -1199.59564617     A.U. after   16 cycles
 SCF Done:  E(RwB97XD) =  -1199.60383863     A.U. after   16 cycles
 SCF Done:  E(RwB97XD) =  -1199.61094172     A.U. after   15 cycles
 SCF Done:  E(RwB97XD) =  -1199.61731709     A.U. after   15 cycles
 SCF Done:  E(RwB97XD) =  -1199.62309542     A.U. after   15 cycles
 SCF Done:  E(RwB97XD) =  -1199.62916634     A.U. after   16 cycles
 SCF Done:  E(RwB97XD) =  -1199.71550417     A.U. after   14 cycles
 SCF Done:  E(RwB97XD) =  -1199.71807049     A.U. after   14 cycles
 SCF Done:  E(RwB97XD) =  -1199.72064999     A.U. after   15 cycles
 SCF Done:  E(RwB97XD) =  -1199.72310005     A.U. after   15 cycles
 SCF Done:  E(RwB97XD) =  -1199.72498900     A.U. after   15 cycles
 SCF Done:  E(RwB97XD) =  -1199.72637438     A.U. after   14 cycles
 SCF Done:  E(RwB97XD) =  -1199.72731198     A.U. after   14 cycles
 SCF Done:  E(RwB97XD) =  -1199.72780061     A.U. after   14 cycles
 SCF Done:  E(RwB97XD) =  -1199.72785783     A.U. after   14 cycles
 SCF Done:  E(RwB97XD) =  -1199.72785812     A.U. after   11 cycles

 Isotropic polarizability for W=    0.000000       67.44 Bohr**3.
 End of Minotr F.D. properties file   721 does not exist.

 Optimization completed.
    -- Stationary point found.

                          Input orientation:
 ---------------------------------------------------------------------
 Center     Atomic      Atomic             Coordinates (Angstroms)
 Number     Number       Type             X           Y           Z
 ---------------------------------------------------------------------
      1          6           0        0.279918   -0.192780    0.451603
      2          6           0        1.641915   -0.034227   -0.067161
      3          9           0        2.497455   -0.687631    0.730404
      4          9           0        1.706798   -0.492232   -1.315890
      5         16           0        2.325610    1.890367   -0.039031
      6          8           0        2.258516    2.148325    1.380237
      7          8           0        3.594044    1.641938   -0.669818
      8          8           0        1.325865    2.585666   -0.866835
      9          9           0        0.043194   -0.127333    1.678113
     10          9           0       -0.744343    1.900252    0.231236
     11          9           0       -0.678878   -0.527306   -0.284349
     12          1           0       -0.058100    2.399130   -0.232682
 ---------------------------------------------------------------------

 ******    1 imaginary frequencies (negative Signs) ******

                      1                      2                      3
                      A                      A                      A
 Frequencies --   -235.5082                44.0671                87.6941
 Red. masses --     10.9867                16.7709                16.7694
 Frc consts  --      0.3590                 0.0192                 0.0760
 IR Inten    --    123.6935                 0.7170                 1.2805

                      4                      5                      6
                      A                      A                      A
 Frequencies --    140.7971               173.3165               207.5258
 Red. masses --     17.0390                16.3067                17.1451
 Frc consts  --      0.1990                 0.2886                 0.4350
 IR Inten    --      6.2519                11.2262                 3.9728

                      7                      8                      9
                      A                      A                      A
 Frequencies --    224.3932               232.0440               241.4671
 Red. masses --     17.9811                17.8695                16.8842
 Frc consts  --      0.5334                 0.5669                 0.5800
 IR Inten    --      5.2011                10.3566                20.3435

                     10                     11                     12
                      A                      A                      A
 Frequencies --    276.7116               326.1043               327.8526
 Red. masses --     13.0278                16.8094                13.8154
 Frc consts  --      0.5877                 1.0532                 0.8749
 IR Inten    --     14.3474                16.8945                13.1974

                     13                     14                     15
                      A                      A                      A
 Frequencies --    410.2051               507.0246               541.6126
 Red. masses --     16.1162                15.2904                15.9074
 Frc consts  --      1.5978                 2.3159                 2.7493
 IR Inten    --     85.1823                35.8483                64.8118

                     16                     17                     18
                      A                      A                      A
 Frequencies --    553.7681               591.4283               617.2604
 Red. masses --     15.9965                17.3555                16.0204
 Frc consts  --      2.8902                 3.5768                 3.5963
 IR Inten    --     82.5534               223.2290                 4.9556

                     19                     20                     21
                      A                      A                      A
 Frequencies --    743.3141               818.1216               876.8654
 Red. masses --     12.8377                12.8375                 1.0842
 Frc consts  --      4.1791                 5.0625                 0.4911
 IR Inten    --     75.0836                74.2657               129.4729

                     22                     23                     24
                      A                      A                      A
 Frequencies --    988.3845              1034.7613              1181.8031
 Red. masses --      1.1827                 8.3176                13.5452
 Frc consts  --      0.6807                 5.2472                11.1462
 IR Inten    --    421.7951                75.8593               110.9314

                     25                     26                     27
                      A                      A                      A
 Frequencies --   1233.8838              1277.9248              1369.7969
 Red. masses --     13.4251                12.2243                19.1796
 Frc consts  --     12.0425                11.7621                21.2033
 IR Inten    --     96.6653               262.0321               220.8455

                     28                     29                     30
                      A                      A                      A
 Frequencies --   1481.0254              1562.8097              3123.8280
 Red. masses --     12.3349                13.2340                 1.0686
 Frc consts  --     15.9409                19.0437                 6.1436
 IR Inten    --    717.4030               319.2739               750.5599

 - Thermochemistry -
 -------------------
 Temperature   298.150 Kelvin.  Pressure   1.00000 Atm.
 Atom     1 has atomic number  6 and mass  12.00000

 Molecular mass:   199.95666 amu.
 Principal axes and moments of inertia in atomic units:
                           1         2         3
     Eigenvalues --  1379.562832017.084832390.34949
           X            0.82173  -0.53802   0.18785
           Y            0.54636   0.83751   0.00873
           Z           -0.16202   0.09546   0.98216
 This molecule is an asymmetric top.
 Rotational symmetry number  1.
 Warning -- assumption of classical behavior for rotation
           may cause significant error
 Rotational temperatures (Kelvin)      0.06278     0.04294     0.03623
 Rotational constants (GHZ):           1.30820     0.89473     0.75501
    1 imaginary frequencies ignored.
 Zero-point vibrational energy     126779.0 (Joules/Mol)
                                   30.30090 (Kcal/Mol)
 Warning -- explicit consideration of  17 degrees of freedom as
           vibrations may cause significant error
 Vibrational temperatures:     63.40   126.17   202.58   249.36   298.58
          (Kelvin)            322.85   333.86   347.42   398.13   469.19
                              471.71   590.19   729.50   779.26   796.75
                              850.93   888.10  1069.46  1177.09  1261.61
                             1422.06  1488.79  1700.35  1775.28  1838.65
                             1970.83  2130.87  2248.53  4494.49

 Zero-point correction=                           0.048288 (Hartree/Particle)
 Thermal correction to Energy=                    0.058876
 Thermal correction to Enthalpy=                  0.059820
 Thermal correction to Gibbs Free Energy=         0.011230
 Sum of electronic and zero-point Energies=          -1199.679571
 Sum of electronic and thermal Energies=             -1199.668982
 Sum of electronic and thermal Enthalpies=           -1199.668038
 Sum of electronic and thermal Free Energies=        -1199.716628

                     E (Thermal)             CV                S
                      KCal/Mol        Cal/Mol-Kelvin    Cal/Mol-Kelvin
 Total                   36.945             36.316            102.265
 Electronic               0.000              0.000              0.000
 Translational            0.889              2.981             41.783
 Rotational               0.889              2.981             30.276
 Vibrational             35.168             30.355             30.205
 Vibration     1          0.595              1.980              5.067
 Vibration     2          0.601              1.958              3.711
 Vibration     3          0.615              1.912              2.793
 Vibration     4          0.627              1.875              2.399
 Vibration     5          0.641              1.829              2.065
 Vibration     6          0.649              1.804              1.923
 Vibration     7          0.653              1.792              1.863
 Vibration     8          0.658              1.777              1.792
 Vibration     9          0.678              1.716              1.554
 Vibration    10          0.710              1.623              1.279
 Vibration    11          0.711              1.620              1.271
 Vibration    12          0.774              1.448              0.926
 Vibration    13          0.862              1.234              0.641
 Vibration    14          0.897              1.158              0.562
 Vibration    15          0.909              1.131              0.536
 Vibration    16          0.949              1.050              0.465
 Vibration    17          0.977              0.995              0.421

 Normal termination of Gaussian 16 at Fri May 23 05:02:20 2025.
