 Gaussian 16, Revision C.01,
 Gaussian 16:  ES64L-G16RevC.01  3-Jul-2019

 ----------------------------------------------------------------------
 #P wb97xd/6-311++G(d,p) Symm(None) scf(xqc) pop(None) freq opt(CalcFC)
 ----------------------------------------------------------------------

 ------------------------------
 Gaussian input prepared by ASE
 ------------------------------
 Symbolic Z-matrix:
 Charge =  0 Multiplicity = 1

 SCF Done:  E(RwB97XD) =  -1199.82202938     A.U. after   14 cycles
 SCF Done:  E(RwB97XD) =  -1199.82248027     A.U. after   13 cycles
 SCF Done:  E(RwB97XD) =  -1199.82389532     A.U. after   13 cycles
 SCF Done:  E(RwB97XD) =  -1199.82575116     A.U. after   14 cycles
 SCF Done:  E(RwB97XD) =  -1199.82564862     A.U. after   12 cycles
 SCF Done:  E(RwB97XD) =  -1199.82600772     A.U. after   12 cycles
 SCF Done:  E(RwB97XD) =  -1199.82399731     A.U. after   14 cycles
 SCF Done:  E(RwB97XD) =  -1199.82602765     A.U. after   11 cycles
 SCF Done:  E(RwB97XD) =  -1199.82604366     A.U. after   11 cycles
 SCF Done:  E(RwB97XD) =  -1199.82604519     A.U. after   10 cycles
 SCF Done:  E(RwB97XD) =  -1199.82604533     A.U. after    9 cycles
 Optimization completed.
    -- Stationary point found.
 Normal termination of Gaussian 16 at Fri May 23 03:37:34 2025.

 ----------------------------------------------------------------------
 #P Geom=AllCheck Guess=TCheck SCRF=Check GenChk RwB97XD/6-311++G(d,p)
 Freq
 ----------------------------------------------------------------------

 Structure from the checkpoint file:  "2003846667223680600001_r12_insertion_R_2_5_8_IRC_R_prod.chk"
 ------------------------------
 Gaussian input prepared by ASE
 ------------------------------
 Charge =  0 Multiplicity = 1

                          Input orientation:
 ---------------------------------------------------------------------
 Center     Atomic      Atomic             Coordinates (Angstroms)
 Number     Number       Type             X           Y           Z
 ---------------------------------------------------------------------
      1          6           0       -1.277561   -0.513109    0.583504
      2          6           0       -0.387210    0.449245   -0.253225
      3          9           0       -0.776551    0.394693   -1.534767
      4          9           0       -0.537315    1.690874    0.199721
      5         16           0        1.440191    0.028080   -0.206582
      6          8           0        1.971082    0.485087    1.036189
      7          8           0        1.578576   -1.316009   -0.693485
      8          8           0        1.941119    1.054183   -1.331655
      9          9           0       -0.821064   -0.593014    1.826931
     10          9           0       -2.517982   -0.035711    0.607459
     11          9           0       -1.293904   -1.722144    0.043422
     12          1           0        1.880762    0.649996   -2.207270
 ---------------------------------------------------------------------

 SCF Done:  E(RwB97XD) =  -1199.82604533     A.U. after    1 cycles

 Isotropic polarizability for W=    0.000000       55.70 Bohr**3.
 End of Minotr F.D. properties file   721 does not exist.

                      1                      2                      3
                      A                      A                      A
 Frequencies --     28.0597                68.5319               132.2831
 Red. masses --     14.3393                14.2895                14.7169
 Frc consts  --      0.0067                 0.0395                 0.1517
 IR Inten    --      1.2423                 0.7783                 1.2635

                      4                      5                      6
                      A                      A                      A
 Frequencies --    194.2550               222.6888               234.6980
 Red. masses --      9.3512                18.0387                 8.1465
 Frc consts  --      0.2079                 0.5271                 0.2644
 IR Inten    --      8.0612                 1.1949                 9.4248

                      7                      8                      9
                      A                      A                      A
 Frequencies --    275.3475               311.1588               318.1148
 Red. masses --     15.3493                 5.1544                18.2296
 Frc consts  --      0.6856                 0.2940                 1.0869
 IR Inten    --      1.4825                16.1640                 0.2864

                     10                     11                     12
                      A                      A                      A
 Frequencies --    359.8012               371.4124               436.9813
 Red. masses --      1.8609                17.6502                 4.0593
 Frc consts  --      0.1419                 1.4345                 0.4567
 IR Inten    --     57.0962                 0.1804                31.3926

                     13                     14                     15
                      A                      A                      A
 Frequencies --    484.8315               489.6487               539.4520
 Red. masses --     13.2261                 8.3282                17.8429
 Frc consts  --      1.8317                 1.1764                 3.0593
 IR Inten    --     14.8753                20.6293                28.5855

                     16                     17                     18
                      A                      A                      A
 Frequencies --    600.3313               609.4584               653.7067
 Red. masses --     17.3824                20.1208                17.3444
 Frc consts  --      3.6910                 4.4034                 4.3669
 IR Inten    --      3.5306               118.7656                30.1520

                     19                     20                     21
                      A                      A                      A
 Frequencies --    764.7310               825.2351              1005.6920
 Red. masses --     17.1204                17.1397                13.8229
 Frc consts  --      5.8990                 6.8771                 8.2372
 IR Inten    --     41.2045               218.0065                52.8185

                     22                     23                     24
                      A                      A                      A
 Frequencies --   1131.1767              1157.9882              1202.7328
 Red. masses --      1.1954                12.1071                15.9850
 Frc consts  --      0.9012                 9.5653                13.6239
 IR Inten    --    108.1889               240.1280                 6.6164

                     25                     26                     27
                      A                      A                      A
 Frequencies --   1219.0731              1249.4607              1254.0217
 Red. masses --     13.1236                13.7358                13.1793
 Frc consts  --     11.4911                12.6343                12.2110
 IR Inten    --    108.4204               334.1333               261.1729

                     28                     29                     30
                      A                      A                      A
 Frequencies --   1344.8990              1445.5419              3832.8345
 Red. masses --     12.6432                14.3056                 1.0663
 Frc consts  --     13.4737                17.6124                 9.2289
 IR Inten    --    106.7647               313.1701               161.6390

 - Thermochemistry -
 -------------------
 Temperature   298.150 Kelvin.  Pressure   1.00000 Atm.
 Atom     1 has atomic number  6 and mass  12.00000

 Molecular mass:   199.95666 amu.
 Principal axes and moments of inertia in atomic units:
                           1         2         3
     Eigenvalues --  1133.303432198.290242320.84573
           X            0.93404  -0.33535   0.12288
           Y            0.20044   0.77697   0.59678
           Z           -0.29561  -0.53279   0.79294
 This molecule is an asymmetric top.
 Rotational symmetry number  1.
 Warning -- assumption of classical behavior for rotation
           may cause significant error
 Rotational temperatures (Kelvin)      0.07643     0.03940     0.03732
 Rotational constants (GHZ):           1.59246     0.82097     0.77762
 Zero-point vibrational energy     136159.8 (Joules/Mol)
                                   32.54298 (Kcal/Mol)
 Warning -- explicit consideration of  17 degrees of freedom as
           vibrations may cause significant error
 Vibrational temperatures:     40.37    98.60   190.33   279.49   320.40
          (Kelvin)            337.68   396.16   447.69   457.70   517.67
                              534.38   628.72   697.56   704.50   776.15
                              863.74   876.87   940.54  1100.28  1187.33
                             1446.97  1627.51  1666.09  1730.46  1753.97
                             1797.70  1804.26  1935.01  2079.81  5514.59

 Zero-point correction=                           0.051861 (Hartree/Particle)
 Thermal correction to Energy=                    0.062295
 Thermal correction to Enthalpy=                  0.063239
 Thermal correction to Gibbs Free Energy=         0.014667
 Sum of electronic and zero-point Energies=          -1199.774185
 Sum of electronic and thermal Energies=             -1199.763750
 Sum of electronic and thermal Enthalpies=           -1199.762806
 Sum of electronic and thermal Free Energies=        -1199.811379

                     E (Thermal)             CV                S
                      KCal/Mol        Cal/Mol-Kelvin    Cal/Mol-Kelvin
 Total                   39.091             36.588            102.230
 Electronic               0.000              0.000              0.000
 Translational            0.889              2.981             41.783
 Rotational               0.889              2.981             30.137
 Vibrational             37.313             30.626             30.309
 Vibration     1          0.593              1.984              5.962
 Vibration     2          0.598              1.969              4.195
 Vibration     3          0.612              1.921              2.913
 Vibration     4          0.635              1.848              2.187
 Vibration     5          0.648              1.807              1.937
 Vibration     6          0.655              1.788              1.843
 Vibration     7          0.677              1.719              1.562
 Vibration     8          0.700              1.652              1.356
 Vibration     9          0.705              1.639              1.320
 Vibration    10          0.734              1.555              1.123
 Vibration    11          0.743              1.531              1.074
 Vibration    12          0.797              1.390              0.836
 Vibration    13          0.841              1.284              0.697
 Vibration    14          0.845              1.273              0.685
 Vibration    15          0.895              1.163              0.566
 Vibration    16          0.958              1.031              0.449
 Vibration    17          0.968              1.012              0.434

 Optimization completed.
    -- Stationary point found.
 Normal termination of Gaussian 16 at Fri May 23 03:38:54 2025.
