 Gaussian 16, Revision C.01,
 Gaussian 16:  ES64L-G16RevC.01  3-Jul-2019

 ----------------------------------------------------------------------
 #P wb97xd/6-311++G(d,p) Symm(None) scf(xqc) pop(None) opt(NoFreeze,TS,
 CalcAll,NoEigentest,MaxCycle=999,Cartesian)
 ----------------------------------------------------------------------

 ------------------------------
 Gaussian input prepared by ASE
 ------------------------------
 Symbolic Z-matrix:
 Charge =  0 Multiplicity = 1

 SCF Done:  E(RwB97XD) =  -1199.82432008     A.U. after   14 cycles
 SCF Done:  E(RwB97XD) =  -1199.82413383     A.U. after   11 cycles
 SCF Done:  E(RwB97XD) =  -1199.82401659     A.U. after   11 cycles
 SCF Done:  E(RwB97XD) =  -1199.82396823     A.U. after   10 cycles
 SCF Done:  E(RwB97XD) =  -1199.82338233     A.U. after   12 cycles
 SCF Done:  E(RwB97XD) =  -1199.82321949     A.U. after   11 cycles
 SCF Done:  E(RwB97XD) =  -1199.82271942     A.U. after   12 cycles
 SCF Done:  E(RwB97XD) =  -1199.82231479     A.U. after   12 cycles
 SCF Done:  E(RwB97XD) =  -1199.82205512     A.U. after   11 cycles
 SCF Done:  E(RwB97XD) =  -1199.82194675     A.U. after   11 cycles
 SCF Done:  E(RwB97XD) =  -1199.82203176     A.U. after   11 cycles
 SCF Done:  E(RwB97XD) =  -1199.82203224     A.U. after   10 cycles

 Isotropic polarizability for W=    0.000000       55.65 Bohr**3.
 End of Minotr F.D. properties file   721 does not exist.

 Optimization completed.
    -- Stationary point found.

                          Input orientation:
 ---------------------------------------------------------------------
 Center     Atomic      Atomic             Coordinates (Angstroms)
 Number     Number       Type             X           Y           Z
 ---------------------------------------------------------------------
      1          6           0       -0.949309   -0.127149    1.225018
      2          6           0        0.008620    0.513119    0.144296
      3          9           0       -0.341375    0.101439   -1.069951
      4          9           0       -0.082074    1.846932    0.192722
      5         16           0        1.815849    0.085514    0.400738
      6          8           0        1.982519   -1.302290    0.110316
      7          8           0        2.237311    0.716367    1.620285
      8          8           0        2.420235    0.899162   -0.842493
      9          9           0       -0.252410   -0.831370    2.110795
     10          9           0       -1.609450    0.826603    1.865738
     11          9           0       -1.820591   -0.931001    0.634890
     12          1           0        2.641107    1.800706   -0.574070
 ---------------------------------------------------------------------

 ******    1 imaginary frequencies (negative Signs) ******

                      1                      2                      3
                      A                      A                      A
 Frequencies --    -47.7493                72.6276               140.7720
 Red. masses --     17.8001                11.8664                12.7655
 Frc consts  --      0.0239                 0.0369                 0.1490
 IR Inten    --      0.1292                 2.1074                 1.9845

                      4                      5                      6
                      A                      A                      A
 Frequencies --    187.1136               237.5643               279.4067
 Red. masses --     11.3991                 8.5304                12.6832
 Frc consts  --      0.2351                 0.2837                 0.5834
 IR Inten    --      6.3781                 7.1180                 0.7274

                      7                      8                      9
                      A                      A                      A
 Frequencies --    281.2757               310.4884               335.1999
 Red. masses --     17.3902                 4.3910                17.7497
 Frc consts  --      0.8106                 0.2494                 1.1750
 IR Inten    --      4.7004                20.6693                 0.4449

                     10                     11                     12
                      A                      A                      A
 Frequencies --    352.9221               375.6354               431.3391
 Red. masses --      2.0127                15.8996                 4.1039
 Frc consts  --      0.1477                 1.3218                 0.4499
 IR Inten    --     54.0581                 0.7963                27.5116

                     13                     14                     15
                      A                      A                      A
 Frequencies --    484.6199               489.5407               542.5325
 Red. masses --     12.1987                 8.7296                17.8906
 Frc consts  --      1.6880                 1.2326                 3.1026
 IR Inten    --     33.9388                 5.0193                30.9378

                     16                     17                     18
                      A                      A                      A
 Frequencies --    595.7203               609.8035               656.5137
 Red. masses --     17.3598                19.9742                17.3372
 Frc consts  --      3.6298                 4.3762                 4.4027
 IR Inten    --      3.1069               114.0073                28.9937

                     19                     20                     21
                      A                      A                      A
 Frequencies --    765.2306               823.8123               996.8260
 Red. masses --     17.0367                17.1592                13.8578
 Frc consts  --      5.8779                 6.8612                 8.1130
 IR Inten    --     46.4417               219.6499                39.7149

                     22                     23                     24
                      A                      A                      A
 Frequencies --   1130.5954              1157.3457              1194.9221
 Red. masses --      1.1982                12.1272                16.0979
 Frc consts  --      0.9024                 9.5705                13.5425
 IR Inten    --    108.5328               282.2055                 3.7201

                     25                     26                     27
                      A                      A                      A
 Frequencies --   1219.4792              1250.9581              1255.2873
 Red. masses --     13.1707                13.1368                13.5368
 Frc consts  --     11.5400                12.1122                12.5676
 IR Inten    --    159.9875               246.3180               282.0953

                     28                     29                     30
                      A                      A                      A
 Frequencies --   1317.5966              1442.9908              3833.9044
 Red. masses --     12.7712                14.1687                 1.0663
 Frc consts  --     13.0631                17.3823                 9.2342
 IR Inten    --    110.6329               305.3521               163.3316

 - Thermochemistry -
 -------------------
 Temperature   298.150 Kelvin.  Pressure   1.00000 Atm.
 Atom     1 has atomic number  6 and mass  12.00000

 Molecular mass:   199.95666 amu.
 Principal axes and moments of inertia in atomic units:
                           1         2         3
     Eigenvalues --  1137.412172208.628272338.89233
           X            0.94596   0.30518   0.10962
           Y            0.09867  -0.59292   0.79919
           Z           -0.30889   0.74519   0.59100
 This molecule is an asymmetric top.
 Rotational symmetry number  1.
 Warning -- assumption of classical behavior for rotation
           may cause significant error
 Rotational temperatures (Kelvin)      0.07615     0.03922     0.03703
 Rotational constants (GHZ):           1.58671     0.81713     0.77162
    1 imaginary frequencies ignored.
 Zero-point vibrational energy     136207.0 (Joules/Mol)
                                   32.55424 (Kcal/Mol)
 Warning -- explicit consideration of  16 degrees of freedom as
           vibrations may cause significant error
 Vibrational temperatures:    104.49   202.54   269.21   341.80   402.00
          (Kelvin)            404.69   446.72   482.28   507.78   540.46
                              620.60   697.26   704.34   780.58   857.11
                              877.37   944.58  1101.00  1185.28  1434.21
                             1626.67  1665.16  1719.23  1754.56  1799.85
                             1806.08  1895.73  2076.14  5516.13

 Zero-point correction=                           0.051878 (Hartree/Particle)
 Thermal correction to Energy=                    0.061319
 Thermal correction to Enthalpy=                  0.062263
 Thermal correction to Gibbs Free Energy=         0.016833
 Sum of electronic and zero-point Energies=          -1199.770154
 Sum of electronic and thermal Energies=             -1199.760713
 Sum of electronic and thermal Enthalpies=           -1199.759769
 Sum of electronic and thermal Free Energies=        -1199.805200

                     E (Thermal)             CV                S
                      KCal/Mol        Cal/Mol-Kelvin    Cal/Mol-Kelvin
 Total                   38.478             34.503             95.617
 Electronic               0.000              0.000              0.000
 Translational            0.889              2.981             41.783
 Rotational               0.889              2.981             30.153
 Vibrational             36.701             28.541             23.680
 Vibration     1          0.599              1.967              4.081
 Vibration     2          0.615              1.913              2.793
 Vibration     3          0.632              1.858              2.256
 Vibration     4          0.656              1.783              1.821
 Vibration     5          0.680              1.712              1.537
 Vibration     6          0.681              1.708              1.526
 Vibration     7          0.699              1.654              1.360
 Vibration     8          0.716              1.605              1.235
 Vibration     9          0.729              1.569              1.153
 Vibration    10          0.746              1.522              1.057
 Vibration    11          0.792              1.402              0.854
 Vibration    12          0.841              1.284              0.698
 Vibration    13          0.845              1.273              0.685
 Vibration    14          0.898              1.156              0.560
 Vibration    15          0.953              1.041              0.457
 Vibration    16          0.969              1.011              0.433

 Normal termination of Gaussian 16 at Fri May 23 06:29:44 2025.
