 Gaussian 16, Revision C.01,
 Gaussian 16:  ES64L-G16RevC.01  3-Jul-2019

 ----------------------------------------------------------------------
 #P wb97xd/6-311++G(d,p) Symm(None) scf(xqc) pop(None) freq opt(CalcFC)
 ----------------------------------------------------------------------

 ------------------------------
 Gaussian input prepared by ASE
 ------------------------------
 Symbolic Z-matrix:
 Charge =  0 Multiplicity = 1

 SCF Done:  E(RwB97XD) =  -1199.81706448     A.U. after   14 cycles
 SCF Done:  E(RwB97XD) =  -1199.82360080     A.U. after   13 cycles
 SCF Done:  E(RwB97XD) =  -1199.82410080     A.U. after   12 cycles
 SCF Done:  E(RwB97XD) =  -1199.82414189     A.U. after   12 cycles
 SCF Done:  E(RwB97XD) =  -1199.82414993     A.U. after   11 cycles
 SCF Done:  E(RwB97XD) =  -1199.82415145     A.U. after   10 cycles
 SCF Done:  E(RwB97XD) =  -1199.82415156     A.U. after    9 cycles
 SCF Done:  E(RwB97XD) =  -1199.82415164     A.U. after    9 cycles
 Optimization completed.
    -- Stationary point found.
 Normal termination of Gaussian 16 at Fri May 23 03:04:24 2025.

 ----------------------------------------------------------------------
 #P Geom=AllCheck Guess=TCheck SCRF=Check GenChk RwB97XD/6-311++G(d,p)
 Freq
 ----------------------------------------------------------------------

 Structure from the checkpoint file:  "2003846667223680600001_intra_H_migration_5_12_IRC_F_prod.chk"
 ------------------------------
 Gaussian input prepared by ASE
 ------------------------------
 Charge =  0 Multiplicity = 1

                          Input orientation:
 ---------------------------------------------------------------------
 Center     Atomic      Atomic             Coordinates (Angstroms)
 Number     Number       Type             X           Y           Z
 ---------------------------------------------------------------------
      1          6           0       -1.100388    0.107438    0.918645
      2          6           0       -0.482632   -0.218308   -0.474307
      3          9           0       -0.694556   -1.502146   -0.747093
      4          9           0       -1.075693    0.538538   -1.398726
      5         16           0        1.362777    0.129908   -0.632688
      6          8           0        1.883550   -0.368839    0.800999
      7          8           0        1.860485   -0.786583   -1.607072
      8          8           0        1.524077    1.553998   -0.719532
      9          9           0       -0.793887   -0.836626    1.797853
     10          9           0       -0.641867    1.276477    1.369524
     11          9           0       -2.419137    0.180262    0.808692
     12          1           0        1.988014    0.385151    1.396652
 ---------------------------------------------------------------------

 SCF Done:  E(RwB97XD) =  -1199.82415164     A.U. after    1 cycles

 Isotropic polarizability for W=    0.000000       55.80 Bohr**3.
 End of Minotr F.D. properties file   721 does not exist.

                      1                      2                      3
                      A                      A                      A
 Frequencies --     31.6185                61.0667               141.9460
 Red. masses --     11.4765                17.7914                11.0843
 Frc consts  --      0.0068                 0.0391                 0.1316
 IR Inten    --      1.9430                 0.3553                 4.9616

                      4                      5                      6
                      A                      A                      A
 Frequencies --    200.3228               228.4563               243.0010
 Red. masses --     16.9092                18.4157                11.7404
 Frc consts  --      0.3998                 0.5663                 0.4085
 IR Inten    --      2.5044                 1.5600                 0.7421

                      7                      8                      9
                      A                      A                      A
 Frequencies --    276.3422               295.3759               315.7908
 Red. masses --      8.2814                 3.2254                17.1124
 Frc consts  --      0.3726                 0.1658                 1.0055
 IR Inten    --     22.6958                34.1917                 0.7486

                     10                     11                     12
                      A                      A                      A
 Frequencies --    341.2115               370.9156               433.3786
 Red. masses --      2.1999                15.7651                 4.2441
 Frc consts  --      0.1509                 1.2779                 0.4696
 IR Inten    --     63.2515                 2.5489                24.2404

                     13                     14                     15
                      A                      A                      A
 Frequencies --    461.4229               504.2635               540.9249
 Red. masses --      9.4118                15.8356                16.5460
 Frc consts  --      1.1807                 2.3725                 2.8525
 IR Inten    --     25.9354                11.9963                21.3503

                     16                     17                     18
                      A                      A                      A
 Frequencies --    598.6118               608.0792               653.9990
 Red. masses --     17.7866                19.8096                16.0511
 Frc consts  --      3.7552                 4.3157                 4.0449
 IR Inten    --      3.0503               121.6117                21.8972

                     19                     20                     21
                      A                      A                      A
 Frequencies --    762.6140               830.9083               997.4796
 Red. masses --     17.0751                17.8608                13.4734
 Frc consts  --      5.8509                 7.2654                 7.8983
 IR Inten    --     14.4149               197.1106               120.2092

                     22                     23                     24
                      A                      A                      A
 Frequencies --   1123.1828              1153.8635              1214.5040
 Red. masses --      1.2088                13.7898                15.5466
 Frc consts  --      0.8985                10.8173                13.5109
 IR Inten    --     77.7941               109.7630               153.2616

                     25                     26                     27
                      A                      A                      A
 Frequencies --   1227.5738              1237.7806              1251.0801
 Red. masses --     12.3156                12.3794                13.1069
 Frc consts  --     10.9346                11.1747                12.0871
 IR Inten    --     96.5710               249.5610               344.0648

                     28                     29                     30
                      A                      A                      A
 Frequencies --   1342.2561              1443.9752              3827.3923
 Red. masses --     12.7016                14.2459                 1.0663
 Frc consts  --     13.4827                17.5009                 9.2035
 IR Inten    --    117.0118               297.4307               158.1634

 - Thermochemistry -
 -------------------
 Temperature   298.150 Kelvin.  Pressure   1.00000 Atm.
 Atom     1 has atomic number  6 and mass  12.00000

 Molecular mass:   199.95666 amu.
 Principal axes and moments of inertia in atomic units:
                           1         2         3
     Eigenvalues --  1159.235782133.312392292.15790
           X            0.87469   0.45504  -0.16688
           Y            0.00080   0.34296   0.93935
           Z           -0.48468   0.82178  -0.29962
 This molecule is an asymmetric top.
 Rotational symmetry number  1.
 Warning -- assumption of classical behavior for rotation
           may cause significant error
 Rotational temperatures (Kelvin)      0.07472     0.04060     0.03779
 Rotational constants (GHZ):           1.55684     0.84598     0.78735
 Zero-point vibrational energy     135891.8 (Joules/Mol)
                                   32.47892 (Kcal/Mol)
 Warning -- explicit consideration of  17 degrees of freedom as
           vibrations may cause significant error
 Vibrational temperatures:     45.49    87.86   204.23   288.22   328.70
          (Kelvin)            349.62   397.59   424.98   454.35   490.93
                              533.66   623.54   663.88   725.52   778.27
                              861.27   874.89   940.96  1097.23  1195.49
                             1435.15  1616.01  1660.15  1747.40  1766.20
                             1780.89  1800.03  1931.21  2077.56  5506.76

 Zero-point correction=                           0.051758 (Hartree/Particle)
 Thermal correction to Energy=                    0.062208
 Thermal correction to Enthalpy=                  0.063152
 Thermal correction to Gibbs Free Energy=         0.014630
 Sum of electronic and zero-point Energies=          -1199.772393
 Sum of electronic and thermal Energies=             -1199.761944
 Sum of electronic and thermal Enthalpies=           -1199.761000
 Sum of electronic and thermal Free Energies=        -1199.809521

                     E (Thermal)             CV                S
                      KCal/Mol        Cal/Mol-Kelvin    Cal/Mol-Kelvin
 Total                   39.036             36.662            102.123
 Electronic               0.000              0.000              0.000
 Translational            0.889              2.981             41.783
 Rotational               0.889              2.981             30.117
 Vibrational             37.259             30.701             30.222
 Vibration     1          0.594              1.983              5.725
 Vibration     2          0.597              1.973              4.422
 Vibration     3          0.615              1.911              2.777
 Vibration     4          0.638              1.839              2.130
 Vibration     5          0.651              1.798              1.891
 Vibration     6          0.659              1.774              1.781
 Vibration     7          0.678              1.717              1.556
 Vibration     8          0.690              1.682              1.443
 Vibration     9          0.703              1.643              1.332
 Vibration    10          0.721              1.593              1.206
 Vibration    11          0.743              1.532              1.076
 Vibration    12          0.794              1.397              0.848
 Vibration    13          0.819              1.336              0.762
 Vibration    14          0.860              1.241              0.648
 Vibration    15          0.896              1.160              0.563
 Vibration    16          0.957              1.035              0.452
 Vibration    17          0.967              1.015              0.436

 Optimization completed.
    -- Stationary point found.
 Normal termination of Gaussian 16 at Fri May 23 03:06:16 2025.
