 Gaussian 16, Revision C.01,
 Gaussian 16:  ES64L-G16RevC.01  3-Jul-2019

 ----------------------------------------------------------------------
 #P wb97xd/6-311++G(d,p) Symm(None) scf(xqc) pop(None) opt(NoFreeze,TS,
 CalcAll,NoEigentest,MaxCycle=999)
 ----------------------------------------------------------------------

 ------------------------------
 Gaussian input prepared by ASE
 ------------------------------
 Symbolic Z-matrix:
 Charge =  0 Multiplicity = 1

 SCF Done:  E(RwB97XD) =  -1199.64159792     A.U. after   17 cycles
 SCF Done:  E(RwB97XD) =  -1199.63881821     A.U. after   16 cycles
 SCF Done:  E(RwB97XD) =  -1199.63092396     A.U. after   17 cycles
 SCF Done:  E(RwB97XD) =  -1199.62541664     A.U. after   21 cycles
 SCF Done:  E(RwB97XD) =  -1199.61775718     A.U. after   18 cycles
 SCF Done:  E(RwB97XD) =  -1199.60952250     A.U. after   22 cycles
 SCF Done:  E(RwB97XD) =  -1199.60159484     A.U. after   22 cycles
 SCF Done:  E(RwB97XD) =  -1199.59535600     A.U. after   24 cycles
 SCF Done:  E(RwB97XD) =  -1199.58934279     A.U. after   24 cycles
 SCF Done:  E(RwB97XD) =  -1199.58529519     A.U. after   26 cycles
 SCF Done:  E(RwB97XD) =  -1199.58476773     a.u. after    4 cycles
 SCF Done:  E(RwB97XD) =  -1199.58594849     A.U. after   33 cycles
 SCF Done:  E(RwB97XD) =  -1199.58594974     a.u. after    3 cycles
 SCF Done:  E(RwB97XD) =  -1199.58753714     A.U. after   27 cycles
 SCF Done:  E(RwB97XD) =  -1199.58976097     A.U. after   26 cycles
 SCF Done:  E(RwB97XD) =  -1199.59250296     A.U. after   24 cycles
 SCF Done:  E(RwB97XD) =  -1199.59511178     A.U. after   22 cycles
 SCF Done:  E(RwB97XD) =  -1199.59645336     A.U. after   22 cycles
 SCF Done:  E(RwB97XD) =  -1199.59650176     A.U. after   21 cycles
 SCF Done:  E(RwB97XD) =  -1199.59650185     A.U. after   19 cycles

 Isotropic polarizability for W=    0.000000       74.35 Bohr**3.
 End of Minotr F.D. properties file   721 does not exist.

 Optimization completed.
    -- Stationary point found.

                          Input orientation:
 ---------------------------------------------------------------------
 Center     Atomic      Atomic             Coordinates (Angstroms)
 Number     Number       Type             X           Y           Z
 ---------------------------------------------------------------------
      1          6           0       -0.930573   -0.450889    1.074689
      2          6           0        0.040547    0.426352    0.255411
      3          9           0       -0.281959    0.420915   -1.027087
      4          9           0        0.007252    1.688929    0.723024
      5         16           0        1.891530   -0.035879    0.531821
      6          8           0        1.905118    2.568102    1.159005
      7          8           0        2.063182   -1.447261    0.232637
      8          8           0        2.433313    0.816777   -0.726404
      9          9           0       -1.007921   -1.659748    0.543595
     10          9           0       -0.481406   -0.546423    2.325750
     11          9           0       -2.142185    0.093405    1.093496
     12          1           0        2.553524    1.723754   -0.367642
 ---------------------------------------------------------------------

 ******    1 imaginary frequencies (negative Signs) ******

                      1                      2                      3
                      A                      A                      A
 Frequencies --   -298.2954                46.5781                60.5454
 Red. masses --     17.0968                15.7555                17.0624
 Frc consts  --      0.8963                 0.0201                 0.0369
 IR Inten    --     58.1607                 0.3652                 0.0318

                      4                      5                      6
                      A                      A                      A
 Frequencies --    122.8002               156.8321               196.2250
 Red. masses --     16.2263                10.6345                14.5195
 Frc consts  --      0.1442                 0.1541                 0.3294
 IR Inten    --      0.5985                 6.9813                10.0207

                      7                      8                      9
                      A                      A                      A
 Frequencies --    227.0060               236.1057               267.8352
 Red. masses --     17.2987                14.7400                14.0403
 Frc consts  --      0.5252                 0.4841                 0.5934
 IR Inten    --      3.2232                 2.2539                 6.9173

                     10                     11                     12
                      A                      A                      A
 Frequencies --    284.3084               342.1206               375.8681
 Red. masses --     12.4803                17.7062                18.3298
 Frc consts  --      0.5944                 1.2210                 1.5257
 IR Inten    --      4.9410                 1.2186                 1.1887

                     13                     14                     15
                      A                      A                      A
 Frequencies --    408.8698               436.9951               506.2710
 Red. masses --     15.2895                11.9267                16.1437
 Frc consts  --      1.5060                 1.3419                 2.4379
 IR Inten    --     15.6904                19.0746                33.1578

                     16                     17                     18
                      A                      A                      A
 Frequencies --    544.4681               601.2775               629.4175
 Red. masses --     17.6584                17.4478                 1.2504
 Frc consts  --      3.0842                 3.7166                 0.2919
 IR Inten    --      2.0069                 5.5160               125.5102

                     19                     20                     21
                      A                      A                      A
 Frequencies --    635.6603               759.4936               783.4874
 Red. masses --      5.4648                16.5291                 9.9740
 Frc consts  --      1.3010                 5.6175                 3.6073
 IR Inten    --     13.1874                33.2102                87.0005

                     22                     23                     24
                      A                      A                      A
 Frequencies --    938.5224              1094.2584              1178.9579
 Red. masses --     13.1698                12.6985                 1.4373
 Frc consts  --      6.8347                 8.9586                 1.1770
 IR Inten    --    100.3915                32.6411               200.9164

                     25                     26                     27
                      A                      A                      A
 Frequencies --   1223.9330              1229.6947              1248.0434
 Red. masses --     12.4057                10.3973                10.3495
 Frc consts  --     10.9493                 9.2633                 9.4979
 IR Inten    --    313.5236                66.2698               134.3771

                     28                     29                     30
                      A                      A                      A
 Frequencies --   1277.9820              1351.0219              3503.4075
 Red. masses --      6.8102                12.2880                 1.0654
 Frc consts  --      6.5533                13.2147                 7.7043
 IR Inten    --    273.8834               217.9994                 6.7986

 - Thermochemistry -
 -------------------
 Temperature   298.150 Kelvin.  Pressure   1.00000 Atm.
 Atom     1 has atomic number  6 and mass  12.00000

 Molecular mass:   199.95666 amu.
 Principal axes and moments of inertia in atomic units:
                           1         2         3
     Eigenvalues --  1293.916052211.815792582.58998
           X            0.89797  -0.33896   0.28062
           Y            0.37254   0.92499  -0.07483
           Z           -0.23421   0.17174   0.95690
 This molecule is an asymmetric top.
 Rotational symmetry number  1.
 Warning -- assumption of classical behavior for rotation
           may cause significant error
 Rotational temperatures (Kelvin)      0.06694     0.03916     0.03354
 Rotational constants (GHZ):           1.39479     0.81595     0.69881
    1 imaginary frequencies ignored.
 Zero-point vibrational energy     123622.0 (Joules/Mol)
                                   29.54637 (Kcal/Mol)
 Warning -- explicit consideration of  16 degrees of freedom as
           vibrations may cause significant error
 Vibrational temperatures:     67.02    87.11   176.68   225.65   282.32
          (Kelvin)            326.61   339.70   385.36   409.06   492.24
                              540.79   588.27   628.74   728.41   783.37
                              865.10   905.59   914.57  1092.74  1127.26
                             1350.32  1574.39  1696.26  1760.97  1769.26
                             1795.66  1838.73  1943.82  5040.62

 Zero-point correction=                           0.047085 (Hartree/Particle)
 Thermal correction to Energy=                    0.057858
 Thermal correction to Enthalpy=                  0.058802
 Thermal correction to Gibbs Free Energy=         0.009606
 Sum of electronic and zero-point Energies=          -1199.549417
 Sum of electronic and thermal Energies=             -1199.538644
 Sum of electronic and thermal Enthalpies=           -1199.537700
 Sum of electronic and thermal Free Energies=        -1199.586896

                     E (Thermal)             CV                S
                      KCal/Mol        Cal/Mol-Kelvin    Cal/Mol-Kelvin
 Total                   36.306             37.089            103.543
 Electronic               0.000              0.000              0.000
 Translational            0.889              2.981             41.783
 Rotational               0.889              2.981             30.381
 Vibrational             34.529             31.127             31.378
 Vibration     1          0.595              1.979              4.958
 Vibration     2          0.597              1.973              4.439
 Vibration     3          0.610              1.930              3.056
 Vibration     4          0.620              1.895              2.588
 Vibration     5          0.636              1.845              2.168
 Vibration     6          0.651              1.800              1.902
 Vibration     7          0.655              1.785              1.832
 Vibration     8          0.673              1.732              1.610
 Vibration     9          0.683              1.703              1.508
 Vibration    10          0.721              1.591              1.202
 Vibration    11          0.747              1.522              1.056
 Vibration    12          0.773              1.451              0.931
 Vibration    13          0.797              1.390              0.836
 Vibration    14          0.861              1.236              0.643
 Vibration    15          0.900              1.152              0.556
 Vibration    16          0.960              1.029              0.447

 Normal termination of Gaussian 16 at Fri May 23 06:18:50 2025.
