 Gaussian 16, Revision C.01,
 Gaussian 16:  ES64L-G16RevC.01  3-Jul-2019

 ----------------------------------------------------------------------
 #P wb97xd/6-311++G(d,p) Symm(None) scf(xqc) pop(None) geom(AllCheck,No
 KeepConstants) guess(Read) irc(RCFC,reverse,MaxPoints=100,StepSize=2)
 ----------------------------------------------------------------------

 Structure from the checkpoint file:  "2003846667223680600001_r12_insertion_R_5_2_1_IRC_R.chk"
 ------------------------------
 Gaussian input prepared by ASE
 ------------------------------
 Charge =  0 Multiplicity = 1

 SCF Done:  E(RwB97XD) =  -1199.65436617     A.U. after   12 cycles
 SCF Done:  E(RwB97XD) =  -1199.65440085     A.U. after   12 cycles
 SCF Done:  E(RwB97XD) =  -1199.65445724     A.U. after   12 cycles
 SCF Done:  E(RwB97XD) =  -1199.65453423     A.U. after   12 cycles
 SCF Done:  E(RwB97XD) =  -1199.65463075     A.U. after   12 cycles
 SCF Done:  E(RwB97XD) =  -1199.65474580     A.U. after   12 cycles
 SCF Done:  E(RwB97XD) =  -1199.65487840     A.U. after   12 cycles
 SCF Done:  E(RwB97XD) =  -1199.65502762     A.U. after   12 cycles
 SCF Done:  E(RwB97XD) =  -1199.65519255     A.U. after   12 cycles
 SCF Done:  E(RwB97XD) =  -1199.65537233     A.U. after   12 cycles
 SCF Done:  E(RwB97XD) =  -1199.73107818     A.U. after   11 cycles
 SCF Done:  E(RwB97XD) =  -1199.73310552     A.U. after   11 cycles
 SCF Done:  E(RwB97XD) =  -1199.73514000     A.U. after   11 cycles
 SCF Done:  E(RwB97XD) =  -1199.73717980     A.U. after   11 cycles
 SCF Done:  E(RwB97XD) =  -1199.73922172     A.U. after   11 cycles
 SCF Done:  E(RwB97XD) =  -1199.74126544     A.U. after   11 cycles
 SCF Done:  E(RwB97XD) =  -1199.74330688     A.U. after   11 cycles
 SCF Done:  E(RwB97XD) =  -1199.74534549     A.U. after   11 cycles
 SCF Done:  E(RwB97XD) =  -1199.74737682     A.U. after   11 cycles
 SCF Done:  E(RwB97XD) =  -1199.74939922     A.U. after   11 cycles

                          Input orientation:
 ---------------------------------------------------------------------
 Center     Atomic      Atomic             Coordinates (Angstroms)
 Number     Number       Type             X           Y           Z
 ---------------------------------------------------------------------
      1          6           0       -0.636549   -0.673158    1.047330
      2          6           0       -0.102083    0.772754   -1.207413
      3          9           0       -0.822991    0.100476   -2.103722
      4          9           0       -0.790097    1.875886   -0.980097
      5         16           0        0.832442   -0.092649    0.150277
      6          8           0        1.446993    0.845816    1.051116
      7          8           0        1.437973   -1.298870   -0.367683
      8          8           0        1.403915    1.023474   -1.489808
      9          9           0       -0.285402   -1.354255    2.112546
     10          9           0       -1.365968    0.388894    1.386578
     11          9           0       -1.372822   -1.423639    0.228525
     12          1           0        1.727111    0.476523   -2.217248
 ---------------------------------------------------------------------

 Normal termination of Gaussian 16 at Fri May 23 04:04:55 2025.
