 Gaussian 16, Revision C.01,
 Gaussian 16:  ES64L-G16RevC.01  3-Jul-2019

 ----------------------------------------------------------------------
 #P wb97xd/6-311++G(d,p) Symm(None) scf(xqc) pop(None) freq opt(CalcFC)
 ----------------------------------------------------------------------

 ------------------------------
 Gaussian input prepared by ASE
 ------------------------------
 Symbolic Z-matrix:
 Charge =  0 Multiplicity = 1

 SCF Done:  E(RwB97XD) =  -1199.82201981     A.U. after   14 cycles
 SCF Done:  E(RwB97XD) =  -1199.82247474     A.U. after   13 cycles
 SCF Done:  E(RwB97XD) =  -1199.82390214     A.U. after   13 cycles
 SCF Done:  E(RwB97XD) =  -1199.82575161     A.U. after   14 cycles
 SCF Done:  E(RwB97XD) =  -1199.82567635     A.U. after   12 cycles
 SCF Done:  E(RwB97XD) =  -1199.82600653     A.U. after   12 cycles
 SCF Done:  E(RwB97XD) =  -1199.82213978     A.U. after   14 cycles
 SCF Done:  E(RwB97XD) =  -1199.82602780     A.U. after   11 cycles
 SCF Done:  E(RwB97XD) =  -1199.82604200     A.U. after   11 cycles
 SCF Done:  E(RwB97XD) =  -1199.82604384     A.U. after   10 cycles
 SCF Done:  E(RwB97XD) =  -1199.82604394     A.U. after    9 cycles
 Optimization completed.
    -- Stationary point found.
 Normal termination of Gaussian 16 at Fri May 23 03:38:49 2025.

 ----------------------------------------------------------------------
 #P Geom=AllCheck Guess=TCheck SCRF=Check GenChk RwB97XD/6-311++G(d,p)
 Freq
 ----------------------------------------------------------------------

 Structure from the checkpoint file:  "2003846667223680600001_r12_insertion_R_6_5_2_IRC_R_prod.chk"
 ------------------------------
 Gaussian input prepared by ASE
 ------------------------------
 Charge =  0 Multiplicity = 1

                          Input orientation:
 ---------------------------------------------------------------------
 Center     Atomic      Atomic             Coordinates (Angstroms)
 Number     Number       Type             X           Y           Z
 ---------------------------------------------------------------------
      1          6           0       -1.211569   -0.339471    0.807029
      2          6           0       -0.436935    0.224560   -0.418099
      3          9           0       -0.849275   -0.394186   -1.520961
      4          9           0       -0.691296    1.536459   -0.524296
      5         16           0        1.424411    0.024587   -0.298153
      6          8           0        1.846061    0.687889    0.903919
      7          8           0        1.748675   -1.327024   -0.619310
      8          8           0        1.833354    0.914781   -1.566976
      9          9           0       -0.860432   -1.599818    1.029015
     10          9           0       -0.963179    0.382432    1.889051
     11          9           0       -2.514556   -0.292260    0.548007
     12          1           0        1.924734    1.842467   -1.312490
 ---------------------------------------------------------------------

 SCF Done:  E(RwB97XD) =  -1199.82604394     A.U. after    1 cycles

 Isotropic polarizability for W=    0.000000       55.70 Bohr**3.
 End of Minotr F.D. properties file   721 does not exist.

                      1                      2                      3
                      A                      A                      A
 Frequencies --     26.7375                68.3609               132.1285
 Red. masses --     14.2060                14.4539                14.7165
 Frc consts  --      0.0060                 0.0398                 0.1514
 IR Inten    --      1.2621                 0.7278                 1.2748

                      4                      5                      6
                      A                      A                      A
 Frequencies --    193.8942               222.4264               234.2920
 Red. masses --      9.1601                17.8879                 8.0461
 Frc consts  --      0.2029                 0.5214                 0.2602
 IR Inten    --      8.3929                 1.2451                 9.6736

                      7                      8                      9
                      A                      A                      A
 Frequencies --    275.1053               311.4911               317.9918
 Red. masses --     15.2198                 5.3191                18.2081
 Frc consts  --      0.6787                 0.3041                 1.0848
 IR Inten    --      1.4076                15.4381                 0.3196

                     10                     11                     12
                      A                      A                      A
 Frequencies --    359.8425               371.4025               436.7248
 Red. masses --      1.8527                17.2858                 4.0788
 Frc consts  --      0.1413                 1.4048                 0.4583
 IR Inten    --     57.3677                 0.2920                31.6169

                     13                     14                     15
                      A                      A                      A
 Frequencies --    484.6007               489.4658               539.3684
 Red. masses --     13.1736                 8.4322                17.8430
 Frc consts  --      1.8227                 1.1902                 3.0584
 IR Inten    --     14.8597                20.4527                28.6748

                     16                     17                     18
                      A                      A                      A
 Frequencies --    600.3524               609.2505               653.6790
 Red. masses --     17.3813                20.1329                17.3466
 Frc consts  --      3.6910                 4.4030                 4.3671
 IR Inten    --      3.5058               118.4962                29.9499

                     19                     20                     21
                      A                      A                      A
 Frequencies --    764.7270               826.2036              1005.6463
 Red. masses --     17.1247                17.1048                13.8225
 Frc consts  --      5.9005                 6.8793                 8.2362
 IR Inten    --     40.5135               218.6824                52.6420

                     22                     23                     24
                      A                      A                      A
 Frequencies --   1131.6201              1157.5868              1201.8368
 Red. masses --      1.1952                12.1940                15.9644
 Frc consts  --      0.9018                 9.6273                13.5861
 IR Inten    --    108.0447               241.6090                 6.3471

                     25                     26                     27
                      A                      A                      A
 Frequencies --   1219.2007              1248.9244              1253.7499
 Red. masses --     13.1166                13.7134                13.1782
 Frc consts  --     11.4874                12.6028                12.2048
 IR Inten    --    109.7773               333.4743               260.3038

                     28                     29                     30
                      A                      A                      A
 Frequencies --   1344.5887              1444.1194              3833.8715
 Red. masses --     12.6431                14.2507                 1.0663
 Frc consts  --     13.4674                17.5102                 9.2339
 IR Inten    --    106.9217               313.4035               161.5988

 - Thermochemistry -
 -------------------
 Temperature   298.150 Kelvin.  Pressure   1.00000 Atm.
 Atom     1 has atomic number  6 and mass  12.00000

 Molecular mass:   199.95666 amu.
 Principal axes and moments of inertia in atomic units:
                           1         2         3
     Eigenvalues --  1133.369002198.065782320.68594
           X            0.90560   0.41993   0.05950
           Y            0.14665  -0.44168   0.88510
           Z           -0.39796   0.79283   0.46157
 This molecule is an asymmetric top.
 Rotational symmetry number  1.
 Warning -- assumption of classical behavior for rotation
           may cause significant error
 Rotational temperatures (Kelvin)      0.07642     0.03940     0.03732
 Rotational constants (GHZ):           1.59237     0.82106     0.77768
 Zero-point vibrational energy     136130.2 (Joules/Mol)
                                   32.53589 (Kcal/Mol)
 Warning -- explicit consideration of  17 degrees of freedom as
           vibrations may cause significant error
 Vibrational temperatures:     38.47    98.36   190.10   278.97   320.02
          (Kelvin)            337.09   395.82   448.17   457.52   517.73
                              534.37   628.35   697.23   704.23   776.03
                              863.77   876.58   940.50  1100.27  1188.72
                             1446.90  1628.15  1665.51  1729.18  1754.16
                             1796.92  1803.87  1934.56  2077.77  5516.09

 Zero-point correction=                           0.051849 (Hartree/Particle)
 Thermal correction to Energy=                    0.062289
 Thermal correction to Enthalpy=                  0.063234
 Thermal correction to Gibbs Free Energy=         0.014607
 Sum of electronic and zero-point Energies=          -1199.774195
 Sum of electronic and thermal Energies=             -1199.763755
 Sum of electronic and thermal Enthalpies=           -1199.762810
 Sum of electronic and thermal Free Energies=        -1199.811437

                     E (Thermal)             CV                S
                      KCal/Mol        Cal/Mol-Kelvin    Cal/Mol-Kelvin
 Total                   39.087             36.592            102.344
 Electronic               0.000              0.000              0.000
 Translational            0.889              2.981             41.783
 Rotational               0.889              2.981             30.137
 Vibrational             37.310             30.630             30.423
 Vibration     1          0.593              1.984              6.058
 Vibration     2          0.598              1.969              4.200
 Vibration     3          0.612              1.921              2.915
 Vibration     4          0.635              1.848              2.190
 Vibration     5          0.648              1.807              1.939
 Vibration     6          0.654              1.788              1.846
 Vibration     7          0.677              1.719              1.564
 Vibration     8          0.700              1.652              1.354
 Vibration     9          0.704              1.639              1.320
 Vibration    10          0.734              1.555              1.123
 Vibration    11          0.743              1.531              1.074
 Vibration    12          0.797              1.390              0.837
 Vibration    13          0.841              1.284              0.698
 Vibration    14          0.845              1.273              0.685
 Vibration    15          0.894              1.163              0.567
 Vibration    16          0.958              1.031              0.449
 Vibration    17          0.968              1.012              0.434

 Optimization completed.
    -- Stationary point found.
 Normal termination of Gaussian 16 at Fri May 23 03:40:07 2025.
