 Gaussian 16, Revision C.01,
 Gaussian 16:  ES64L-G16RevC.01  3-Jul-2019

 ----------------------------------------------------------------------
 #P wb97xd/6-311++G(d,p) Symm(None) scf(xqc) pop(None) freq opt(CalcFC)
 ----------------------------------------------------------------------

 ------------------------------
 Gaussian input prepared by ASE
 ------------------------------
 Symbolic Z-matrix:
 Charge =  0 Multiplicity = 1

 SCF Done:  E(RwB97XD) =  -1199.77214714     A.U. after   16 cycles
 SCF Done:  E(RwB97XD) =  -1199.79660650     A.U. after   14 cycles
 SCF Done:  E(RwB97XD) =  -1199.81421865     A.U. after   15 cycles
 SCF Done:  E(RwB97XD) =  -1199.82092910     A.U. after   15 cycles
 SCF Done:  E(RwB97XD) =  -1199.82175854     A.U. after   15 cycles
 SCF Done:  E(RwB97XD) =  -1199.82119808     A.U. after   15 cycles
 SCF Done:  E(RwB97XD) =  -1199.82303443     A.U. after   13 cycles
 SCF Done:  E(RwB97XD) =  -1199.82364573     A.U. after   15 cycles
 SCF Done:  E(RwB97XD) =  -1199.82461427     A.U. after   13 cycles
 SCF Done:  E(RwB97XD) =  -1199.82478913     A.U. after   11 cycles
 SCF Done:  E(RwB97XD) =  -1199.82517456     A.U. after   13 cycles
 SCF Done:  E(RwB97XD) =  -1199.82505129     A.U. after   15 cycles
 SCF Done:  E(RwB97XD) =  -1199.82563789     A.U. after   13 cycles
 SCF Done:  E(RwB97XD) =  -1199.82581075     A.U. after   12 cycles
 SCF Done:  E(RwB97XD) =  -1199.82594664     A.U. after   11 cycles
 SCF Done:  E(RwB97XD) =  -1199.82597054     A.U. after   11 cycles
 SCF Done:  E(RwB97XD) =  -1199.82597607     A.U. after   10 cycles
 SCF Done:  E(RwB97XD) =  -1199.82597725     A.U. after    9 cycles
 SCF Done:  E(RwB97XD) =  -1199.82597732     A.U. after    8 cycles
 Optimization completed.
    -- Stationary point found.
 Normal termination of Gaussian 16 at Fri May 23 04:27:03 2025.

 ----------------------------------------------------------------------
 #P Geom=AllCheck Guess=TCheck SCRF=Check GenChk RwB97XD/6-311++G(d,p)
 Freq
 ----------------------------------------------------------------------

 Structure from the checkpoint file:  "2003846667223680600001_r12_insertion_R_6_5_7_IRC_F_prod.chk"
 ------------------------------
 Gaussian input prepared by ASE
 ------------------------------
 Charge =  0 Multiplicity = 1

                          Input orientation:
 ---------------------------------------------------------------------
 Center     Atomic      Atomic             Coordinates (Angstroms)
 Number     Number       Type             X           Y           Z
 ---------------------------------------------------------------------
      1          6           0       -1.206262    0.024706    0.856062
      2          6           0       -0.403158   -0.025625   -0.475000
      3          9           0       -0.805551   -1.078182   -1.184143
      4          9           0       -0.641070    1.094191   -1.171010
      5         16           0        1.458467   -0.173707   -0.288444
      6          8           0        1.734594   -1.036049    0.815637
      7          8           0        1.964590   -0.383609   -1.615294
      8          8           0        1.812662    1.316398    0.179096
      9          9           0       -1.139356   -1.137801    1.483189
     10          9           0       -0.736944    0.983110    1.645861
     11          9           0       -2.479743    0.288663    0.573657
     12          1           0        1.957398    1.884259   -0.589157
 ---------------------------------------------------------------------

 SCF Done:  E(RwB97XD) =  -1199.82597732     A.U. after    1 cycles

 Isotropic polarizability for W=    0.000000       55.76 Bohr**3.
 End of Minotr F.D. properties file   721 does not exist.

                      1                      2                      3
                      A                      A                      A
 Frequencies --     43.2992                66.6254               131.4019
 Red. masses --     13.0824                16.2492                16.7240
 Frc consts  --      0.0145                 0.0425                 0.1701
 IR Inten    --      2.0168                 0.3757                 0.7192

                      4                      5                      6
                      A                      A                      A
 Frequencies --    190.7773               223.3054               239.2425
 Red. masses --      5.7819                17.2528                14.7741
 Frc consts  --      0.1240                 0.5069                 0.4982
 IR Inten    --     13.6387                 1.2627                 7.3664

                      7                      8                      9
                      A                      A                      A
 Frequencies --    276.3873               310.9272               316.9408
 Red. masses --     12.4248                15.6240                 5.8255
 Frc consts  --      0.5592                 0.8899                 0.3448
 IR Inten    --      0.8345                 0.6284                11.3331

                     10                     11                     12
                      A                      A                      A
 Frequencies --    345.2909               374.3432               436.1845
 Red. masses --      1.9906                 7.0528                11.9158
 Frc consts  --      0.1398                 0.5823                 1.3357
 IR Inten    --     54.0357                 8.9672                16.2943

                     13                     14                     15
                      A                      A                      A
 Frequencies --    458.2543               509.9801               537.9246
 Red. masses --      4.2649                14.2597                17.9992
 Frc consts  --      0.5277                 2.1851                 3.0686
 IR Inten    --     36.8722                13.2950                23.6582

                     16                     17                     18
                      A                      A                      A
 Frequencies --    600.5201               608.8085               654.2617
 Red. masses --     17.4293                20.2533                17.1129
 Frc consts  --      3.7033                 4.4229                 4.3160
 IR Inten    --      4.1437               119.6148                24.8412

                     19                     20                     21
                      A                      A                      A
 Frequencies --    764.9872               834.4964              1006.0285
 Red. masses --     17.1747                17.4298                13.5059
 Frc consts  --      5.9217                 7.1514                 8.0537
 IR Inten    --     20.1859               195.8570               113.8520

                     22                     23                     24
                      A                      A                      A
 Frequencies --   1131.3077              1152.6389              1205.4919
 Red. masses --      1.1914                14.1174                13.8764
 Frc consts  --      0.8984                11.0507                11.8811
 IR Inten    --     90.0114               132.4787                48.9638

                     25                     26                     27
                      A                      A                      A
 Frequencies --   1223.7348              1234.6460              1260.6232
 Red. masses --     13.9684                13.3019                13.2790
 Frc consts  --     12.3245                11.9467                12.4333
 IR Inten    --    196.6184               217.5228               392.5289

                     28                     29                     30
                      A                      A                      A
 Frequencies --   1345.2484              1441.4694              3834.3738
 Red. masses --     12.6769                14.0830                 1.0663
 Frc consts  --     13.5166                17.2408                 9.2365
 IR Inten    --     96.7933               293.8332               164.1406

 - Thermochemistry -
 -------------------
 Temperature   298.150 Kelvin.  Pressure   1.00000 Atm.
 Atom     1 has atomic number  6 and mass  12.00000

 Molecular mass:   199.95666 amu.
 Principal axes and moments of inertia in atomic units:
                           1         2         3
     Eigenvalues --  1146.430462162.316592301.90435
           X            0.92865   0.37048   0.01895
           Y           -0.02264   0.00561   0.99973
           Z           -0.37027   0.92882  -0.01360
 This molecule is an asymmetric top.
 Rotational symmetry number  1.
 Warning -- assumption of classical behavior for rotation
           may cause significant error
 Rotational temperatures (Kelvin)      0.07555     0.04006     0.03763
 Rotational constants (GHZ):           1.57423     0.83463     0.78402
 Zero-point vibrational energy     136132.2 (Joules/Mol)
                                   32.53637 (Kcal/Mol)
 Warning -- explicit consideration of  17 degrees of freedom as
           vibrations may cause significant error
 Vibrational temperatures:     62.30    95.86   189.06   274.49   321.29
          (Kelvin)            344.22   397.66   447.35   456.01   496.80
                              538.60   627.57   659.33   733.75   773.95
                              864.01   875.94   941.34  1100.65  1200.65
                             1447.45  1627.70  1658.39  1734.43  1760.68
                             1776.38  1813.76  1935.51  2073.95  5516.81

 Zero-point correction=                           0.051850 (Hartree/Particle)
 Thermal correction to Energy=                    0.062274
 Thermal correction to Enthalpy=                  0.063219
 Thermal correction to Gibbs Free Energy=         0.014995
 Sum of electronic and zero-point Energies=          -1199.774127
 Sum of electronic and thermal Energies=             -1199.763703
 Sum of electronic and thermal Enthalpies=           -1199.762759
 Sum of electronic and thermal Free Energies=        -1199.810983

                     E (Thermal)             CV                S
                      KCal/Mol        Cal/Mol-Kelvin    Cal/Mol-Kelvin
 Total                   39.078             36.615            101.496
 Electronic               0.000              0.000              0.000
 Translational            0.889              2.981             41.783
 Rotational               0.889              2.981             30.124
 Vibrational             37.300             30.653             29.589
 Vibration     1          0.595              1.980              5.102
 Vibration     2          0.598              1.970              4.251
 Vibration     3          0.612              1.922              2.925
 Vibration     4          0.634              1.853              2.220
 Vibration     5          0.649              1.806              1.932
 Vibration     6          0.657              1.780              1.809
 Vibration     7          0.678              1.717              1.556
 Vibration     8          0.700              1.653              1.357
 Vibration     9          0.704              1.641              1.326
 Vibration    10          0.724              1.585              1.188
 Vibration    11          0.745              1.525              1.062
 Vibration    12          0.797              1.391              0.839
 Vibration    13          0.816              1.343              0.771
 Vibration    14          0.865              1.228              0.634
 Vibration    15          0.893              1.166              0.570
 Vibration    16          0.959              1.031              0.449
 Vibration    17          0.968              1.013              0.435

 Optimization completed.
    -- Stationary point found.
 Normal termination of Gaussian 16 at Fri May 23 04:28:31 2025.
