 Gaussian 16, Revision C.01,
 Gaussian 16:  ES64L-G16RevC.01  3-Jul-2019

 ----------------------------------------------------------------------
 #P wb97xd/6-311++G(d,p) Symm(None) scf(xqc) pop(None) geom(AllCheck,No
 KeepConstants) guess(Read) irc(RCFC,forward,MaxPoints=100,StepSize=2)
 ----------------------------------------------------------------------

 Structure from the checkpoint file:  "2003846667223680600001_r12_insertion_R_1_2_3_IRC_F.chk"
 ------------------------------
 Gaussian input prepared by ASE
 ------------------------------
 Charge =  0 Multiplicity = 1

 SCF Done:  E(RwB97XD) =  -1199.67751107     A.U. after   12 cycles
 SCF Done:  E(RwB97XD) =  -1199.67773586     A.U. after   12 cycles
 SCF Done:  E(RwB97XD) =  -1199.67810904     A.U. after   12 cycles
 SCF Done:  E(RwB97XD) =  -1199.67862851     A.U. after   12 cycles
 SCF Done:  E(RwB97XD) =  -1199.67929217     A.U. after   12 cycles
 SCF Done:  E(RwB97XD) =  -1199.68009818     A.U. after   12 cycles
 SCF Done:  E(RwB97XD) =  -1199.68104462     A.U. after   12 cycles
 SCF Done:  E(RwB97XD) =  -1199.68212861     A.U. after   12 cycles
 SCF Done:  E(RwB97XD) =  -1199.68334542     A.U. after   12 cycles
 SCF Done:  E(RwB97XD) =  -1199.68468831     A.U. after   12 cycles
 SCF Done:  E(RwB97XD) =  -1199.82031259     A.U. after    9 cycles
 SCF Done:  E(RwB97XD) =  -1199.82069767     A.U. after    9 cycles
 SCF Done:  E(RwB97XD) =  -1199.82106088     A.U. after    9 cycles
 SCF Done:  E(RwB97XD) =  -1199.82140284     A.U. after    9 cycles
 SCF Done:  E(RwB97XD) =  -1199.82172416     A.U. after    9 cycles
 SCF Done:  E(RwB97XD) =  -1199.82202545     A.U. after    9 cycles
 SCF Done:  E(RwB97XD) =  -1199.82230736     A.U. after    9 cycles
 SCF Done:  E(RwB97XD) =  -1199.82257050     A.U. after    9 cycles
 SCF Done:  E(RwB97XD) =  -1199.82281551     A.U. after    9 cycles
 SCF Done:  E(RwB97XD) =  -1199.82304304     A.U. after    9 cycles

                          Input orientation:
 ---------------------------------------------------------------------
 Center     Atomic      Atomic             Coordinates (Angstroms)
 Number     Number       Type             X           Y           Z
 ---------------------------------------------------------------------
      1          6           0       -1.284839   -0.454197    0.582848
      2          6           0       -0.425356    0.309884   -0.435663
      3          9           0       -0.684462   -0.137785   -1.660672
      4          9           0       -0.726979    1.608969   -0.354275
      5         16           0        1.420801    0.120476   -0.081370
      6          8           0        1.876440    1.139730    0.822098
      7          8           0        1.663677   -1.270731    0.133533
      8          8           0        1.905784    0.498508   -1.563210
      9          9           0       -1.097461   -1.760028    0.509852
     10          9           0       -0.933583   -0.002441    1.784494
     11          9           0       -2.570820   -0.204674    0.360033
     12          1           0        2.215663    1.413016   -1.582231
 ---------------------------------------------------------------------

 Normal termination of Gaussian 16 at Fri May 23 04:11:49 2025.
