 Gaussian 16, Revision C.01,
 Gaussian 16:  ES64L-G16RevC.01  3-Jul-2019

 ----------------------------------------------------------------------
 #P wb97xd/6-311++G(d,p) Symm(None) scf(xqc) pop(None) freq opt(CalcFC,
  Tight)
 ----------------------------------------------------------------------

 ------------------------------
 Gaussian input prepared by ASE
 ------------------------------
 Symbolic Z-matrix:
 Charge =  0 Multiplicity = 1

 SCF Done:  E(RwB97XD) =  -1199.73619760     A.U. after   16 cycles
 SCF Done:  E(RwB97XD) =  -1199.73619760     A.U. after    7 cycles
 Optimization completed.
    -- Stationary point found.
 Normal termination of Gaussian 16 at Fri May 23 05:12:24 2025.

 ----------------------------------------------------------------------
 #P Geom=AllCheck Guess=TCheck SCRF=Check GenChk RwB97XD/6-311++G(d,p)
 Freq
 ----------------------------------------------------------------------

 Structure from the checkpoint file:  "2003686066703381580601_well.chk"
 ------------------------------
 Gaussian input prepared by ASE
 ------------------------------
 Charge =  0 Multiplicity = 1

                          Input orientation:
 ---------------------------------------------------------------------
 Center     Atomic      Atomic             Coordinates (Angstroms)
 Number     Number       Type             X           Y           Z
 ---------------------------------------------------------------------
      1          6           0        1.368250    0.642097    0.695215
      2          6           0        0.256385   -0.399824    0.404212
      3          9           0        0.753300   -1.369377   -0.359152
      4          9           0       -0.170683   -0.905237    1.566538
      5         16           0       -1.251924    0.432229   -0.434453
      6          8           0       -3.270041   -0.972419   -0.885794
      7          8           0       -0.785168    0.948672   -1.718833
      8          8           0       -1.881368   -1.131545   -0.627093
      9          9           0        1.948062    1.043104   -0.424309
     10          9           0        0.828237    1.700081    1.308061
     11          9           0        2.288477    0.111700    1.492602
     12          1           0       -3.316857   -1.218726   -1.818353
 ---------------------------------------------------------------------

 SCF Done:  E(RwB97XD) =  -1199.73619760     A.U. after    1 cycles

 Isotropic polarizability for W=    0.000000       61.05 Bohr**3.
 End of Minotr F.D. properties file   721 does not exist.

                      1                      2                      3
                      A                      A                      A
 Frequencies --     35.3566                55.8227                77.9696
 Red. masses --     13.6599                12.7407                11.3823
 Frc consts  --      0.0101                 0.0234                 0.0408
 IR Inten    --      0.5025                 1.0750                 5.0330

                      4                      5                      6
                      A                      A                      A
 Frequencies --    115.1394               184.1317               199.4164
 Red. masses --     12.1740                10.0002                14.9928
 Frc consts  --      0.0951                 0.1998                 0.3513
 IR Inten    --      0.8398                 0.8951                 8.6683

                      7                      8                      9
                      A                      A                      A
 Frequencies --    225.8563               274.8023               296.7479
 Red. masses --     18.3290                17.3533                 5.8546
 Frc consts  --      0.5509                 0.7721                 0.3038
 IR Inten    --      1.5569                 1.1952                 8.6815

                     10                     11                     12
                      A                      A                      A
 Frequencies --    312.3097               339.0750               369.7883
 Red. masses --     15.5259                 1.5221                18.0667
 Frc consts  --      0.8922                 0.1031                 1.4556
 IR Inten    --      3.7158               112.1623                 0.2881

                     13                     14                     15
                      A                      A                      A
 Frequencies --    415.1633               450.9871               512.8777
 Red. masses --     13.3243                 6.2224                18.7119
 Frc consts  --      1.3531                 0.7457                 2.9000
 IR Inten    --     11.9686                23.0412                34.7146

                     16                     17                     18
                      A                      A                      A
 Frequencies --    552.4056               601.6220               629.4069
 Red. masses --     18.5860                18.0199                16.6480
 Frc consts  --      3.3416                 3.8428                 3.8858
 IR Inten    --      6.6913                 8.0514                42.9768

                     19                     20                     21
                      A                      A                      A
 Frequencies --    708.2910               759.6781               961.4797
 Red. masses --     17.1799                17.2475                13.6547
 Frc consts  --      5.0780                 5.8645                 7.4372
 IR Inten    --     59.0394                21.6055               106.9901

                     22                     23                     24
                      A                      A                      A
 Frequencies --   1001.3841              1157.6116              1216.1287
 Red. masses --     14.7052                13.5758                14.5863
 Frc consts  --      8.6881                10.7187                12.7103
 IR Inten    --     19.0971               193.4874                29.2298

                     25                     26                     27
                      A                      A                      A
 Frequencies --   1225.5142              1232.1858              1261.8509
 Red. masses --     13.2926                14.6733                14.1700
 Frc consts  --     11.7624                13.1259                13.2934
 IR Inten    --    274.4305                64.1507               473.0200

                     28                     29                     30
                      A                      A                      A
 Frequencies --   1348.9465              1430.8620              3824.6977
 Red. masses --     12.2770                 1.1129                 1.0686
 Frc consts  --     13.1623                 1.3424                 9.2103
 IR Inten    --    137.6352                61.8620                87.7033

 - Thermochemistry -
 -------------------
 Temperature   298.150 Kelvin.  Pressure   1.00000 Atm.
 Atom     1 has atomic number  6 and mass  12.00000

 Molecular mass:   199.95666 amu.
 Principal axes and moments of inertia in atomic units:
                           1         2         3
     Eigenvalues --  1010.921712632.880772911.76218
           X            0.88271   0.01218  -0.46975
           Y            0.26033   0.81956   0.51044
           Z            0.39121  -0.57286   0.72027
 This molecule is an asymmetric top.
 Rotational symmetry number  1.
 Warning -- assumption of classical behavior for rotation
           may cause significant error
 Rotational temperatures (Kelvin)      0.08568     0.03290     0.02975
 Rotational constants (GHZ):           1.78524     0.68546     0.61981
 Zero-point vibrational energy     130258.4 (Joules/Mol)
                                   31.13251 (Kcal/Mol)
 Warning -- explicit consideration of  17 degrees of freedom as
           vibrations may cause significant error
 Vibrational temperatures:     50.87    80.32   112.18   165.66   264.92
          (Kelvin)            286.92   324.96   395.38   426.95   449.34
                              487.85   532.04   597.33   648.87   737.92
                              794.79   865.60   905.58  1019.07  1093.01
                             1383.35  1440.77  1665.54  1749.74  1763.24
                             1772.84  1815.52  1940.83  2058.69  5502.89

 Zero-point correction=                           0.049613 (Hartree/Particle)
 Thermal correction to Energy=                    0.060920
 Thermal correction to Enthalpy=                  0.061864
 Thermal correction to Gibbs Free Energy=         0.010973
 Sum of electronic and zero-point Energies=          -1199.686585
 Sum of electronic and thermal Energies=             -1199.675277
 Sum of electronic and thermal Enthalpies=           -1199.674333
 Sum of electronic and thermal Free Energies=        -1199.725225

                     E (Thermal)             CV                S
                      KCal/Mol        Cal/Mol-Kelvin    Cal/Mol-Kelvin
 Total                   38.228             38.177            107.110
 Electronic               0.000              0.000              0.000
 Translational            0.889              2.981             41.783
 Rotational               0.889              2.981             30.428
 Vibrational             36.450             32.215             34.898
 Vibration     1          0.594              1.982              5.504
 Vibration     2          0.596              1.975              4.600
 Vibration     3          0.599              1.964              3.941
 Vibration     4          0.608              1.937              3.180
 Vibration     5          0.631              1.861              2.286
 Vibration     6          0.638              1.841              2.138
 Vibration     7          0.650              1.802              1.912
 Vibration     8          0.677              1.720              1.566
 Vibration     9          0.690              1.680              1.435
 Vibration    10          0.701              1.650              1.350
 Vibration    11          0.719              1.597              1.216
 Vibration    12          0.742              1.534              1.081
 Vibration    13          0.779              1.437              0.909
 Vibration    14          0.810              1.359              0.793
 Vibration    15          0.868              1.221              0.627
 Vibration    16          0.908              1.134              0.539
 Vibration    17          0.960              1.028              0.447

 Optimization completed.
    -- Stationary point found.
 Normal termination of Gaussian 16 at Fri May 23 05:13:38 2025.
