 Gaussian 16, Revision C.01,
 Gaussian 16:  ES64L-G16RevC.01  3-Jul-2019

 ----------------------------------------------------------------------
 #P wb97xd/6-311++G(d,p) Symm(None) scf(xqc) pop(None) freq opt(CalcFC)
 ----------------------------------------------------------------------

 ------------------------------
 Gaussian input prepared by ASE
 ------------------------------
 Symbolic Z-matrix:
 Charge =  0 Multiplicity = 1

 SCF Done:  E(RwB97XD) =  -1199.82203251     A.U. after   14 cycles
 SCF Done:  E(RwB97XD) =  -1199.82244573     A.U. after   13 cycles
 SCF Done:  E(RwB97XD) =  -1199.82377884     A.U. after   14 cycles
 SCF Done:  E(RwB97XD) =  -1199.82543690     A.U. after   14 cycles
 SCF Done:  E(RwB97XD) =  -1199.82546519     A.U. after   14 cycles
 SCF Done:  E(RwB97XD) =  -1199.82446869     A.U. after   14 cycles
 SCF Done:  E(RwB97XD) =  -1199.82570229     A.U. after   14 cycles
 SCF Done:  E(RwB97XD) =  -1199.82551780     A.U. after   11 cycles
 SCF Done:  E(RwB97XD) =  -1199.82580738     A.U. after   12 cycles
 SCF Done:  E(RwB97XD) =  -1199.82587747     A.U. after   12 cycles
 SCF Done:  E(RwB97XD) =  -1199.82598694     A.U. after   13 cycles
 SCF Done:  E(RwB97XD) =  -1199.82602492     A.U. after   11 cycles
 SCF Done:  E(RwB97XD) =  -1199.82580698     A.U. after   13 cycles
 SCF Done:  E(RwB97XD) =  -1199.82604425     A.U. after   13 cycles
 SCF Done:  E(RwB97XD) =  -1199.82604412     A.U. after    9 cycles
 SCF Done:  E(RwB97XD) =  -1199.82604258     A.U. after   11 cycles
 SCF Done:  E(RwB97XD) =  -1199.82604542     A.U. after   11 cycles
 SCF Done:  E(RwB97XD) =  -1199.82604465     A.U. after   10 cycles
 SCF Done:  E(RwB97XD) =  -1199.82604552     A.U. after   10 cycles
 Optimization completed.
    -- Stationary point found.
 Normal termination of Gaussian 16 at Fri May 23 06:42:05 2025.

 ----------------------------------------------------------------------
 #P Geom=AllCheck Guess=TCheck SCRF=Check GenChk RwB97XD/6-311++G(d,p)
 Freq
 ----------------------------------------------------------------------

 Structure from the checkpoint file:  "2003846667223680600001_Intra_Diels_alder_R_6_7_IRC_F_prod.chk"
 ------------------------------
 Gaussian input prepared by ASE
 ------------------------------
 Charge =  0 Multiplicity = 1

                          Input orientation:
 ---------------------------------------------------------------------
 Center     Atomic      Atomic             Coordinates (Angstroms)
 Number     Number       Type             X           Y           Z
 ---------------------------------------------------------------------
      1          6           0       -1.293196   -0.223925    0.721372
      2          6           0       -0.380073    0.434627   -0.351845
      3          9           0       -0.916350    0.254574   -1.555590
      4          9           0       -0.291779    1.747922   -0.097703
      5         16           0        1.367293   -0.247421   -0.383603
      6          8           0        1.345291   -1.496883   -1.071777
      7          8           0        1.918315   -0.063483    0.929903
      8          8           0        2.014241    0.823393   -1.385707
      9          9           0       -0.893245    0.105634    1.939945
     10          9           0       -2.538682    0.206298    0.546266
     11          9           0       -1.270104   -1.544616    0.592896
     12          1           0        2.331479    1.594153   -0.896834
 ---------------------------------------------------------------------

 SCF Done:  E(RwB97XD) =  -1199.82604552     A.U. after    1 cycles

 Isotropic polarizability for W=    0.000000       55.70 Bohr**3.
 End of Minotr F.D. properties file   721 does not exist.

                      1                      2                      3
                      A                      A                      A
 Frequencies --     27.9524                67.5497               131.6882
 Red. masses --     14.2918                14.3040                14.6358
 Frc consts  --      0.0066                 0.0385                 0.1495
 IR Inten    --      1.2273                 0.7699                 1.3166

                      4                      5                      6
                      A                      A                      A
 Frequencies --    193.8487               222.6888               234.2643
 Red. masses --      8.6170                17.7232                 7.8567
 Frc consts  --      0.1908                 0.5178                 0.2540
 IR Inten    --      9.1760                 1.3161                10.0304

                      7                      8                      9
                      A                      A                      A
 Frequencies --    275.1617               310.5037               318.0338
 Red. masses --     15.0967                 4.7417                18.2000
 Frc consts  --      0.6735                 0.2694                 1.0846
 IR Inten    --      1.3300                18.4181                 0.3339

                     10                     11                     12
                      A                      A                      A
 Frequencies --    356.0502               371.4655               435.6909
 Red. masses --      1.9089                17.9128                 4.3168
 Frc consts  --      0.1426                 1.4563                 0.4828
 IR Inten    --     55.8919                 0.0908                30.0340

                     13                     14                     15
                      A                      A                      A
 Frequencies --    484.7339               489.6084               539.3534
 Red. masses --     12.8203                 8.7804                17.8613
 Frc consts  --      1.7748                 1.2401                 3.0613
 IR Inten    --     12.9946                21.9355                28.2640

                     16                     17                     18
                      A                      A                      A
 Frequencies --    600.3038               609.3386               653.7779
 Red. masses --     17.3805                20.1299                17.3564
 Frc consts  --      3.6902                 4.4036                 4.3709
 IR Inten    --      3.6108               117.5868                30.2304

                     19                     20                     21
                      A                      A                      A
 Frequencies --    764.6606               825.4522              1005.5919
 Red. masses --     17.1211                17.1428                13.8125
 Frc consts  --      5.8982                 6.8820                 8.2294
 IR Inten    --     41.2630               218.5317                52.6667

                     22                     23                     24
                      A                      A                      A
 Frequencies --   1130.5232              1157.8619              1202.6844
 Red. masses --      1.1946                12.2000                15.9686
 Frc consts  --      0.8996                 9.6366                13.6088
 IR Inten    --    107.3724               241.6464                 6.5691

                     25                     26                     27
                      A                      A                      A
 Frequencies --   1219.3241              1249.3005              1253.7144
 Red. masses --     13.1240                13.7490                13.1809
 Frc consts  --     11.4962                12.6431                12.2065
 IR Inten    --    108.7526               332.6822               262.9544

                     28                     29                     30
                      A                      A                      A
 Frequencies --   1344.7048              1445.8818              3832.3896
 Red. masses --     12.6468                14.3417                 1.0662
 Frc consts  --     13.4737                17.6651                 9.2267
 IR Inten    --    106.6915               312.9244               161.5064

 - Thermochemistry -
 -------------------
 Temperature   298.150 Kelvin.  Pressure   1.00000 Atm.
 Atom     1 has atomic number  6 and mass  12.00000

 Molecular mass:   199.95666 amu.
 Principal axes and moments of inertia in atomic units:
                           1         2         3
     Eigenvalues --  1133.503002197.622932320.35600
           X            0.92005  -0.28037   0.27370
           Y            0.01698   0.72642   0.68704
           Z           -0.39144  -0.62747   0.67310
 This molecule is an asymmetric top.
 Rotational symmetry number  1.
 Warning -- assumption of classical behavior for rotation
           may cause significant error
 Rotational temperatures (Kelvin)      0.07641     0.03941     0.03733
 Rotational constants (GHZ):           1.59218     0.82122     0.77779
 Zero-point vibrational energy     136099.8 (Joules/Mol)
                                   32.52862 (Kcal/Mol)
 Warning -- explicit consideration of  17 degrees of freedom as
           vibrations may cause significant error
 Vibrational temperatures:     40.22    97.19   189.47   278.91   320.40
          (Kelvin)            337.05   395.90   446.75   457.58   512.28
                              534.46   626.86   697.42   704.44   776.01
                              863.70   876.70   940.64  1100.18  1187.64
                             1446.82  1626.57  1665.91  1730.39  1754.34
                             1797.46  1803.82  1934.73  2080.30  5513.95

 Zero-point correction=                           0.051838 (Hartree/Particle)
 Thermal correction to Energy=                    0.062283
 Thermal correction to Enthalpy=                  0.063227
 Thermal correction to Gibbs Free Energy=         0.014618
 Sum of electronic and zero-point Energies=          -1199.774208
 Sum of electronic and thermal Energies=             -1199.763762
 Sum of electronic and thermal Enthalpies=           -1199.762818
 Sum of electronic and thermal Free Energies=        -1199.811428

                     E (Thermal)             CV                S
                      KCal/Mol        Cal/Mol-Kelvin    Cal/Mol-Kelvin
 Total                   39.083             36.603            102.307
 Electronic               0.000              0.000              0.000
 Translational            0.889              2.981             41.783
 Rotational               0.889              2.981             30.137
 Vibrational             37.306             30.642             30.387
 Vibration     1          0.593              1.984              5.970
 Vibration     2          0.598              1.970              4.224
 Vibration     3          0.612              1.922              2.921
 Vibration     4          0.635              1.848              2.191
 Vibration     5          0.648              1.807              1.937
 Vibration     6          0.654              1.788              1.846
 Vibration     7          0.677              1.719              1.564
 Vibration     8          0.699              1.654              1.360
 Vibration     9          0.704              1.639              1.320
 Vibration    10          0.732              1.563              1.139
 Vibration    11          0.743              1.531              1.074
 Vibration    12          0.796              1.392              0.840
 Vibration    13          0.841              1.284              0.697
 Vibration    14          0.845              1.273              0.685
 Vibration    15          0.894              1.163              0.567
 Vibration    16          0.958              1.031              0.449
 Vibration    17          0.968              1.012              0.434

 Optimization completed.
    -- Stationary point found.
 Normal termination of Gaussian 16 at Fri May 23 06:43:16 2025.
