 Gaussian 16, Revision C.01,
 Gaussian 16:  ES64L-G16RevC.01  3-Jul-2019

 ----------------------------------------------------------------------
 #P wb97xd/6-311++G(d,p) Symm(None) scf(xqc) pop(None) freq opt(CalcFC)
 ----------------------------------------------------------------------

 ------------------------------
 Gaussian input prepared by ASE
 ------------------------------
 Symbolic Z-matrix:
 Charge =  0 Multiplicity = 1

 SCF Done:  E(RwB97XD) =  -1199.81518803     A.U. after   14 cycles
 SCF Done:  E(RwB97XD) =  -1199.82267811     A.U. after   14 cycles
 SCF Done:  E(RwB97XD) =  -1199.82368227     A.U. after   15 cycles
 SCF Done:  E(RwB97XD) =  -1199.81864905     A.U. after   15 cycles
 SCF Done:  E(RwB97XD) =  -1199.82400904     A.U. after   13 cycles
 SCF Done:  E(RwB97XD) =  -1199.82408904     A.U. after   11 cycles
 SCF Done:  E(RwB97XD) =  -1199.82411173     A.U. after   10 cycles
 SCF Done:  E(RwB97XD) =  -1199.82412417     A.U. after   10 cycles
 SCF Done:  E(RwB97XD) =  -1199.82413535     A.U. after   10 cycles
 SCF Done:  E(RwB97XD) =  -1199.82414463     A.U. after   10 cycles
 SCF Done:  E(RwB97XD) =  -1199.82415108     A.U. after   10 cycles
 SCF Done:  E(RwB97XD) =  -1199.82415561     A.U. after   10 cycles
 SCF Done:  E(RwB97XD) =  -1199.82415913     A.U. after   10 cycles
 SCF Done:  E(RwB97XD) =  -1199.82415942     A.U. after    9 cycles
 Optimization completed.
    -- Stationary point found.
 Normal termination of Gaussian 16 at Fri May 23 04:33:42 2025.

 ----------------------------------------------------------------------
 #P Geom=AllCheck Guess=TCheck SCRF=Check GenChk RwB97XD/6-311++G(d,p)
 Freq
 ----------------------------------------------------------------------

 Structure from the checkpoint file:  "2003846667223680600001_r12_insertion_R_1_2_5_IRC_R_prod.chk"
 ------------------------------
 Gaussian input prepared by ASE
 ------------------------------
 Charge =  0 Multiplicity = 1

                          Input orientation:
 ---------------------------------------------------------------------
 Center     Atomic      Atomic             Coordinates (Angstroms)
 Number     Number       Type             X           Y           Z
 ---------------------------------------------------------------------
      1          6           0       -0.327831   -0.227187    0.587471
      2          6           0       -1.295140   -0.152898   -0.631859
      3          9           0       -0.768676   -0.782558   -1.683504
      4          9           0       -1.529334    1.108934   -0.965743
      5         16           0        1.487740    0.083804    0.190606
      6          8           0        2.069743    0.620364    1.378266
      7          8           0        1.984539   -1.080653   -0.486680
      8          8           0        1.359497    1.286868   -0.863750
      9          9           0       -0.380386   -1.454363    1.107553
     10          9           0       -0.718084    0.659370    1.498151
     11          9           0       -2.443954   -0.734273   -0.317484
     12          1           0        1.422938    0.945622   -1.765807
 ---------------------------------------------------------------------

 SCF Done:  E(RwB97XD) =  -1199.82415942     A.U. after    1 cycles

 Isotropic polarizability for W=    0.000000       55.81 Bohr**3.
 End of Minotr F.D. properties file   721 does not exist.

                      1                      2                      3
                      A                      A                      A
 Frequencies --     40.9009                61.7315               143.6450
 Red. masses --     11.6174                18.4926                12.5361
 Frc consts  --      0.0115                 0.0415                 0.1524
 IR Inten    --      1.5393                 0.1720                 3.4917

                      4                      5                      6
                      A                      A                      A
 Frequencies --    200.3245               228.6923               243.5603
 Red. masses --     16.8505                18.4193                12.9025
 Frc consts  --      0.3984                 0.5676                 0.4510
 IR Inten    --      2.1190                 1.5315                 0.8400

                      7                      8                      9
                      A                      A                      A
 Frequencies --    277.6004               301.0700               315.9034
 Red. masses --     12.5344                 4.6224                17.0116
 Frc consts  --      0.5691                 0.2469                 1.0002
 IR Inten    --     12.5637                21.4570                 0.8075

                     10                     11                     12
                      A                      A                      A
 Frequencies --    355.6915               371.8934               439.7576
 Red. masses --      2.0364                10.7172                 3.4586
 Frc consts  --      0.1518                 0.8733                 0.3941
 IR Inten    --     67.6833                 8.2598                31.5276

                     13                     14                     15
                      A                      A                      A
 Frequencies --    462.7074               504.6744               541.2196
 Red. masses --      7.3970                14.8300                16.5455
 Frc consts  --      0.9331                 2.2254                 2.8555
 IR Inten    --     29.2259                12.8481                21.3514

                     16                     17                     18
                      A                      A                      A
 Frequencies --    598.7407               608.0418               654.2458
 Red. masses --     17.7891                19.7750                15.9888
 Frc consts  --      3.7573                 4.3076                 4.0322
 IR Inten    --      3.2202               121.3439                22.3131

                     19                     20                     21
                      A                      A                      A
 Frequencies --    762.7594               831.1078               997.7095
 Red. masses --     17.0649                17.8191                13.4868
 Frc consts  --      5.8497                 7.2519                 7.9098
 IR Inten    --     14.5239               197.7427               120.5650

                     22                     23                     24
                      A                      A                      A
 Frequencies --   1126.0167              1154.0877              1214.9350
 Red. masses --      1.2073                13.7743                15.5333
 Frc consts  --      0.9019                10.8093                13.5089
 IR Inten    --     79.4607               109.6818               152.0934

                     25                     26                     27
                      A                      A                      A
 Frequencies --   1228.0771              1238.1461              1250.9532
 Red. masses --     12.2283                12.4350                13.0906
 Frc consts  --     10.8659                11.2315                12.0696
 IR Inten    --     93.0440               256.2671               341.1421

                     28                     29                     30
                      A                      A                      A
 Frequencies --   1342.5491              1443.6775              3828.6209
 Red. masses --     12.7025                14.1670                 1.0663
 Frc consts  --     13.4897                17.3967                 9.2095
 IR Inten    --    116.8342               297.7454               158.2188

 - Thermochemistry -
 -------------------
 Temperature   298.150 Kelvin.  Pressure   1.00000 Atm.
 Atom     1 has atomic number  6 and mass  12.00000

 Molecular mass:   199.95666 amu.
 Principal axes and moments of inertia in atomic units:
                           1         2         3
     Eigenvalues --  1158.967732133.947422292.64558
           X            0.96367  -0.21124  -0.16346
           Y            0.11735  -0.21489   0.96956
           Z            0.23993   0.95352   0.18229
 This molecule is an asymmetric top.
 Rotational symmetry number  1.
 Warning -- assumption of classical behavior for rotation
           may cause significant error
 Rotational temperatures (Kelvin)      0.07473     0.04059     0.03778
 Rotational constants (GHZ):           1.55720     0.84573     0.78719
 Zero-point vibrational energy     136189.1 (Joules/Mol)
                                   32.54998 (Kcal/Mol)
 Warning -- explicit consideration of  17 degrees of freedom as
           vibrations may cause significant error
 Vibrational temperatures:     58.85    88.82   206.67   288.22   329.04
          (Kelvin)            350.43   399.41   433.17   454.51   511.76
                              535.07   632.71   665.73   726.11   778.69
                              861.45   874.84   941.31  1097.44  1195.78
                             1435.48  1620.09  1660.47  1748.02  1766.93
                             1781.42  1799.84  1931.63  2077.13  5508.53

 Zero-point correction=                           0.051872 (Hartree/Particle)
 Thermal correction to Energy=                    0.062262
 Thermal correction to Enthalpy=                  0.063206
 Thermal correction to Gibbs Free Energy=         0.015016
 Sum of electronic and zero-point Energies=          -1199.772288
 Sum of electronic and thermal Energies=             -1199.761898
 Sum of electronic and thermal Enthalpies=           -1199.760953
 Sum of electronic and thermal Free Energies=        -1199.809144

                     E (Thermal)             CV                S
                      KCal/Mol        Cal/Mol-Kelvin    Cal/Mol-Kelvin
 Total                   39.070             36.588            101.425
 Electronic               0.000              0.000              0.000
 Translational            0.889              2.981             41.783
 Rotational               0.889              2.981             30.118
 Vibrational             37.292             30.627             29.524
 Vibration     1          0.594              1.981              5.215
 Vibration     2          0.597              1.973              4.401
 Vibration     3          0.616              1.910              2.755
 Vibration     4          0.638              1.839              2.130
 Vibration     5          0.651              1.797              1.889
 Vibration     6          0.659              1.773              1.777
 Vibration     7          0.679              1.715              1.548
 Vibration     8          0.693              1.672              1.411
 Vibration     9          0.703              1.643              1.331
 Vibration    10          0.731              1.564              1.141
 Vibration    11          0.744              1.530              1.072
 Vibration    12          0.800              1.383              0.827
 Vibration    13          0.820              1.333              0.758
 Vibration    14          0.860              1.240              0.647
 Vibration    15          0.896              1.159              0.563
 Vibration    16          0.957              1.034              0.452
 Vibration    17          0.967              1.015              0.436

 Optimization completed.
    -- Stationary point found.
 Normal termination of Gaussian 16 at Fri May 23 04:35:32 2025.
