 Gaussian 16, Revision C.01,
 Gaussian 16:  ES64L-G16RevC.01  3-Jul-2019

 ----------------------------------------------------------------------
 #P wb97xd/6-311++G(d,p) Symm(None) scf(xqc) pop(None) geom(AllCheck,No
 KeepConstants) guess(Read) irc(RCFC,forward,MaxPoints=100,StepSize=2)
 ----------------------------------------------------------------------

 Structure from the checkpoint file:  "2003846667223680600001_intra_H_migration_suprafacial_6_12_IRC_F.chk"
 ------------------------------
 Gaussian input prepared by ASE
 ------------------------------
 Charge =  0 Multiplicity = 1

 SCF Done:  E(RwB97XD) =  -1199.76592803     A.U. after   10 cycles
 SCF Done:  E(RwB97XD) =  -1199.76601843     A.U. after   10 cycles
 SCF Done:  E(RwB97XD) =  -1199.76616809     A.U. after   10 cycles
 SCF Done:  E(RwB97XD) =  -1199.76637665     A.U. after   10 cycles
 SCF Done:  E(RwB97XD) =  -1199.76664386     A.U. after   10 cycles
 SCF Done:  E(RwB97XD) =  -1199.76696907     A.U. after   10 cycles
 SCF Done:  E(RwB97XD) =  -1199.76735082     A.U. after   10 cycles
 SCF Done:  E(RwB97XD) =  -1199.76778699     A.U. after   10 cycles
 SCF Done:  E(RwB97XD) =  -1199.76827516     A.U. after   10 cycles
 SCF Done:  E(RwB97XD) =  -1199.76881299     A.U. after   10 cycles
 SCF Done:  E(RwB97XD) =  -1199.81511047     A.U. after    9 cycles
 SCF Done:  E(RwB97XD) =  -1199.81534593     A.U. after    9 cycles
 SCF Done:  E(RwB97XD) =  -1199.81557681     A.U. after    9 cycles
 SCF Done:  E(RwB97XD) =  -1199.81580321     A.U. after    9 cycles
 SCF Done:  E(RwB97XD) =  -1199.81602521     A.U. after    9 cycles
 SCF Done:  E(RwB97XD) =  -1199.81624290     A.U. after    9 cycles
 SCF Done:  E(RwB97XD) =  -1199.81645636     A.U. after    9 cycles
 SCF Done:  E(RwB97XD) =  -1199.81666567     A.U. after    9 cycles
 SCF Done:  E(RwB97XD) =  -1199.81687091     A.U. after    9 cycles
 SCF Done:  E(RwB97XD) =  -1199.81707215     A.U. after    9 cycles

                          Input orientation:
 ---------------------------------------------------------------------
 Center     Atomic      Atomic             Coordinates (Angstroms)
 Number     Number       Type             X           Y           Z
 ---------------------------------------------------------------------
      1          6           0        0.862445   -1.128495   -0.376061
      2          6           0        0.592410    0.207593    0.368318
      3          9           0        0.817429    0.037386    1.666714
      4          9           0        1.414344    1.146910   -0.104054
      5         16           0       -1.139693    0.932792    0.123813
      6          8           0       -2.116834   -0.333931    0.024495
      7          8           0       -1.354649    1.767822    1.266064
      8          8           0       -1.224618    1.411955   -1.232299
      9          9           0        0.195656   -2.116327    0.205316
     10          9           0        0.491972   -1.040291   -1.649169
     11          9           0        2.161625   -1.394972   -0.323841
     12          1           0       -2.418654   -0.315861   -0.895185
 ---------------------------------------------------------------------

 Normal termination of Gaussian 16 at Fri May 23 04:15:25 2025.
