 Gaussian 16, Revision C.01,
 Gaussian 16:  ES64L-G16RevC.01  3-Jul-2019

 ----------------------------------------------------------------------
 #P wb97xd/6-311++G(d,p) Symm(None) scf(xqc) pop(None) geom(AllCheck,No
 KeepConstants) guess(Read) irc(RCFC,forward,MaxPoints=100,StepSize=2)
 ----------------------------------------------------------------------

 Structure from the checkpoint file:  "2003846667223680600001_r13_insertion_ROR_3_2_5_8_IRC_F.chk"
 ------------------------------
 Gaussian input prepared by ASE
 ------------------------------
 Charge =  0 Multiplicity = 1

 SCF Done:  E(RwB97XD) =  -1199.59819631     A.U. after   13 cycles
 SCF Done:  E(RwB97XD) =  -1199.59823617     A.U. after   13 cycles
 SCF Done:  E(RwB97XD) =  -1199.59830221     A.U. after   13 cycles
 SCF Done:  E(RwB97XD) =  -1199.59839440     A.U. after   13 cycles
 SCF Done:  E(RwB97XD) =  -1199.59851298     A.U. after   13 cycles
 SCF Done:  E(RwB97XD) =  -1199.59865819     A.U. after   13 cycles
 SCF Done:  E(RwB97XD) =  -1199.59883008     A.U. after   13 cycles
 SCF Done:  E(RwB97XD) =  -1199.59902855     A.U. after   13 cycles
 SCF Done:  E(RwB97XD) =  -1199.59925348     A.U. after   13 cycles
 SCF Done:  E(RwB97XD) =  -1199.59950489     A.U. after   13 cycles
 SCF Done:  E(RwB97XD) =  -1199.62648362     A.U. after   10 cycles
 SCF Done:  E(RwB97XD) =  -1199.62658146     A.U. after   10 cycles
 SCF Done:  E(RwB97XD) =  -1199.62667429     A.U. after   10 cycles
 SCF Done:  E(RwB97XD) =  -1199.62676606     A.U. after   10 cycles
 SCF Done:  E(RwB97XD) =  -1199.62685367     A.U. after   10 cycles
 SCF Done:  E(RwB97XD) =  -1199.62693828     A.U. after   10 cycles
 SCF Done:  E(RwB97XD) =  -1199.62702005     A.U. after   10 cycles
 SCF Done:  E(RwB97XD) =  -1199.62709825     A.U. after   10 cycles
 SCF Done:  E(RwB97XD) =  -1199.62717567     A.U. after   10 cycles
 SCF Done:  E(RwB97XD) =  -1199.62724978     A.U. after   10 cycles

                          Input orientation:
 ---------------------------------------------------------------------
 Center     Atomic      Atomic             Coordinates (Angstroms)
 Number     Number       Type             X           Y           Z
 ---------------------------------------------------------------------
      1          6           0        0.388082   -1.380781   -0.870641
      2          6           0        0.653854   -0.442487    0.273124
      3          9           0       -2.890065    1.655371    1.040130
      4          9           0        1.031817   -1.020036    1.414631
      5         16           0        0.615321    1.165436    0.234496
      6          8           0        0.902944    1.827994    1.477738
      7          8           0        0.242836    1.815609   -0.989598
      8          8           0       -1.910196    0.676080    0.807843
      9          9           0        1.527600   -1.840688   -1.402574
     10          9           0       -0.291716   -2.438217   -0.410347
     11          9           0       -0.320633   -0.809460   -1.834591
     12          1           0       -2.034913    0.124620    1.595400
 ---------------------------------------------------------------------

 Normal termination of Gaussian 16 at Fri May 23 05:14:18 2025.
