 Gaussian 16, Revision C.01,
 Gaussian 16:  ES64L-G16RevC.01  3-Jul-2019

 ----------------------------------------------------------------------
 #P wb97xd/6-311++G(d,p) Symm(None) scf(xqc) pop(None) geom(AllCheck,No
 KeepConstants) guess(Read) irc(RCFC,forward,MaxPoints=100,StepSize=2)
 ----------------------------------------------------------------------

 Structure from the checkpoint file:  "2003846667223680600001_r12_insertion_R_1_2_5_IRC_F.chk"
 ------------------------------
 Gaussian input prepared by ASE
 ------------------------------
 Charge =  0 Multiplicity = 1

 SCF Done:  E(RwB97XD) =  -1199.67707852     A.U. after   13 cycles
 SCF Done:  E(RwB97XD) =  -1199.67730781     A.U. after   13 cycles
 SCF Done:  E(RwB97XD) =  -1199.67769227     A.U. after   13 cycles
 SCF Done:  E(RwB97XD) =  -1199.67823152     A.U. after   13 cycles
 SCF Done:  E(RwB97XD) =  -1199.67892224     A.U. after   13 cycles
 SCF Done:  E(RwB97XD) =  -1199.67975881     A.U. after   13 cycles
 SCF Done:  E(RwB97XD) =  -1199.68073468     A.U. after   13 cycles
 SCF Done:  E(RwB97XD) =  -1199.68184356     A.U. after   13 cycles
 SCF Done:  E(RwB97XD) =  -1199.68307999     A.U. after   12 cycles
 SCF Done:  E(RwB97XD) =  -1199.68443904     A.U. after   12 cycles
 SCF Done:  E(RwB97XD) =  -1199.81202349     A.U. after   10 cycles
 SCF Done:  E(RwB97XD) =  -1199.81260975     A.U. after   10 cycles
 SCF Done:  E(RwB97XD) =  -1199.81318343     A.U. after   10 cycles
 SCF Done:  E(RwB97XD) =  -1199.81374458     A.U. after   10 cycles
 SCF Done:  E(RwB97XD) =  -1199.81429326     A.U. after   10 cycles
 SCF Done:  E(RwB97XD) =  -1199.81482951     A.U. after   10 cycles
 SCF Done:  E(RwB97XD) =  -1199.81535336     A.U. after   10 cycles
 SCF Done:  E(RwB97XD) =  -1199.81586484     A.U. after   10 cycles
 SCF Done:  E(RwB97XD) =  -1199.81636397     A.U. after   10 cycles
 SCF Done:  E(RwB97XD) =  -1199.81685075     A.U. after   10 cycles

                          Input orientation:
 ---------------------------------------------------------------------
 Center     Atomic      Atomic             Coordinates (Angstroms)
 Number     Number       Type             X           Y           Z
 ---------------------------------------------------------------------
      1          6           0       -1.214183   -0.630630    0.585636
      2          6           0       -0.511721    0.182963   -0.498572
      3          9           0       -0.666011   -0.442915   -1.667964
      4          9           0       -1.104423    1.371221   -0.596295
      5         16           0        1.418500    0.369325   -0.033769
      6          8           0        1.581588    1.261358    1.073586
      7          8           0        2.125688   -0.885596   -0.059985
      8          8           0        1.741200    1.159954   -1.393107
      9          9           0       -0.649696   -1.828735    0.663221
     10          9           0       -1.086677   -0.008500    1.749277
     11          9           0       -2.500265   -0.755949    0.276767
     12          1           0        2.317245    0.625396   -1.954067
 ---------------------------------------------------------------------

 Normal termination of Gaussian 16 at Fri May 23 04:13:46 2025.
