 Gaussian 16, Revision C.01,
 Gaussian 16:  ES64L-G16RevC.01  3-Jul-2019

 ----------------------------------------------------------------------
 #P wb97xd/6-311++G(d,p) Symm(None) scf(xqc) pop(None) opt(CalcAll,Cart
 esian)
 ----------------------------------------------------------------------

 ------------------------------
 Gaussian input prepared by ASE
 ------------------------------
 Symbolic Z-matrix:
 Charge =  0 Multiplicity = 1

 SCF Done:  E(RwB97XD) =  -1199.71625442     A.U. after   17 cycles
 SCF Done:  E(RwB97XD) =  -1199.71645863     A.U. after   14 cycles
 SCF Done:  E(RwB97XD) =  -1199.71661092     A.U. after   13 cycles
 SCF Done:  E(RwB97XD) =  -1199.71673658     A.U. after   13 cycles
 SCF Done:  E(RwB97XD) =  -1199.71592321     A.U. after   15 cycles
 SCF Done:  E(RwB97XD) =  -1199.71663965     A.U. after   14 cycles
 SCF Done:  E(RwB97XD) =  -1199.71675100     A.U. after   10 cycles
 SCF Done:  E(RwB97XD) =  -1199.71679733     A.U. after   13 cycles
 SCF Done:  E(RwB97XD) =  -1199.71680616     A.U. after   14 cycles
 SCF Done:  E(RwB97XD) =  -1199.71677578     A.U. after   14 cycles
 SCF Done:  E(RwB97XD) =  -1199.71685001     A.U. after   14 cycles
 SCF Done:  E(RwB97XD) =  -1199.71689912     A.U. after   12 cycles
 SCF Done:  E(RwB97XD) =  -1199.71690783     A.U. after   13 cycles
 SCF Done:  E(RwB97XD) =  -1199.71669739     A.U. after   14 cycles
 SCF Done:  E(RwB97XD) =  -1199.71687251     A.U. after   13 cycles
 SCF Done:  E(RwB97XD) =  -1199.71690987     A.U. after    8 cycles
 SCF Done:  E(RwB97XD) =  -1199.71691330     A.U. after   13 cycles
 SCF Done:  E(RwB97XD) =  -1199.71691474     A.U. after   12 cycles
 SCF Done:  E(RwB97XD) =  -1199.71691497     A.U. after   12 cycles
 SCF Done:  E(RwB97XD) =  -1199.71691500     A.U. after   10 cycles

 Isotropic polarizability for W=    0.000000       59.38 Bohr**3.
 End of Minotr F.D. properties file   721 does not exist.

 Optimization completed.
    -- Stationary point found.

                          Input orientation:
 ---------------------------------------------------------------------
 Center     Atomic      Atomic             Coordinates (Angstroms)
 Number     Number       Type             X           Y           Z
 ---------------------------------------------------------------------
      1          6           0       -1.856044   -1.182980    0.415000
      2          6           0        0.650209    2.151746    0.266173
      3          9           0       -1.609997    0.068131    0.034863
      4          9           0        0.120228    2.482820   -0.851463
      5         16           0        1.795369    0.703573   -0.095122
      6          8           0        3.110953    1.302296   -0.080200
      7          8           0        1.406650   -0.368273    0.774139
      8          8           0        1.480904    0.208291   -1.602669
      9          9           0       -1.162676   -2.011323   -0.335937
     10          9           0       -1.525650   -1.329470    1.678856
     11          9           0       -3.147485   -1.424602    0.263494
     12          1           0        2.082997    0.633157   -2.226088
 ---------------------------------------------------------------------

                      1                      2                      3
                      A                      A                      A
 Frequencies --     18.6087                25.0988                37.8874
 Red. masses --     14.4751                12.7988                14.1563
 Frc consts  --      0.0030                 0.0048                 0.0120
 IR Inten    --      1.0023                 0.2593                 2.5608

                      4                      5                      6
                      A                      A                      A
 Frequencies --     45.3308                52.3605                60.8700
 Red. masses --     17.2587                18.4975                18.1199
 Frc consts  --      0.0209                 0.0299                 0.0396
 IR Inten    --      0.1637                 0.4216                 0.8434

                      7                      8                      9
                      A                      A                      A
 Frequencies --     81.5731               195.7520               240.0643
 Red. masses --     14.2084                 7.2758                 6.7198
 Frc consts  --      0.0557                 0.1643                 0.2282
 IR Inten    --      1.5339                 1.8509                 8.2611

                     10                     11                     12
                      A                      A                      A
 Frequencies --    294.0909               336.9344               427.3777
 Red. masses --      1.5633                12.5474                 3.7683
 Frc consts  --      0.0797                 0.8393                 0.4055
 IR Inten    --     65.4747                36.5550                56.4951

                     13                     14                     15
                      A                      A                      A
 Frequencies --    437.0305               438.0350               455.1523
 Red. masses --     18.7968                18.6801                10.2117
 Frc consts  --      2.1152                 2.1118                 1.2464
 IR Inten    --      0.5639                 0.3586                21.5574

                     16                     17                     18
                      A                      A                      A
 Frequencies --    574.1822               629.3486               630.0311
 Red. masses --     17.7163                18.2019                18.1477
 Frc consts  --      3.4413                 4.2476                 4.2442
 IR Inten    --     77.1042                 5.4758                 4.5976

                     19                     20                     21
                      A                      A                      A
 Frequencies --    631.2641               673.7499               848.2140
 Red. masses --     18.2330                13.4034                18.8368
 Frc consts  --      4.2809                 3.5848                 7.9849
 IR Inten    --      3.0393                39.0761               155.4010

                     22                     23                     24
                      A                      A                      A
 Frequencies --    914.7309              1097.7078              1181.2883
 Red. masses --     18.9779                 1.1859                16.5009
 Frc consts  --      9.3559                 0.8419                13.5666
 IR Inten    --      1.2142                60.8129               148.1207

                     25                     26                     27
                      A                      A                      A
 Frequencies --   1244.3359              1269.9577              1281.3400
 Red. masses --     12.9967                13.1563                13.3881
 Frc consts  --     11.8566                12.5016                12.9508
 IR Inten    --    524.7714               112.6985               604.9697

                     28                     29                     30
                      A                      A                      A
 Frequencies --   1298.3138              1402.2842              3847.1061
 Red. masses --     13.0489                14.7626                 1.0664
 Frc consts  --     12.9594                17.1035                 9.2991
 IR Inten    --    448.5995               252.3089               156.5059

 - Thermochemistry -
 -------------------
 Temperature   298.150 Kelvin.  Pressure   1.00000 Atm.
 Atom     1 has atomic number  6 and mass  12.00000

 Molecular mass:   199.95666 amu.
 Principal axes and moments of inertia in atomic units:
                           1         2         3
     Eigenvalues --  1030.692963602.120373915.44978
           X            0.82895  -0.55932  -0.00112
           Y            0.53260   0.78873   0.30700
           Z           -0.17083  -0.25509   0.95171
 This molecule is an asymmetric top.
 Rotational symmetry number  1.
 Warning -- assumption of classical behavior for rotation
           may cause significant error
 Rotational temperatures (Kelvin)      0.08403     0.02405     0.02212
 Rotational constants (GHZ):           1.75100     0.50102     0.46093
 Zero-point vibrational energy     123634.2 (Joules/Mol)
                                   29.54928 (Kcal/Mol)
 Warning -- explicit consideration of  16 degrees of freedom as
           vibrations may cause significant error
 Vibrational temperatures:     26.77    36.11    54.51    65.22    75.34
          (Kelvin)             87.58   117.37   281.64   345.40   423.13
                              484.77   614.90   628.79   630.23   654.86
                              826.12   905.49   906.47   908.25   969.38
                             1220.39  1316.09  1579.36  1699.61  1790.32
                             1827.19  1843.56  1867.98  2017.57  5535.13

 Zero-point correction=                           0.047090 (Hartree/Particle)
 Thermal correction to Energy=                    0.059743
 Thermal correction to Enthalpy=                  0.060687
 Thermal correction to Gibbs Free Energy=         0.002845
 Sum of electronic and zero-point Energies=          -1199.669825
 Sum of electronic and thermal Energies=             -1199.657172
 Sum of electronic and thermal Enthalpies=           -1199.656228
 Sum of electronic and thermal Free Energies=        -1199.714070

                     E (Thermal)             CV                S
                      KCal/Mol        Cal/Mol-Kelvin    Cal/Mol-Kelvin
 Total                   37.489             39.432            121.739
 Electronic               0.000              0.000              0.000
 Translational            0.889              2.981             41.783
 Rotational               0.889              2.981             31.053
 Vibrational             35.712             33.471             48.902
 Vibration     1          0.593              1.986              6.777
 Vibration     2          0.593              1.985              6.183
 Vibration     3          0.594              1.982              5.367
 Vibration     4          0.595              1.979              5.011
 Vibration     5          0.596              1.977              4.726
 Vibration     6          0.597              1.973              4.429
 Vibration     7          0.600              1.962              3.853
 Vibration     8          0.636              1.846              2.173
 Vibration     9          0.657              1.779              1.802
 Vibration    10          0.689              1.685              1.450
 Vibration    11          0.718              1.602              1.227
 Vibration    12          0.789              1.411              0.867
 Vibration    13          0.797              1.389              0.836
 Vibration    14          0.798              1.387              0.833
 Vibration    15          0.813              1.349              0.780
 Vibration    16          0.930              1.087              0.496

 Normal termination of Gaussian 16 at Fri May 23 04:54:41 2025.
