 Gaussian 16, Revision C.01,
 Gaussian 16:  ES64L-G16RevC.01  3-Jul-2019

 ----------------------------------------------------------------------
 #P wb97xd/6-311++G(d,p) Symm(None) scf(xqc) pop(None) geom(AllCheck,No
 KeepConstants) guess(Read) irc(RCFC,forward,MaxPoints=100,StepSize=2)
 ----------------------------------------------------------------------

 Structure from the checkpoint file:  "2003846667223680600001_r12_insertion_R_5_2_1_IRC_F.chk"
 ------------------------------
 Gaussian input prepared by ASE
 ------------------------------
 Charge =  0 Multiplicity = 1

 SCF Done:  E(RwB97XD) =  -1199.65436647     A.U. after   12 cycles
 SCF Done:  E(RwB97XD) =  -1199.65440385     A.U. after   12 cycles
 SCF Done:  E(RwB97XD) =  -1199.65446774     A.U. after   12 cycles
 SCF Done:  E(RwB97XD) =  -1199.65455941     A.U. after   12 cycles
 SCF Done:  E(RwB97XD) =  -1199.65468016     A.U. after   12 cycles
 SCF Done:  E(RwB97XD) =  -1199.65483130     A.U. after   12 cycles
 SCF Done:  E(RwB97XD) =  -1199.65501414     A.U. after   12 cycles
 SCF Done:  E(RwB97XD) =  -1199.65522998     A.U. after   12 cycles
 SCF Done:  E(RwB97XD) =  -1199.65548012     A.U. after   12 cycles
 SCF Done:  E(RwB97XD) =  -1199.65576582     A.U. after   12 cycles
 SCF Done:  E(RwB97XD) =  -1199.75858616     A.U. after   10 cycles
 SCF Done:  E(RwB97XD) =  -1199.75976787     A.U. after   10 cycles
 SCF Done:  E(RwB97XD) =  -1199.76093782     A.U. after   10 cycles
 SCF Done:  E(RwB97XD) =  -1199.76209596     A.U. after   10 cycles
 SCF Done:  E(RwB97XD) =  -1199.76324223     A.U. after   10 cycles
 SCF Done:  E(RwB97XD) =  -1199.76437657     A.U. after    9 cycles
 SCF Done:  E(RwB97XD) =  -1199.76549891     A.U. after    9 cycles
 SCF Done:  E(RwB97XD) =  -1199.76660917     A.U. after    9 cycles
 SCF Done:  E(RwB97XD) =  -1199.76770729     A.U. after    9 cycles
 SCF Done:  E(RwB97XD) =  -1199.76879318     A.U. after    9 cycles

                          Input orientation:
 ---------------------------------------------------------------------
 Center     Atomic      Atomic             Coordinates (Angstroms)
 Number     Number       Type             X           Y           Z
 ---------------------------------------------------------------------
      1          6           0       -1.011600   -0.499458    0.785632
      2          6           0       -0.477655    0.408440   -0.628908
      3          9           0       -0.869095   -0.093628   -1.802184
      4          9           0       -0.855511    1.688492   -0.655088
      5         16           0        1.239160    0.144369   -0.236692
      6          8           0        1.396295    0.836633    1.012500
      7          8           0        1.382370   -1.280842   -0.349447
      8          8           0        2.033121    0.886489   -1.398450
      9          9           0       -0.231933   -1.100322    1.718614
     10          9           0       -1.696883    0.394256    1.466769
     11          9           0       -1.700827   -1.488955    0.257960
     12          1           0        2.987254    0.797568   -1.273741
 ---------------------------------------------------------------------

 Normal termination of Gaussian 16 at Fri May 23 04:00:58 2025.
