 Gaussian 16, Revision C.01,
 Gaussian 16:  ES64L-G16RevC.01  3-Jul-2019

 ----------------------------------------------------------------------
 #P wb97xd/6-311++G(d,p) Symm(None) scf(xqc) pop(None) freq opt(CalcFC)
 ----------------------------------------------------------------------

 ------------------------------
 Gaussian input prepared by ASE
 ------------------------------
 Symbolic Z-matrix:
 Charge =  0 Multiplicity = 1

 SCF Done:  E(RwB97XD) =  -1199.81806405     A.U. after   14 cycles
 SCF Done:  E(RwB97XD) =  -1199.82489258     A.U. after   13 cycles
 SCF Done:  E(RwB97XD) =  -1199.82574528     A.U. after   12 cycles
 SCF Done:  E(RwB97XD) =  -1199.82587577     A.U. after   11 cycles
 SCF Done:  E(RwB97XD) =  -1199.82588080     A.U. after   10 cycles
 SCF Done:  E(RwB97XD) =  -1199.82588093     A.U. after    8 cycles
 Optimization completed.
    -- Stationary point found.
 Normal termination of Gaussian 16 at Fri May 23 04:14:59 2025.

 ----------------------------------------------------------------------
 #P Geom=AllCheck Guess=TCheck SCRF=Check GenChk RwB97XD/6-311++G(d,p)
 Freq
 ----------------------------------------------------------------------

 Structure from the checkpoint file:  "2003846667223680600001_intra_H_migration_suprafacial_6_12_IRC_R_prod.chk"
 ------------------------------
 Gaussian input prepared by ASE
 ------------------------------
 Charge =  0 Multiplicity = 1

                          Input orientation:
 ---------------------------------------------------------------------
 Center     Atomic      Atomic             Coordinates (Angstroms)
 Number     Number       Type             X           Y           Z
 ---------------------------------------------------------------------
      1          6           0        0.823228   -1.108005   -0.406885
      2          6           0        0.537663    0.203351    0.381147
      3          9           0        0.777438   -0.009467    1.674599
      4          9           0        1.342158    1.164966   -0.069195
      5         16           0       -1.233423    0.813603    0.248755
      6          8           0       -2.091894   -0.336961    0.305942
      7          8           0       -1.336533    1.929109    1.132626
      8          8           0       -1.229201    1.402719   -1.239494
      9          9           0        0.246879   -2.144897    0.172624
     10          9           0        0.359291   -0.996115   -1.659127
     11          9           0        2.132240   -1.312460   -0.462253
     12          1           0       -1.469119    0.715610   -1.875296
 ---------------------------------------------------------------------

 SCF Done:  E(RwB97XD) =  -1199.82588093     A.U. after    1 cycles

 Isotropic polarizability for W=    0.000000       55.67 Bohr**3.
 End of Minotr F.D. properties file   721 does not exist.

                      1                      2                      3
                      A                      A                      A
 Frequencies --     55.6835                68.4800               140.7917
 Red. masses --     12.4671                17.0328                14.3707
 Frc consts  --      0.0228                 0.0471                 0.1678
 IR Inten    --      1.7486                 0.4818                 2.5011

                      4                      5                      6
                      A                      A                      A
 Frequencies --    200.2879               224.8418               239.4367
 Red. masses --     13.7213                15.8905                10.9569
 Frc consts  --      0.3243                 0.4733                 0.3701
 IR Inten    --      4.1485                 2.5437                 2.0385

                      7                      8                      9
                      A                      A                      A
 Frequencies --    277.2079               308.4848               316.4874
 Red. masses --     17.5346                11.4957                 7.8601
 Frc consts  --      0.7939                 0.6445                 0.4639
 IR Inten    --      4.9236                 4.0317                11.4304

                     10                     11                     12
                      A                      A                      A
 Frequencies --    353.0126               385.0291               440.4054
 Red. masses --      2.6943                 3.3325                13.7475
 Frc consts  --      0.1978                 0.2911                 1.5710
 IR Inten    --     44.6507                41.0168                12.5332

                     13                     14                     15
                      A                      A                      A
 Frequencies --    461.7263               510.6078               538.0026
 Red. masses --      3.0206                16.3292                17.8216
 Frc consts  --      0.3794                 2.5084                 3.0393
 IR Inten    --     45.6410                 9.4899                27.0060

                     16                     17                     18
                      A                      A                      A
 Frequencies --    599.2274               609.2506               656.2167
 Red. masses --     17.8006                20.4770                16.1053
 Frc consts  --      3.7659                 4.4783                 4.0861
 IR Inten    --      2.9015               117.7159                26.8314

                     19                     20                     21
                      A                      A                      A
 Frequencies --    763.5711               834.8229              1002.5328
 Red. masses --     17.2846                17.3020                12.7067
 Frc consts  --      5.9376                 7.1045                 7.5245
 IR Inten    --     18.8173               193.9158               100.4604

                     22                     23                     24
                      A                      A                      A
 Frequencies --   1132.7430              1155.9022              1208.7832
 Red. masses --      1.2121                13.2383                14.0135
 Frc consts  --      0.9163                10.4214                12.0641
 IR Inten    --    133.8817               154.5753                82.4946

                     25                     26                     27
                      A                      A                      A
 Frequencies --   1226.5649              1228.1483              1262.3674
 Red. masses --     12.3633                13.2755                13.3273
 Frc consts  --     10.9589                11.7978                12.5130
 IR Inten    --    132.4846               186.3989               376.3507

                     28                     29                     30
                      A                      A                      A
 Frequencies --   1348.4954              1444.0939              3832.7395
 Red. masses --     12.6948                14.1537                 1.0662
 Frc consts  --     13.6011                17.3904                 9.2278
 IR Inten    --    113.6416               293.8936               150.6655

 - Thermochemistry -
 -------------------
 Temperature   298.150 Kelvin.  Pressure   1.00000 Atm.
 Atom     1 has atomic number  6 and mass  12.00000

 Molecular mass:   199.95666 amu.
 Principal axes and moments of inertia in atomic units:
                           1         2         3
     Eigenvalues --  1152.532802137.905012288.96332
           X            0.71855   0.61664  -0.32163
           Y           -0.67222   0.49719  -0.54857
           Z           -0.17836   0.61038   0.77177
 This molecule is an asymmetric top.
 Rotational symmetry number  1.
 Warning -- assumption of classical behavior for rotation
           may cause significant error
 Rotational temperatures (Kelvin)      0.07515     0.04051     0.03784
 Rotational constants (GHZ):           1.56589     0.84416     0.78845
 Zero-point vibrational energy     136529.5 (Joules/Mol)
                                   32.63133 (Kcal/Mol)
 Warning -- explicit consideration of  17 degrees of freedom as
           vibrations may cause significant error
 Vibrational temperatures:     80.12    98.53   202.57   288.17   323.50
          (Kelvin)            344.50   398.84   443.84   455.35   507.91
                              553.97   633.65   664.32   734.65   774.07
                              862.15   876.58   944.15  1098.61  1201.12
                             1442.42  1629.76  1663.09  1739.17  1764.75
                             1767.03  1816.27  1940.18  2077.73  5514.46

 Zero-point correction=                           0.052001 (Hartree/Particle)
 Thermal correction to Energy=                    0.062337
 Thermal correction to Enthalpy=                  0.063281
 Thermal correction to Gibbs Free Energy=         0.015481
 Sum of electronic and zero-point Energies=          -1199.773880
 Sum of electronic and thermal Energies=             -1199.763544
 Sum of electronic and thermal Enthalpies=           -1199.762600
 Sum of electronic and thermal Free Energies=        -1199.810400

                     E (Thermal)             CV                S
                      KCal/Mol        Cal/Mol-Kelvin    Cal/Mol-Kelvin
 Total                   39.117             36.528            100.604
 Electronic               0.000              0.000              0.000
 Translational            0.889              2.981             41.783
 Rotational               0.889              2.981             30.112
 Vibrational             37.340             30.567             28.708
 Vibration     1          0.596              1.975              4.605
 Vibration     2          0.598              1.969              4.197
 Vibration     3          0.615              1.912              2.793
 Vibration     4          0.638              1.839              2.130
 Vibration     5          0.650              1.803              1.920
 Vibration     6          0.657              1.780              1.807
 Vibration     7          0.678              1.716              1.551
 Vibration     8          0.698              1.658              1.370
 Vibration     9          0.703              1.642              1.328
 Vibration    10          0.729              1.569              1.153
 Vibration    11          0.754              1.502              1.019
 Vibration    12          0.800              1.382              0.825
 Vibration    13          0.819              1.335              0.761
 Vibration    14          0.866              1.226              0.632
 Vibration    15          0.893              1.166              0.570
 Vibration    16          0.957              1.033              0.451
 Vibration    17          0.968              1.012              0.434

 Optimization completed.
    -- Stationary point found.
 Normal termination of Gaussian 16 at Fri May 23 04:16:18 2025.
