 Gaussian 16, Revision C.01,
 Gaussian 16:  ES64L-G16RevC.01  3-Jul-2019

 ----------------------------------------------------------------------
 #P wb97xd/6-311++G(d,p) Symm(None) scf(xqc) pop(None) geom(AllCheck,No
 KeepConstants) guess(Read) irc(RCFC,forward,MaxPoints=100,StepSize=2)
 ----------------------------------------------------------------------

 Structure from the checkpoint file:  "2003846667223680600001_r12_insertion_R_2_5_6_IRC_F.chk"
 ------------------------------
 Gaussian input prepared by ASE
 ------------------------------
 Charge =  0 Multiplicity = 1

 SCF Done:  E(RwB97XD) =  -1199.59651292     A.U. after   19 cycles
 SCF Done:  E(RwB97XD) =  -1199.59654503     A.U. after   19 cycles
 SCF Done:  E(RwB97XD) =  -1199.59659645     A.U. after   19 cycles
 SCF Done:  E(RwB97XD) =  -1199.59666600     A.U. after   19 cycles
 SCF Done:  E(RwB97XD) =  -1199.59675302     A.U. after   19 cycles
 SCF Done:  E(RwB97XD) =  -1199.59685710     A.U. after   19 cycles
 SCF Done:  E(RwB97XD) =  -1199.59697758     A.U. after   19 cycles
 SCF Done:  E(RwB97XD) =  -1199.59711342     A.U. after   19 cycles
 SCF Done:  E(RwB97XD) =  -1199.59726347     A.U. after   19 cycles
 SCF Done:  E(RwB97XD) =  -1199.59742731     A.U. after   19 cycles
 SCF Done:  E(RwB97XD) =  -1199.60833229     A.U. after   13 cycles
 SCF Done:  E(RwB97XD) =  -1199.60836891     A.U. after   13 cycles
 SCF Done:  E(RwB97XD) =  -1199.60839529     A.U. after   13 cycles
 SCF Done:  E(RwB97XD) =  -1199.60840143     A.U. after   13 cycles
 SCF Done:  E(RwB97XD) =  -1199.60842845     A.U. after   13 cycles
 SCF Done:  E(RwB97XD) =  -1199.60845243     A.U. after   13 cycles
 SCF Done:  E(RwB97XD) =  -1199.60847185     A.U. after   13 cycles
 SCF Done:  E(RwB97XD) =  -1199.60848760     A.U. after   13 cycles
 SCF Done:  E(RwB97XD) =  -1199.60849984     A.U. after   14 cycles
 SCF Done:  E(RwB97XD) =  -1199.60850015     A.U. after   12 cycles

                          Input orientation:
 ---------------------------------------------------------------------
 Center     Atomic      Atomic             Coordinates (Angstroms)
 Number     Number       Type             X           Y           Z
 ---------------------------------------------------------------------
      1          6           0       -1.295749   -0.566300    0.535097
      2          6           0       -0.261671    0.255864   -0.267890
      3          9           0       -0.585423    0.315218   -1.536706
      4          9           0       -0.393460    1.590625    0.243315
      5         16           0        1.586920   -0.313591   -0.024431
      6          8           0        0.998113    2.422158    0.468334
      7          8           0        1.576635   -1.676948   -0.533469
      8          8           0        2.126395    0.622707   -1.245473
      9          9           0       -1.410765   -1.769406    0.001707
     10          9           0       -0.880126   -0.675553    1.794768
     11          9           0       -2.483665    0.029197    0.522641
     12          1           0        2.057310    1.546956   -0.936857
 ---------------------------------------------------------------------

 Normal termination of Gaussian 16 at Fri May 23 07:08:15 2025.
