 Gaussian 16, Revision C.01,
 Gaussian 16:  ES64L-G16RevC.01  3-Jul-2019

 ----------------------------------------------------------------------
 #P wb97xd/6-311++G(d,p) Symm(None) scf(xqc) pop(None) freq opt(CalcFC)
 ----------------------------------------------------------------------

 ------------------------------
 Gaussian input prepared by ASE
 ------------------------------
 Symbolic Z-matrix:
 Charge =  0 Multiplicity = 1

 SCF Done:  E(RwB97XD) =  -1199.81707213     A.U. after   14 cycles
 SCF Done:  E(RwB97XD) =  -1199.82360780     A.U. after   13 cycles
 SCF Done:  E(RwB97XD) =  -1199.82410438     A.U. after   12 cycles
 SCF Done:  E(RwB97XD) =  -1199.82415107     A.U. after   11 cycles
 SCF Done:  E(RwB97XD) =  -1199.82415409     A.U. after    9 cycles
 SCF Done:  E(RwB97XD) =  -1199.82415428     A.U. after    8 cycles
 Optimization completed.
    -- Stationary point found.
 Normal termination of Gaussian 16 at Fri May 23 04:18:27 2025.

 ----------------------------------------------------------------------
 #P Geom=AllCheck Guess=TCheck SCRF=Check GenChk RwB97XD/6-311++G(d,p)
 Freq
 ----------------------------------------------------------------------

 Structure from the checkpoint file:  "2003846667223680600001_intra_H_migration_suprafacial_6_12_IRC_F_prod.chk"
 ------------------------------
 Gaussian input prepared by ASE
 ------------------------------
 Charge =  0 Multiplicity = 1

                          Input orientation:
 ---------------------------------------------------------------------
 Center     Atomic      Atomic             Coordinates (Angstroms)
 Number     Number       Type             X           Y           Z
 ---------------------------------------------------------------------
      1          6           0        0.813092   -1.119881   -0.387207
      2          6           0        0.569258    0.224136    0.362687
      3          9           0        0.719023    0.019754    1.667788
      4          9           0        1.463758    1.121330   -0.054407
      5         16           0       -1.119204    1.008464    0.069947
      6          8           0       -2.057340   -0.293577    0.078507
      7          8           0       -1.421886    1.757136    1.246814
      8          8           0       -1.107922    1.568267   -1.252167
      9          9           0        0.188952   -2.116512    0.225468
     10          9           0        0.364535   -1.041385   -1.641400
     11          9           0        2.112556   -1.378870   -0.414425
     12          1           0       -2.243391   -0.574281   -0.827494
 ---------------------------------------------------------------------

 SCF Done:  E(RwB97XD) =  -1199.82415428     A.U. after    1 cycles

 Isotropic polarizability for W=    0.000000       55.79 Bohr**3.
 End of Minotr F.D. properties file   721 does not exist.

                      1                      2                      3
                      A                      A                      A
 Frequencies --     38.6230                62.6887               146.4577
 Red. masses --     11.5673                18.3419                12.1349
 Frc consts  --      0.0102                 0.0425                 0.1534
 IR Inten    --      1.6242                 0.2333                 4.2280

                      4                      5                      6
                      A                      A                      A
 Frequencies --    201.5774               229.0314               243.9072
 Red. masses --     16.8381                18.4121                11.9825
 Frc consts  --      0.4031                 0.5690                 0.4200
 IR Inten    --      2.0624                 1.5790                 0.8186

                      7                      8                      9
                      A                      A                      A
 Frequencies --    278.1614               299.3815               315.8279
 Red. masses --     11.9463                 4.0313                17.1793
 Frc consts  --      0.5446                 0.2129                 1.0096
 IR Inten    --     14.0550                26.0522                 0.7307

                     10                     11                     12
                      A                      A                      A
 Frequencies --    350.9114               371.3116               437.3462
 Red. masses --      1.9936                13.4406                 3.6744
 Frc consts  --      0.1446                 1.0918                 0.4141
 IR Inten    --     70.5359                 4.7938                29.2395

                     13                     14                     15
                      A                      A                      A
 Frequencies --    461.9741               504.5197               541.3601
 Red. masses --      8.4541                15.1481                16.5348
 Frc consts  --      1.0631                 2.2718                 2.8551
 IR Inten    --     27.5652                12.5395                21.5832

                     16                     17                     18
                      A                      A                      A
 Frequencies --    598.6607               607.5799               654.0976
 Red. masses --     17.7842                19.7987                16.0241
 Frc consts  --      3.7553                 4.3062                 4.0393
 IR Inten    --      3.3552               120.8114                21.8108

                     19                     20                     21
                      A                      A                      A
 Frequencies --    762.5674               830.4058               997.3091
 Red. masses --     17.0625                17.8256                13.4706
 Frc consts  --      5.8459                 7.2423                 7.8940
 IR Inten    --     14.6748               197.2675               120.3528

                     22                     23                     24
                      A                      A                      A
 Frequencies --   1124.7659              1153.6245              1212.9469
 Red. masses --      1.2107                13.5886                15.5967
 Frc consts  --      0.9024                10.6550                13.5196
 IR Inten    --     79.3609               107.2689               154.6205

                     25                     26                     27
                      A                      A                      A
 Frequencies --   1227.8487              1237.5376              1251.1804
 Red. masses --     12.3184                12.2424                13.0843
 Frc consts  --     10.9419                11.0468                12.0682
 IR Inten    --     99.3433               251.2334               337.6626

                     28                     29                     30
                      A                      A                      A
 Frequencies --   1342.6331              1441.6634              3828.0049
 Red. masses --     12.7004                14.1385                 1.0663
 Frc consts  --     13.4891                17.3133                 9.2063
 IR Inten    --    118.8228               297.1208               157.7655

 - Thermochemistry -
 -------------------
 Temperature   298.150 Kelvin.  Pressure   1.00000 Atm.
 Atom     1 has atomic number  6 and mass  12.00000

 Molecular mass:   199.95666 amu.
 Principal axes and moments of inertia in atomic units:
                           1         2         3
     Eigenvalues --  1159.323772132.973932291.92116
           X            0.70498   0.62531  -0.33465
           Y           -0.69362   0.50945  -0.50926
           Z           -0.14796   0.59114   0.79288
 This molecule is an asymmetric top.
 Rotational symmetry number  1.
 Warning -- assumption of classical behavior for rotation
           may cause significant error
 Rotational temperatures (Kelvin)      0.07471     0.04061     0.03779
 Rotational constants (GHZ):           1.55672     0.84611     0.78744
 Zero-point vibrational energy     136098.6 (Joules/Mol)
                                   32.52834 (Kcal/Mol)
 Warning -- explicit consideration of  17 degrees of freedom as
           vibrations may cause significant error
 Vibrational temperatures:     55.57    90.20   210.72   290.02   329.53
          (Kelvin)            350.93   400.21   430.74   454.41   504.88
                              534.23   629.24   664.68   725.89   778.90
                              861.34   874.17   941.10  1097.16  1194.77
                             1434.91  1618.29  1659.81  1745.16  1766.60
                             1780.54  1800.17  1931.75  2074.23  5507.65

 Zero-point correction=                           0.051837 (Hartree/Particle)
 Thermal correction to Energy=                    0.062233
 Thermal correction to Enthalpy=                  0.063178
 Thermal correction to Gibbs Free Energy=         0.014953
 Sum of electronic and zero-point Energies=          -1199.772317
 Sum of electronic and thermal Energies=             -1199.761921
 Sum of electronic and thermal Enthalpies=           -1199.760977
 Sum of electronic and thermal Free Energies=        -1199.809201

                     E (Thermal)             CV                S
                      KCal/Mol        Cal/Mol-Kelvin    Cal/Mol-Kelvin
 Total                   39.052             36.610            101.497
 Electronic               0.000              0.000              0.000
 Translational            0.889              2.981             41.783
 Rotational               0.889              2.981             30.117
 Vibrational             37.275             30.648             29.596
 Vibration     1          0.594              1.981              5.328
 Vibration     2          0.597              1.972              4.371
 Vibration     3          0.617              1.907              2.718
 Vibration     4          0.638              1.838              2.119
 Vibration     5          0.652              1.797              1.887
 Vibration     6          0.659              1.773              1.774
 Vibration     7          0.679              1.714              1.545
 Vibration     8          0.692              1.675              1.420
 Vibration     9          0.703              1.643              1.332
 Vibration    10          0.728              1.573              1.162
 Vibration    11          0.743              1.531              1.074
 Vibration    12          0.798              1.389              0.835
 Vibration    13          0.820              1.334              0.760
 Vibration    14          0.860              1.240              0.647
 Vibration    15          0.896              1.159              0.562
 Vibration    16          0.957              1.035              0.452
 Vibration    17          0.966              1.016              0.437

 Optimization completed.
    -- Stationary point found.
 Normal termination of Gaussian 16 at Fri May 23 04:20:01 2025.
