 Gaussian 16, Revision C.01,
 Gaussian 16:  ES64L-G16RevC.01  3-Jul-2019

 ----------------------------------------------------------------------
 #P wb97xd/6-311++G(d,p) Symm(None) scf(xqc) pop(None) freq opt(CalcFC)
 ----------------------------------------------------------------------

 ------------------------------
 Gaussian input prepared by ASE
 ------------------------------
 Symbolic Z-matrix:
 Charge =  0 Multiplicity = 1

 SCF Done:  E(RwB97XD) =  -1199.68090479     A.U. after   15 cycles
 SCF Done:  E(RwB97XD) =  -1199.68118755     A.U. after   14 cycles
 SCF Done:  E(RwB97XD) =  -1199.68081630     A.U. after   16 cycles
 SCF Done:  E(RwB97XD) =  -1199.68139414     A.U. after   14 cycles
 SCF Done:  E(RwB97XD) =  -1199.68139798     A.U. after   13 cycles
 SCF Done:  E(RwB97XD) =  -1199.68140022     A.U. after   12 cycles
 SCF Done:  E(RwB97XD) =  -1199.68140026     A.U. after   10 cycles
 Optimization completed.
    -- Stationary point found.
 Normal termination of Gaussian 16 at Fri May 23 03:57:54 2025.

 ----------------------------------------------------------------------
 #P Geom=AllCheck Guess=TCheck SCRF=Check GenChk RwB97XD/6-311++G(d,p)
 Freq
 ----------------------------------------------------------------------

 Structure from the checkpoint file:  "2003846667223680600001_r12_insertion_R_6_5_7_IRC_R_prod.chk"
 ------------------------------
 Gaussian input prepared by ASE
 ------------------------------
 Charge =  0 Multiplicity = 1

                          Input orientation:
 ---------------------------------------------------------------------
 Center     Atomic      Atomic             Coordinates (Angstroms)
 Number     Number       Type             X           Y           Z
 ---------------------------------------------------------------------
      1          6           0       -1.153218    0.175048    0.898006
      2          6           0       -0.636612    0.036230   -0.558946
      3          9           0       -1.066241   -1.136018   -1.056413
      4          9           0       -1.149584    1.032038   -1.301014
      5         16           0        1.247608    0.034370   -0.935329
      6          8           0        1.625414   -1.306476   -0.207037
      7          8           0        2.942819   -0.657182   -0.527125
      8          8           0        1.450185    1.277639    0.079778
      9          9           0       -0.495857   -0.657014    1.699419
     10          9           0       -1.007403    1.415430    1.340589
     11          9           0       -2.449342   -0.134898    0.936369
     12          1           0        2.401141    1.401550    0.200759
 ---------------------------------------------------------------------

 SCF Done:  E(RwB97XD) =  -1199.68140026     A.U. after    1 cycles

 Isotropic polarizability for W=    0.000000       60.68 Bohr**3.
 End of Minotr F.D. properties file   721 does not exist.

                      1                      2                      3
                      A                      A                      A
 Frequencies --     34.7033                68.5641               118.3132
 Red. masses --     13.0601                16.2935                13.2518
 Frc consts  --      0.0093                 0.0451                 0.1093
 IR Inten    --      0.9057                 1.0869                 0.1761

                      4                      5                      6
                      A                      A                      A
 Frequencies --    159.0691               209.2278               225.5408
 Red. masses --     14.8663                11.8807                17.8702
 Frc consts  --      0.2216                 0.3064                 0.5356
 IR Inten    --      3.4790                11.5844                 1.8526

                      7                      8                      9
                      A                      A                      A
 Frequencies --    260.2989               290.5589               315.5223
 Red. masses --      9.5561                15.9494                12.5917
 Frc consts  --      0.3815                 0.7933                 0.7386
 IR Inten    --      7.0662                 1.8899                 3.9250

                     10                     11                     12
                      A                      A                      A
 Frequencies --    344.5893               352.2397               384.0389
 Red. masses --      2.2873                16.1463                13.5124
 Frc consts  --      0.1600                 1.1803                 1.1742
 IR Inten    --     66.8624                22.9049               117.5108

                     13                     14                     15
                      A                      A                      A
 Frequencies --    430.7972               442.1390               474.4769
 Red. masses --     11.1976                 4.9474                 2.8370
 Frc consts  --      1.2244                 0.5698                 0.3763
 IR Inten    --     89.1541                40.7729                66.1642

                     16                     17                     18
                      A                      A                      A
 Frequencies --    542.9134               595.1299               642.0364
 Red. masses --     17.8780                17.7164                16.4536
 Frc consts  --      3.1048                 3.6970                 3.9961
 IR Inten    --      2.9451                 1.7842                 5.4227

                     19                     20                     21
                      A                      A                      A
 Frequencies --    759.7306               824.1587               847.3969
 Red. masses --     16.9851                17.2698                16.7069
 Frc consts  --      5.7761                 6.9113                 7.0684
 IR Inten    --     14.8048                74.5818                36.0856

                     22                     23                     24
                      A                      A                      A
 Frequencies --    992.3868               996.6284              1149.0811
 Red. masses --     15.5492                 9.1714                 9.1910
 Frc consts  --      9.0224                 5.3672                 7.1501
 IR Inten    --     71.6672                70.3821               140.0695

                     25                     26                     27
                      A                      A                      A
 Frequencies --   1162.6338              1188.3700              1223.3841
 Red. masses --      1.5958                 4.5455                11.5334
 Frc consts  --      1.2709                 3.7821                10.1703
 IR Inten    --    235.1793                68.9166               246.9406

                     28                     29                     30
                      A                      A                      A
 Frequencies --   1249.5990              1332.7596              3823.7385
 Red. masses --     13.1097                11.8591                 1.0653
 Frc consts  --     12.0610                12.4110                 9.1770
 IR Inten    --    303.1777               211.8496               158.5974

 - Thermochemistry -
 -------------------
 Temperature   298.150 Kelvin.  Pressure   1.00000 Atm.
 Atom     1 has atomic number  6 and mass  12.00000

 Molecular mass:   199.95666 amu.
 Principal axes and moments of inertia in atomic units:
                           1         2         3
     Eigenvalues --  1120.645182380.466462462.61445
           X            0.93301   0.35613   0.05169
           Y           -0.14037   0.22792   0.96351
           Z           -0.33135   0.90621  -0.26264
 This molecule is an asymmetric top.
 Rotational symmetry number  1.
 Warning -- assumption of classical behavior for rotation
           may cause significant error
 Rotational temperatures (Kelvin)      0.07729     0.03639     0.03517
 Rotational constants (GHZ):           1.61045     0.75815     0.73286
 Zero-point vibrational energy     128239.8 (Joules/Mol)
                                   30.65006 (Kcal/Mol)
 Warning -- explicit consideration of  17 degrees of freedom as
           vibrations may cause significant error
 Vibrational temperatures:     49.93    98.65   170.23   228.86   301.03
          (Kelvin)            324.50   374.51   418.05   453.97   495.79
                              506.79   552.55   619.82   636.14   682.67
                              781.13   856.26   923.75  1093.08  1185.78
                             1219.22  1427.82  1433.93  1653.27  1672.77
                             1709.80  1760.18  1797.89  1917.54  5501.51

 Zero-point correction=                           0.048844 (Hartree/Particle)
 Thermal correction to Energy=                    0.059783
 Thermal correction to Enthalpy=                  0.060727
 Thermal correction to Gibbs Free Energy=         0.011265
 Sum of electronic and zero-point Energies=          -1199.632556
 Sum of electronic and thermal Energies=             -1199.621617
 Sum of electronic and thermal Enthalpies=           -1199.620673
 Sum of electronic and thermal Free Energies=        -1199.670135

                     E (Thermal)             CV                S
                      KCal/Mol        Cal/Mol-Kelvin    Cal/Mol-Kelvin
 Total                   37.514             38.195            104.102
 Electronic               0.000              0.000              0.000
 Translational            0.889              2.981             41.783
 Rotational               0.889              2.981             30.264
 Vibrational             35.737             32.233             32.055
 Vibration     1          0.594              1.983              5.541
 Vibration     2          0.598              1.969              4.194
 Vibration     3          0.608              1.934              3.128
 Vibration     4          0.621              1.892              2.561
 Vibration     5          0.642              1.827              2.050
 Vibration     6          0.650              1.802              1.914
 Vibration     7          0.668              1.745              1.660
 Vibration     8          0.687              1.691              1.471
 Vibration     9          0.703              1.644              1.333
 Vibration    10          0.723              1.586              1.191
 Vibration    11          0.729              1.571              1.156
 Vibration    12          0.753              1.504              1.023
 Vibration    13          0.792              1.403              0.856
 Vibration    14          0.802              1.378              0.820
 Vibration    15          0.831              1.307              0.725
 Vibration    16          0.898              1.155              0.559
 Vibration    17          0.953              1.042              0.458

 Optimization completed.
    -- Stationary point found.
 Normal termination of Gaussian 16 at Fri May 23 03:59:09 2025.
