 Gaussian 16, Revision C.01,
 Gaussian 16:  ES64L-G16RevC.01  3-Jul-2019

 ----------------------------------------------------------------------
 #P wb97xd/6-311++G(d,p) Symm(None) scf(xqc) pop(None) geom(AllCheck,No
 KeepConstants) guess(Read) irc(RCFC,forward,MaxPoints=100,StepSize=2)
 ----------------------------------------------------------------------

 Structure from the checkpoint file:  "2003846667223680600001_r12_insertion_R_5_2_3_IRC_F.chk"
 ------------------------------
 Gaussian input prepared by ASE
 ------------------------------
 Charge =  0 Multiplicity = 1

 SCF Done:  E(RwB97XD) =  -1199.69039658     A.U. after   12 cycles
 SCF Done:  E(RwB97XD) =  -1199.69050703     A.U. after   12 cycles
 SCF Done:  E(RwB97XD) =  -1199.69069176     A.U. after   12 cycles
 SCF Done:  E(RwB97XD) =  -1199.69095154     A.U. after   12 cycles
 SCF Done:  E(RwB97XD) =  -1199.69128668     A.U. after   12 cycles
 SCF Done:  E(RwB97XD) =  -1199.69169664     A.U. after   12 cycles
 SCF Done:  E(RwB97XD) =  -1199.69218029     A.U. after   12 cycles
 SCF Done:  E(RwB97XD) =  -1199.69273635     A.U. after   12 cycles
 SCF Done:  E(RwB97XD) =  -1199.69336368     A.U. after   12 cycles
 SCF Done:  E(RwB97XD) =  -1199.69406119     A.U. after   12 cycles
 SCF Done:  E(RwB97XD) =  -1199.80767261     A.U. after    9 cycles
 SCF Done:  E(RwB97XD) =  -1199.80836321     A.U. after    9 cycles
 SCF Done:  E(RwB97XD) =  -1199.80903319     A.U. after    9 cycles
 SCF Done:  E(RwB97XD) =  -1199.80968290     A.U. after    9 cycles
 SCF Done:  E(RwB97XD) =  -1199.81031268     A.U. after    9 cycles
 SCF Done:  E(RwB97XD) =  -1199.81092284     A.U. after    9 cycles
 SCF Done:  E(RwB97XD) =  -1199.81151371     A.U. after    9 cycles
 SCF Done:  E(RwB97XD) =  -1199.81208559     A.U. after    9 cycles
 SCF Done:  E(RwB97XD) =  -1199.81263878     A.U. after    9 cycles
 SCF Done:  E(RwB97XD) =  -1199.81317357     A.U. after    9 cycles

                          Input orientation:
 ---------------------------------------------------------------------
 Center     Atomic      Atomic             Coordinates (Angstroms)
 Number     Number       Type             X           Y           Z
 ---------------------------------------------------------------------
      1          6           0       -1.140872    0.194803    0.919531
      2          6           0       -0.392522   -0.358694   -0.352948
      3          9           0       -0.316630   -1.699658   -0.291632
      4          9           0       -1.071215    0.064159   -1.419747
      5         16           0        1.366598    0.011263   -0.576967
      6          8           0        2.089848   -0.381773    0.599286
      7          8           0        1.739347   -0.454567   -1.876587
      8          8           0        1.060802    1.596474   -0.571931
      9          9           0       -2.173950   -0.625101    1.075075
     10          9           0       -0.356124    0.162115    1.987499
     11          9           0       -1.618012    1.433121    0.817614
     12          1           0        1.653651    2.072938    0.022029
 ---------------------------------------------------------------------

 Normal termination of Gaussian 16 at Fri May 23 04:10:11 2025.
