 Gaussian 16, Revision C.01,
 Gaussian 16:  ES64L-G16RevC.01  3-Jul-2019

 ----------------------------------------------------------------------
 #P wb97xd/6-311++G(d,p) Symm(None) scf(xqc) pop(None) freq opt(CalcFC)
 ----------------------------------------------------------------------

 ------------------------------
 Gaussian input prepared by ASE
 ------------------------------
 Symbolic Z-matrix:
 Charge =  0 Multiplicity = 1

 SCF Done:  E(RwB97XD) =  -1199.75587751     A.U. after   14 cycles
 SCF Done:  E(RwB97XD) =  -1199.76486086     A.U. after   15 cycles
 SCF Done:  E(RwB97XD) =  -1199.76124845     A.U. after   15 cycles
 SCF Done:  E(RwB97XD) =  -1199.76726464     A.U. after   13 cycles
 SCF Done:  E(RwB97XD) =  -1199.76839506     A.U. after   12 cycles
 SCF Done:  E(RwB97XD) =  -1199.76881766     A.U. after   12 cycles
 SCF Done:  E(RwB97XD) =  -1199.76911371     A.U. after   12 cycles
 SCF Done:  E(RwB97XD) =  -1199.76945528     A.U. after   13 cycles
 SCF Done:  E(RwB97XD) =  -1199.76967721     A.U. after   13 cycles
 SCF Done:  E(RwB97XD) =  -1199.76969106     A.U. after   11 cycles
 SCF Done:  E(RwB97XD) =  -1199.76977028     A.U. after   10 cycles
 SCF Done:  E(RwB97XD) =  -1199.76977092     A.U. after   10 cycles
 SCF Done:  E(RwB97XD) =  -1199.76977107     A.U. after    8 cycles
 SCF Done:  E(RwB97XD) =  -1199.76977117     A.U. after    8 cycles
 SCF Done:  E(RwB97XD) =  -1199.76977128     A.U. after    9 cycles
 SCF Done:  E(RwB97XD) =  -1199.76977136     A.U. after    9 cycles
 SCF Done:  E(RwB97XD) =  -1199.76977145     A.U. after    9 cycles
 SCF Done:  E(RwB97XD) =  -1199.76977154     A.U. after    9 cycles
 SCF Done:  E(RwB97XD) =  -1199.76977158     A.U. after    8 cycles
 Optimization completed.
    -- Stationary point found.
 Normal termination of Gaussian 16 at Fri May 23 04:44:14 2025.

 ----------------------------------------------------------------------
 #P Geom=AllCheck Guess=TCheck SCRF=Check GenChk RwB97XD/6-311++G(d,p)
 Freq
 ----------------------------------------------------------------------

 Structure from the checkpoint file:  "2003846667223680600001_r13_insertion_RSR_9_1_2_5_IRC_R_prod.chk"
 ------------------------------
 Gaussian input prepared by ASE
 ------------------------------
 Charge =  0 Multiplicity = 1

                          Input orientation:
 ---------------------------------------------------------------------
 Center     Atomic      Atomic             Coordinates (Angstroms)
 Number     Number       Type             X           Y           Z
 ---------------------------------------------------------------------
      1          6           0        1.168849   -1.592676   -0.438979
      2          6           0        1.864793   -0.610105    0.100868
      3          9           0        2.152219   -0.547923    1.378704
      4          9           0        2.344060    0.397752   -0.588984
      5         16           0       -1.478132    1.092027   -0.012095
      6          8           0       -0.547553    1.169716    1.066387
      7          8           0       -1.190925    1.441872   -1.354421
      8          8           0       -2.837686    1.800033    0.385684
      9          9           0       -1.993998   -0.419588   -0.026018
     10          9           0        0.884932   -1.661931   -1.719474
     11          9           0        0.689410   -2.602311    0.252161
     12          1           0       -2.989771    1.739929    1.338165
 ---------------------------------------------------------------------

 SCF Done:  E(RwB97XD) =  -1199.76977158     A.U. after    1 cycles

 Isotropic polarizability for W=    0.000000       54.49 Bohr**3.
 End of Minotr F.D. properties file   721 does not exist.

                      1                      2                      3
                      A                      A                      A
 Frequencies --     11.1948                18.9964                31.2972
 Red. masses --     12.9120                15.8971                15.8977
 Frc consts  --      0.0010                 0.0034                 0.0092
 IR Inten    --      2.4110                 1.0068                 0.7081

                      4                      5                      6
                      A                      A                      A
 Frequencies --     31.6353                38.5514                60.9277
 Red. masses --     15.0367                17.5907                13.4837
 Frc consts  --      0.0089                 0.0154                 0.0295
 IR Inten    --      1.3252                 0.0768                 0.7811

                      7                      8                      9
                      A                      A                      A
 Frequencies --    204.8147               213.5668               294.8413
 Red. masses --     18.9976                18.1650                 1.5737
 Frc consts  --      0.4695                 0.4881                 0.0806
 IR Inten    --      0.0060                 4.3771                63.6732

                     10                     11                     12
                      A                      A                      A
 Frequencies --    367.5238               404.2756               414.8831
 Red. masses --     12.6041                18.9284                 2.7378
 Frc consts  --      1.0031                 1.8227                 0.2777
 IR Inten    --      3.5626                 0.0180                39.5391

                     13                     14                     15
                      A                      A                      A
 Frequencies --    439.0248               504.0546               521.9802
 Red. masses --     12.9409                 7.1579                18.1397
 Frc consts  --      1.4696                 1.0715                 2.9120
 IR Inten    --      6.0397                33.4379                19.4178

                     16                     17                     18
                      A                      A                      A
 Frequencies --    534.3493               558.7136               562.2185
 Red. masses --     15.3461                17.3679                17.4331
 Frc consts  --      2.5817                 3.1943                 3.2466
 IR Inten    --     54.0522                 0.0092                 2.6235

                     19                     20                     21
                      A                      A                      A
 Frequencies --    581.0333               776.5506               806.3480
 Red. masses --     12.3080                20.0875                18.5977
 Frc consts  --      2.4482                 7.1370                 7.1245
 IR Inten    --      0.3883               180.6184                 0.0830

                     22                     23                     24
                      A                      A                      A
 Frequencies --    874.9633              1149.9332              1196.5414
 Red. masses --     17.7136                 1.1942                14.0572
 Frc consts  --      7.9898                 0.9304                11.8578
 IR Inten    --    269.2351                94.3464               326.3308

                     25                     26                     27
                      A                      A                      A
 Frequencies --   1231.2757              1347.4581              1354.2140
 Red. masses --     16.6265                13.3343                13.2336
 Frc consts  --     14.8512                14.2643                14.2989
 IR Inten    --    249.4905               231.3817               165.0527

                     28                     29                     30
                      A                      A                      A
 Frequencies --   1477.8261              1950.7798              3830.4385
 Red. masses --     14.2247                12.1872                 1.0663
 Frc consts  --     18.3038                27.3258                 9.2179
 IR Inten    --    341.4307                 0.2957               171.2790

 - Thermochemistry -
 -------------------
 Temperature   298.150 Kelvin.  Pressure   1.00000 Atm.
 Atom     1 has atomic number  6 and mass  12.00000

 Molecular mass:   199.95666 amu.
 Principal axes and moments of inertia in atomic units:
                           1         2         3
     Eigenvalues --  1246.276333235.754233470.04232
           X            0.82591   0.52640  -0.20195
           Y           -0.56277   0.74800  -0.35182
           Z           -0.03414   0.40422   0.91402
 This molecule is an asymmetric top.
 Rotational symmetry number  1.
 Warning -- assumption of classical behavior for rotation
           may cause significant error
 Rotational temperatures (Kelvin)      0.06950     0.02677     0.02496
 Rotational constants (GHZ):           1.44811     0.55775     0.52009
 Zero-point vibrational energy     130334.4 (Joules/Mol)
                                   31.15067 (Kcal/Mol)
 Warning -- explicit consideration of  19 degrees of freedom as
           vibrations may cause significant error
 Vibrational temperatures:     16.11    27.33    45.03    45.52    55.47
          (Kelvin)             87.66   294.68   307.27   424.21   528.78
                              581.66   596.92   631.66   725.22   751.01
                              768.81   803.86   808.91   835.98  1117.28
                             1160.15  1258.88  1654.50  1721.56  1771.53
                             1938.69  1948.41  2126.26  2806.74  5511.15

 Zero-point correction=                           0.049642 (Hartree/Particle)
 Thermal correction to Energy=                    0.061914
 Thermal correction to Enthalpy=                  0.062859
 Thermal correction to Gibbs Free Energy=         0.004889
 Sum of electronic and zero-point Energies=          -1199.720130
 Sum of electronic and thermal Energies=             -1199.707857
 Sum of electronic and thermal Enthalpies=           -1199.706913
 Sum of electronic and thermal Free Energies=        -1199.764883

                     E (Thermal)             CV                S
                      KCal/Mol        Cal/Mol-Kelvin    Cal/Mol-Kelvin
 Total                   38.852             38.781            122.007
 Electronic               0.000              0.000              0.000
 Translational            0.889              2.981             41.783
 Rotational               0.889              2.981             31.015
 Vibrational             37.074             32.819             49.209
 Vibration     1          0.593              1.987              7.787
 Vibration     2          0.593              1.986              6.736
 Vibration     3          0.594              1.983              5.745
 Vibration     4          0.594              1.983              5.724
 Vibration     5          0.594              1.981              5.332
 Vibration     6          0.597              1.973              4.427
 Vibration     7          0.640              1.833              2.089
 Vibration     8          0.644              1.820              2.013
 Vibration     9          0.689              1.683              1.446
 Vibration    10          0.740              1.539              1.090
 Vibration    11          0.769              1.461              0.947
 Vibration    12          0.778              1.438              0.910
 Vibration    13          0.799              1.385              0.830
 Vibration    14          0.859              1.241              0.648
 Vibration    15          0.877              1.201              0.605
 Vibration    16          0.889              1.174              0.578
 Vibration    17          0.914              1.121              0.526
 Vibration    18          0.918              1.113              0.519
 Vibration    19          0.938              1.072              0.483

 Optimization completed.
    -- Stationary point found.
 Normal termination of Gaussian 16 at Fri May 23 04:45:21 2025.
