 Gaussian 16, Revision C.01,
 Gaussian 16:  ES64L-G16RevC.01  3-Jul-2019

 ----------------------------------------------------------------------
 #P mp2/6-31G Symm(None) scf(xqc) pop(None) guess(Mix,Always) freq opt(
 CalcFC)
 ----------------------------------------------------------------------

 ------------------------------
 Gaussian input prepared by ASE
 ------------------------------
 Symbolic Z-matrix:
 Charge =  0 Multiplicity = 1

 SCF Done:  E(RHF) =  -1194.96585889     A.U. after   18 cycles
 E2 =    -0.1289546012D+01 EUMP2 =    -0.11962554049014D+04
 E2 =    -0.1289546012D+01 EUMP2 =    -0.11962554049014D+04
 SCF Done:  E(RHF) =  -1194.96599902     A.U. after   19 cycles
 E2 =    -0.1289577054D+01 EUMP2 =    -0.11962555760789D+04
 SCF Done:  E(RHF) =  -1194.96626496     A.U. after   19 cycles
 E2 =    -0.1289551527D+01 EUMP2 =    -0.11962558164856D+04
 SCF Done:  E(RHF) =  -1194.96642254     A.U. after   18 cycles
 E2 =    -0.1289170817D+01 EUMP2 =    -0.11962555933586D+04
 SCF Done:  E(RHF) =  -1194.96609461     A.U. after   19 cycles
 E2 =    -0.1289506030D+01 EUMP2 =    -0.11962556006386D+04
 SCF Done:  E(RHF) =  -1194.96639957     A.U. after   18 cycles
 E2 =    -0.1289469376D+01 EUMP2 =    -0.11962558689468D+04
 SCF Done:  E(RHF) =  -1194.96643674     A.U. after   18 cycles
 E2 =    -0.1289432713D+01 EUMP2 =    -0.11962558694565D+04
 SCF Done:  E(RHF) =  -1194.96644799     A.U. after   18 cycles
 E2 =    -0.1289421877D+01 EUMP2 =    -0.11962558698622D+04
 Optimization completed.
    -- Stationary point found.
 Normal termination of Gaussian 16 at Fri May 23 04:33:02 2025.

 -------------------------------------------------------------------
 #P Geom=AllCheck Guess=TCheck SCRF=Check GenChk RMP2(FC)/6-31G Freq
 -------------------------------------------------------------------

 Structure from the checkpoint file:  "2003846667223680600001_R_Addition_MultipleBond_5_2_1_IRC_F_prod.chk"
 ------------------------------
 Gaussian input prepared by ASE
 ------------------------------
 Charge =  0 Multiplicity = 1

                          Input orientation:
 ---------------------------------------------------------------------
 Center     Atomic      Atomic             Coordinates (Angstroms)
 Number     Number       Type             X           Y           Z
 ---------------------------------------------------------------------
      1          6           0       -1.174440   -0.419091    0.887258
      2          6           0       -0.565989    0.208054   -0.377454
      3          9           0       -0.935649   -0.522174   -1.500409
      4          9           0       -0.946299    1.536541   -0.484757
      5         16           0        1.436760    0.155729   -0.365862
      6          8           0        1.959998    0.806582    0.987376
      7          8           0        1.959661   -1.266991   -0.865479
      8          8           0        1.507481    1.331191   -1.753461
      9          9           0       -0.567865   -1.652602    1.122470
     10          9           0       -0.963278    0.404959    1.982307
     11          9           0       -2.541252   -0.610180    0.714832
     12          1           0        2.311615    1.109996   -2.295848
 ---------------------------------------------------------------------

 SCF Done:  E(RHF) =  -1194.96644799     A.U. after    1 cycles
 E2 =    -0.1289421873D+01 EUMP2 =    -0.11962558698586D+04
 E2 =    -0.1289421873D+01 EUMP2 =    -0.11962558698586D+04

                      1                      2                      3
                      A                      A                      A
 Frequencies --     33.0426                57.5517               117.4277
 Red. masses --     12.6693                14.0906                13.2368
 Frc consts  --      0.0081                 0.0275                 0.1075
 IR Inten    --      1.7040                 0.8605                 0.7350

                      4                      5                      6
                      A                      A                      A
 Frequencies --    141.9081               152.9050               206.8019
 Red. masses --      6.4051                 2.5247                 3.4785
 Frc consts  --      0.0760                 0.0348                 0.0876
 IR Inten    --     22.7626                50.6775                40.4529

                      7                      8                      9
                      A                      A                      A
 Frequencies --    211.2941               219.7057               258.9199
 Red. masses --     12.7576                 7.0238                11.6936
 Frc consts  --      0.3356                 0.1998                 0.4619
 IR Inten    --     12.0826                 1.9253                14.9086

                     10                     11                     12
                      A                      A                      A
 Frequencies --    291.5890               339.7105               345.8571
 Red. masses --      7.8674                11.9377                18.0506
 Frc consts  --      0.3941                 0.8117                 1.2721
 IR Inten    --     12.8531                27.8588                 1.6157

                     13                     14                     15
                      A                      A                      A
 Frequencies --    366.3769               415.0089               454.8259
 Red. masses --      9.2431                17.2985                16.1429
 Frc consts  --      0.7310                 1.7554                 1.9675
 IR Inten    --     23.4807                 1.5312               105.6099

                     16                     17                     18
                      A                      A                      A
 Frequencies --    493.4636               559.1723               576.3121
 Red. masses --     16.5961                17.7324                16.1058
 Frc consts  --      2.3810                 3.2667                 3.1517
 IR Inten    --      9.8426                 3.1289                87.1083

                     19                     20                     21
                      A                      A                      A
 Frequencies --    615.8043               689.2038               903.0658
 Red. masses --     18.3690                17.1417                13.5809
 Frc consts  --      4.1041                 4.7973                 6.5256
 IR Inten    --    150.0908                 4.7081                94.4146

                     22                     23                     24
                      A                      A                      A
 Frequencies --    973.5351              1076.1937              1099.5834
 Red. masses --     12.2493                 2.3086                 5.5984
 Frc consts  --      6.8401                 1.5754                 3.9881
 IR Inten    --     61.7701               224.6484                33.2989

                     25                     26                     27
                      A                      A                      A
 Frequencies --   1146.6283              1199.8138              1203.5169
 Red. masses --      2.7978                12.2920                12.9486
 Frc consts  --      2.1673                10.4256                11.0504
 IR Inten    --     85.3719               148.8442                94.4153

                     28                     29                     30
                      A                      A                      A
 Frequencies --   1219.9159              1313.5466              3498.1769
 Red. masses --     13.0573                11.5207                 1.0661
 Frc consts  --     11.4489                11.7117                 7.6865
 IR Inten    --    249.9321               133.3635                96.3487

 - Thermochemistry -
 -------------------
 Temperature   298.150 Kelvin.  Pressure   1.00000 Atm.
 Atom     1 has atomic number  6 and mass  12.00000

 Molecular mass:   199.95666 amu.
 Principal axes and moments of inertia in atomic units:
                           1         2         3
     Eigenvalues --  1289.728052371.370132518.88518
           X            0.87116   0.49055   0.02111
           Y            0.20544  -0.40322   0.89174
           Z           -0.44596   0.77251   0.45205
 This molecule is an asymmetric top.
 Rotational symmetry number  1.
 Warning -- assumption of classical behavior for rotation
           may cause significant error
 Rotational temperatures (Kelvin)      0.06716     0.03652     0.03439
 Rotational constants (GHZ):           1.39932     0.76105     0.71648
 Zero-point vibrational energy     120708.3 (Joules/Mol)
                                   28.84998 (Kcal/Mol)
 Warning -- explicit consideration of  19 degrees of freedom as
           vibrations may cause significant error
 Vibrational temperatures:     47.54    82.80   168.95   204.17   220.00
          (Kelvin)            297.54   304.01   316.11   372.53   419.53
                              488.77   497.61   527.13   597.11   654.39
                              709.98   804.52   829.18   886.00   991.61
                             1299.31  1400.70  1548.40  1582.06  1649.74
                             1726.26  1731.59  1755.19  1889.90  5033.10

 Zero-point correction=                           0.045975 (Hartree/Particle)
 Thermal correction to Energy=                    0.057743
 Thermal correction to Enthalpy=                  0.058687
 Thermal correction to Gibbs Free Energy=         0.007217
 Sum of electronic and zero-point Energies=          -1196.209894
 Sum of electronic and thermal Energies=             -1196.198127
 Sum of electronic and thermal Enthalpies=           -1196.197183
 Sum of electronic and thermal Free Energies=        -1196.248653

                     E (Thermal)             CV                S
                      KCal/Mol        Cal/Mol-Kelvin    Cal/Mol-Kelvin
 Total                   36.234             39.859            108.328
 Electronic               0.000              0.000              0.000
 Translational            0.889              2.981             41.783
 Rotational               0.889              2.981             30.422
 Vibrational             34.457             33.897             36.122
 Vibration     1          0.594              1.983              5.638
 Vibration     2          0.596              1.974              4.539
 Vibration     3          0.608              1.935              3.142
 Vibration     4          0.615              1.911              2.778
 Vibration     5          0.619              1.899              2.636
 Vibration     6          0.641              1.830              2.072
 Vibration     7          0.643              1.824              2.032
 Vibration     8          0.647              1.811              1.962
 Vibration     9          0.668              1.748              1.669
 Vibration    10          0.687              1.689              1.465
 Vibration    11          0.720              1.596              1.214
 Vibration    12          0.724              1.584              1.185
 Vibration    13          0.739              1.541              1.095
 Vibration    14          0.778              1.438              0.909
 Vibration    15          0.813              1.350              0.781
 Vibration    16          0.849              1.265              0.675
 Vibration    17          0.915              1.120              0.525
 Vibration    18          0.933              1.082              0.492
 Vibration    19          0.975              0.998              0.423

 Optimization completed.
    -- Stationary point found.
 Normal termination of Gaussian 16 at Fri May 23 04:33:44 2025.
