 Gaussian 16, Revision C.01,
 Gaussian 16:  ES64L-G16RevC.01  3-Jul-2019

 ----------------------------------------------------------------------
 #P wb97xd/6-311++G(d,p) Symm(None) scf(xqc) pop(None) freq opt(CalcFC)
 ----------------------------------------------------------------------

 ------------------------------
 Gaussian input prepared by ASE
 ------------------------------
 Symbolic Z-matrix:
 Charge =  0 Multiplicity = 1

 SCF Done:  E(RwB97XD) =  -1199.72320863     A.U. after   15 cycles
 SCF Done:  E(RwB97XD) =  -1199.72689333     A.U. after   14 cycles
 SCF Done:  E(RwB97XD) =  -1199.72406732     A.U. after   14 cycles
 SCF Done:  E(RwB97XD) =  -1199.72939154     A.U. after   13 cycles
 SCF Done:  E(RwB97XD) =  -1199.73000918     A.U. after   12 cycles
 SCF Done:  E(RwB97XD) =  -1199.73050701     A.U. after   13 cycles
 SCF Done:  E(RwB97XD) =  -1199.73065982     A.U. after   12 cycles
 SCF Done:  E(RwB97XD) =  -1199.73069671     A.U. after   12 cycles
 SCF Done:  E(RwB97XD) =  -1199.73074076     A.U. after   12 cycles
 SCF Done:  E(RwB97XD) =  -1199.73077454     A.U. after   12 cycles
 SCF Done:  E(RwB97XD) =  -1199.73078861     A.U. after   11 cycles
 SCF Done:  E(RwB97XD) =  -1199.73079892     A.U. after   10 cycles
 SCF Done:  E(RwB97XD) =  -1199.73080165     A.U. after   10 cycles
 Optimization completed.
    -- Stationary point found.
 Normal termination of Gaussian 16 at Fri May 23 04:16:04 2025.

 ----------------------------------------------------------------------
 #P Geom=AllCheck Guess=TCheck SCRF=Check GenChk RwB97XD/6-311++G(d,p)
 Freq
 ----------------------------------------------------------------------

 Structure from the checkpoint file:  "2003846667223680600001_r12_insertion_R_2_1_9_IRC_F_prod.chk"
 ------------------------------
 Gaussian input prepared by ASE
 ------------------------------
 Charge =  0 Multiplicity = 1

                          Input orientation:
 ---------------------------------------------------------------------
 Center     Atomic      Atomic             Coordinates (Angstroms)
 Number     Number       Type             X           Y           Z
 ---------------------------------------------------------------------
      1          6           0       -0.807946    0.245104    0.898983
      2          6           0       -0.785990   -0.008089   -0.657325
      3          9           0       -1.386549   -1.089020   -1.067545
      4          9           0       -1.162192    1.009461   -1.385216
      5         16           0        1.156093   -0.156093   -0.319290
      6          8           0        0.538705    0.176891    1.197326
      7          8           0        2.577126   -0.424667   -0.332030
      8          8           0        1.232934    1.408886   -0.884223
      9          9           0        0.766266   -1.828609   -0.182280
     10          9           0       -1.301423    1.441292    1.201164
     11          9           0       -1.497748   -0.676077    1.556226
     12          1           0        2.143507    1.717886   -0.810695
 ---------------------------------------------------------------------

 SCF Done:  E(RwB97XD) =  -1199.73080165     A.U. after    1 cycles

 Isotropic polarizability for W=    0.000000       59.25 Bohr**3.
 End of Minotr F.D. properties file   721 does not exist.

                      1                      2                      3
                      A                      A                      A
 Frequencies --     56.9575                74.2422               205.8779
 Red. masses --     13.7952                13.8134                18.7180
 Frc consts  --      0.0264                 0.0449                 0.4674
 IR Inten    --      1.1052                 0.2035                 0.1465

                      4                      5                      6
                      A                      A                      A
 Frequencies --    231.8017               261.9322               275.4288
 Red. masses --     15.6040                15.6148                15.4180
 Frc consts  --      0.4940                 0.6312                 0.6891
 IR Inten    --      0.5185                 2.9326                 0.5524

                      7                      8                      9
                      A                      A                      A
 Frequencies --    287.6144               339.4560               350.9618
 Red. masses --     10.1318                16.1165                 8.8201
 Frc consts  --      0.4938                 1.0942                 0.6401
 IR Inten    --      5.0856                 5.3391                 6.2248

                     10                     11                     12
                      A                      A                      A
 Frequencies --    442.8608               451.8501               473.3323
 Red. masses --      4.6697                 4.0868                 8.7734
 Frc consts  --      0.5396                 0.4916                 1.1581
 IR Inten    --      9.2471                 3.7867                42.1622

                     13                     14                     15
                      A                      A                      A
 Frequencies --    516.4132               530.4392               571.8997
 Red. masses --     10.0837                 2.4945                 7.5527
 Frc consts  --      1.5844                 0.4135                 1.4554
 IR Inten    --     49.2637               126.2190                22.0246

                     16                     17                     18
                      A                      A                      A
 Frequencies --    605.2777               615.3433               623.7647
 Red. masses --     15.9856                13.4524                11.4590
 Frc consts  --      3.4505                 3.0011                 2.6269
 IR Inten    --      1.0628                23.3488                39.6729

                     19                     20                     21
                      A                      A                      A
 Frequencies --    723.3961               729.7248               818.8688
 Red. masses --     17.4184                18.2329                16.1067
 Frc consts  --      5.3704                 5.7204                 6.3634
 IR Inten    --    143.2085               272.5525               139.6714

                     22                     23                     24
                      A                      A                      A
 Frequencies --    875.6463              1099.5247              1147.9092
 Red. masses --     13.2205                 1.7914                 4.5969
 Frc consts  --      5.9725                 1.2760                 3.5689
 IR Inten    --    146.0710                96.2299               204.8038

                     25                     26                     27
                      A                      A                      A
 Frequencies --   1219.7456              1246.9606              1281.7317
 Red. masses --      8.2083                12.9353                 9.1219
 Frc consts  --      7.1952                11.8504                 8.8294
 IR Inten    --    225.7618               297.2300               289.6472

                     28                     29                     30
                      A                      A                      A
 Frequencies --   1329.9461              1360.8125              3852.0199
 Red. masses --     10.6687                12.0305                 1.0662
 Frc consts  --     11.1181                13.1259                 9.3212
 IR Inten    --    154.0457               204.0682               151.3836

 - Thermochemistry -
 -------------------
 Temperature   298.150 Kelvin.  Pressure   1.00000 Atm.
 Atom     1 has atomic number  6 and mass  12.00000

 Molecular mass:   199.95666 amu.
 Principal axes and moments of inertia in atomic units:
                           1         2         3
     Eigenvalues --  1282.844811917.782101991.64945
           X            0.94308   0.06777   0.32559
           Y           -0.16272   0.94785   0.27404
           Z           -0.29004  -0.31142   0.90493
 This molecule is an asymmetric top.
 Rotational symmetry number  1.
 Warning -- assumption of classical behavior for rotation
           may cause significant error
 Rotational temperatures (Kelvin)      0.06752     0.04516     0.04349
 Rotational constants (GHZ):           1.40683     0.94106     0.90615
 Zero-point vibrational energy     135188.4 (Joules/Mol)
                                   32.31081 (Kcal/Mol)
 Warning -- explicit consideration of  17 degrees of freedom as
           vibrations may cause significant error
 Vibrational temperatures:     81.95   106.82   296.21   333.51   376.86
          (Kelvin)            396.28   413.81   488.40   504.96   637.18
                              650.11   681.02   743.00   763.18   822.84
                              870.86   885.34   897.46  1040.81  1049.91
                             1178.17  1259.86  1581.97  1651.59  1754.94
                             1794.10  1844.13  1913.50  1957.91  5542.20

 Zero-point correction=                           0.051491 (Hartree/Particle)
 Thermal correction to Energy=                    0.061350
 Thermal correction to Enthalpy=                  0.062294
 Thermal correction to Gibbs Free Energy=         0.015803
 Sum of electronic and zero-point Energies=          -1199.679311
 Sum of electronic and thermal Energies=             -1199.669451
 Sum of electronic and thermal Enthalpies=           -1199.668507
 Sum of electronic and thermal Free Energies=        -1199.714999

                     E (Thermal)             CV                S
                      KCal/Mol        Cal/Mol-Kelvin    Cal/Mol-Kelvin
 Total                   38.498             36.402             97.850
 Electronic               0.000              0.000              0.000
 Translational            0.889              2.981             41.783
 Rotational               0.889              2.981             29.973
 Vibrational             36.720             30.441             26.093
 Vibration     1          0.596              1.975              4.560
 Vibration     2          0.599              1.966              4.038
 Vibration     3          0.640              1.832              2.080
 Vibration     4          0.653              1.792              1.865
 Vibration     5          0.669              1.742              1.649
 Vibration     6          0.677              1.719              1.562
 Vibration     7          0.685              1.697              1.488
 Vibration     8          0.719              1.597              1.215
 Vibration     9          0.728              1.573              1.162
 Vibration    10          0.802              1.377              0.818
 Vibration    11          0.811              1.357              0.790
 Vibration    12          0.830              1.309              0.728
 Vibration    13          0.871              1.214              0.618
 Vibration    14          0.885              1.183              0.586
 Vibration    15          0.928              1.092              0.501
 Vibration    16          0.964              1.021              0.441
 Vibration    17          0.975              0.999              0.424

 Optimization completed.
    -- Stationary point found.
 Normal termination of Gaussian 16 at Fri May 23 04:17:54 2025.
