 Gaussian 16, Revision C.01,
 Gaussian 16:  ES64L-G16RevC.01  3-Jul-2019

 ----------------------------------------------------------------------
 #P wb97xd/6-311++G(d,p) Symm(None) scf(xqc) pop(None) freq opt(CalcFC)
 ----------------------------------------------------------------------

 ------------------------------
 Gaussian input prepared by ASE
 ------------------------------
 Symbolic Z-matrix:
 Charge =  0 Multiplicity = 1

 SCF Done:  E(RwB97XD) =  -1199.70443684     A.U. after   17 cycles
 SCF Done:  E(RwB97XD) =  -1199.72720402     A.U. after   15 cycles
 SCF Done:  E(RwB97XD) =  -1199.73260785     A.U. after   15 cycles
 SCF Done:  E(RwB97XD) =  -1199.73475786     A.U. after   15 cycles
 SCF Done:  E(RwB97XD) =  -1199.70159638     A.U. after   16 cycles
 SCF Done:  E(RwB97XD) =  -1199.73544326     A.U. after   13 cycles
 SCF Done:  E(RwB97XD) =  -1199.73580303     A.U. after   13 cycles
 SCF Done:  E(RwB97XD) =  -1199.73597133     A.U. after   14 cycles
 SCF Done:  E(RwB97XD) =  -1199.73618270     A.U. after   14 cycles
 SCF Done:  E(RwB97XD) =  -1199.73619510     A.U. after   11 cycles
 SCF Done:  E(RwB97XD) =  -1199.73619751     A.U. after   10 cycles
 SCF Done:  E(RwB97XD) =  -1199.73619759     A.U. after    9 cycles
 SCF Done:  E(RwB97XD) =  -1199.73619760     A.U. after    8 cycles
 Optimization completed.
    -- Stationary point found.
 Normal termination of Gaussian 16 at Fri May 23 05:08:41 2025.

 ----------------------------------------------------------------------
 #P Geom=AllCheck Guess=TCheck SCRF=Check GenChk RwB97XD/6-311++G(d,p)
 Freq
 ----------------------------------------------------------------------

 Structure from the checkpoint file:  "2003846667223680600001_r13_insertion_ROR_12_8_5_6_IRC_F_prod.chk"
 ------------------------------
 Gaussian input prepared by ASE
 ------------------------------
 Charge =  0 Multiplicity = 1

                          Input orientation:
 ---------------------------------------------------------------------
 Center     Atomic      Atomic             Coordinates (Angstroms)
 Number     Number       Type             X           Y           Z
 ---------------------------------------------------------------------
      1          6           0        1.368236    0.642118    0.695255
      2          6           0        0.256412   -0.399829    0.404181
      3          9           0        0.753351   -1.369328   -0.359227
      4          9           0       -0.170641   -0.905303    1.566490
      5         16           0       -1.251861    0.432233   -0.434531
      6          8           0       -3.270108   -0.972260   -0.885808
      7          8           0       -0.785100    0.948367   -1.719034
      8          8           0       -1.881496   -1.131508   -0.626879
      9          9           0        1.947984    1.043279   -0.424250
     10          9           0        0.828183    1.700007    1.308227
     11          9           0        2.288521    0.111694    1.492554
     12          1           0       -3.316810   -1.218714   -1.818337
 ---------------------------------------------------------------------

 SCF Done:  E(RwB97XD) =  -1199.73619760     A.U. after    1 cycles

 Isotropic polarizability for W=    0.000000       61.05 Bohr**3.
 End of Minotr F.D. properties file   721 does not exist.

                      1                      2                      3
                      A                      A                      A
 Frequencies --     35.3421                55.8132                77.9519
 Red. masses --     13.6678                12.7293                11.3842
 Frc consts  --      0.0101                 0.0234                 0.0408
 IR Inten    --      0.5014                 1.0789                 5.0338

                      4                      5                      6
                      A                      A                      A
 Frequencies --    115.1341               184.1347               199.4134
 Red. masses --     12.1744                10.0005                14.9965
 Frc consts  --      0.0951                 0.1998                 0.3514
 IR Inten    --      0.8383                 0.8944                 8.6676

                      7                      8                      9
                      A                      A                      A
 Frequencies --    225.8536               274.8025               296.7398
 Red. masses --     18.3293                17.3562                 5.8593
 Frc consts  --      0.5509                 0.7722                 0.3040
 IR Inten    --      1.5565                 1.1911                 8.6691

                     10                     11                     12
                      A                      A                      A
 Frequencies --    312.3049               339.1286               369.7854
 Red. masses --     15.5382                 1.5218                18.0639
 Frc consts  --      0.8929                 0.1031                 1.4553
 IR Inten    --      3.7108               112.1766                 0.2896

                     13                     14                     15
                      A                      A                      A
 Frequencies --    415.1714               451.0017               512.8789
 Red. masses --     13.3247                 6.2191                18.7131
 Frc consts  --      1.3532                 0.7453                 2.9002
 IR Inten    --     11.9685                23.0470                34.7084

                     16                     17                     18
                      A                      A                      A
 Frequencies --    552.4048               601.6228               629.3998
 Red. masses --     18.5861                18.0201                16.6476
 Frc consts  --      3.3416                 3.8429                 3.8856
 IR Inten    --      6.6878                 8.0485                42.9921

                     19                     20                     21
                      A                      A                      A
 Frequencies --    708.2888               759.6782               961.4768
 Red. masses --     17.1805                17.2475                13.6545
 Frc consts  --      5.0782                 5.8646                 7.4371
 IR Inten    --     59.0244                21.6060               107.0003

                     22                     23                     24
                      A                      A                      A
 Frequencies --   1001.3931              1157.6086              1216.1379
 Red. masses --     14.7053                13.5758                14.5857
 Frc consts  --      8.6883                10.7186                12.7099
 IR Inten    --     19.0848               193.4813                29.2274

                     25                     26                     27
                      A                      A                      A
 Frequencies --   1225.5167              1232.1843              1261.8527
 Red. masses --     13.2927                14.6729                14.1706
 Frc consts  --     11.7626                13.1255                13.2940
 IR Inten    --    274.6607                63.8844               473.0485

                     28                     29                     30
                      A                      A                      A
 Frequencies --   1348.9455              1430.8745              3824.6691
 Red. masses --     12.2774                 1.1129                 1.0686
 Frc consts  --     13.1627                 1.3424                 9.2102
 IR Inten    --    137.6479                61.8583                87.6985

 - Thermochemistry -
 -------------------
 Temperature   298.150 Kelvin.  Pressure   1.00000 Atm.
 Atom     1 has atomic number  6 and mass  12.00000

 Molecular mass:   199.95666 amu.
 Principal axes and moments of inertia in atomic units:
                           1         2         3
     Eigenvalues --  1010.910482632.920552911.76515
           X            0.88271   0.01225  -0.46975
           Y            0.26032   0.81950   0.51054
           Z            0.39122  -0.57294   0.72020
 This molecule is an asymmetric top.
 Rotational symmetry number  1.
 Warning -- assumption of classical behavior for rotation
           may cause significant error
 Rotational temperatures (Kelvin)      0.08568     0.03290     0.02975
 Rotational constants (GHZ):           1.78526     0.68545     0.61981
 Zero-point vibrational energy     130258.4 (Joules/Mol)
                                   31.13251 (Kcal/Mol)
 Warning -- explicit consideration of  17 degrees of freedom as
           vibrations may cause significant error
 Vibrational temperatures:     50.85    80.30   112.16   165.65   264.93
          (Kelvin)            286.91   324.95   395.38   426.94   449.34
                              487.93   532.04   597.34   648.89   737.92
                              794.79   865.60   905.57  1019.07  1093.01
                             1383.35  1440.78  1665.54  1749.75  1763.25
                             1772.84  1815.52  1940.83  2058.71  5502.85

 Zero-point correction=                           0.049613 (Hartree/Particle)
 Thermal correction to Energy=                    0.060920
 Thermal correction to Enthalpy=                  0.061864
 Thermal correction to Gibbs Free Energy=         0.010972
 Sum of electronic and zero-point Energies=          -1199.686585
 Sum of electronic and thermal Energies=             -1199.675277
 Sum of electronic and thermal Enthalpies=           -1199.674333
 Sum of electronic and thermal Free Energies=        -1199.725225

                     E (Thermal)             CV                S
                      KCal/Mol        Cal/Mol-Kelvin    Cal/Mol-Kelvin
 Total                   38.228             38.177            107.111
 Electronic               0.000              0.000              0.000
 Translational            0.889              2.981             41.783
 Rotational               0.889              2.981             30.428
 Vibrational             36.451             32.215             34.900
 Vibration     1          0.594              1.982              5.504
 Vibration     2          0.596              1.975              4.600
 Vibration     3          0.599              1.964              3.942
 Vibration     4          0.608              1.937              3.180
 Vibration     5          0.631              1.861              2.286
 Vibration     6          0.638              1.841              2.139
 Vibration     7          0.650              1.802              1.912
 Vibration     8          0.677              1.720              1.566
 Vibration     9          0.690              1.680              1.435
 Vibration    10          0.701              1.650              1.350
 Vibration    11          0.719              1.597              1.216
 Vibration    12          0.742              1.534              1.081
 Vibration    13          0.779              1.437              0.909
 Vibration    14          0.810              1.359              0.793
 Vibration    15          0.868              1.221              0.627
 Vibration    16          0.908              1.134              0.539
 Vibration    17          0.960              1.028              0.447

 Optimization completed.
    -- Stationary point found.
 Normal termination of Gaussian 16 at Fri May 23 05:09:49 2025.
