 Gaussian 16, Revision C.01,
 Gaussian 16:  ES64L-G16RevC.01  3-Jul-2019

 ----------------------------------------------------------------------
 #P wb97xd/6-311++G(d,p) Symm(None) scf(xqc) pop(None) freq opt(CalcFC)
 ----------------------------------------------------------------------

 ------------------------------
 Gaussian input prepared by ASE
 ------------------------------
 Symbolic Z-matrix:
 Charge =  0 Multiplicity = 1

 SCF Done:  E(RwB97XD) =  -1199.78884964     A.U. after   15 cycles
 SCF Done:  E(RwB97XD) =  -1199.80939374     A.U. after   13 cycles
 SCF Done:  E(RwB97XD) =  -1199.81833685     A.U. after   14 cycles
 SCF Done:  E(RwB97XD) =  -1199.82002949     A.U. after   15 cycles
 SCF Done:  E(RwB97XD) =  -1199.82029049     A.U. after   14 cycles
 SCF Done:  E(RwB97XD) =  -1199.75919947     A.U. after   15 cycles
 SCF Done:  E(RwB97XD) =  -1199.81818893     A.U. after   13 cycles
 SCF Done:  E(RwB97XD) =  -1199.82030729     A.U. after    9 cycles
 SCF Done:  E(RwB97XD) =  -1199.82152475     A.U. after   12 cycles
 SCF Done:  E(RwB97XD) =  -1199.82290997     A.U. after   13 cycles
 SCF Done:  E(RwB97XD) =  -1199.82584595     A.U. after   11 cycles
 SCF Done:  E(RwB97XD) =  -1199.82587094     A.U. after   11 cycles
 SCF Done:  E(RwB97XD) =  -1199.82587680     A.U. after   10 cycles
 SCF Done:  E(RwB97XD) =  -1199.82587893     A.U. after   10 cycles
 SCF Done:  E(RwB97XD) =  -1199.82587953     A.U. after    9 cycles
 SCF Done:  E(RwB97XD) =  -1199.82587998     A.U. after    9 cycles
 SCF Done:  E(RwB97XD) =  -1199.82588013     A.U. after    9 cycles
 SCF Done:  E(RwB97XD) =  -1199.82588016     A.U. after    9 cycles
 SCF Done:  E(RwB97XD) =  -1199.82588018     A.U. after    8 cycles
 Optimization completed.
    -- Stationary point found.
 Normal termination of Gaussian 16 at Fri May 23 04:53:33 2025.

 ----------------------------------------------------------------------
 #P Geom=AllCheck Guess=TCheck SCRF=Check GenChk RwB97XD/6-311++G(d,p)
 Freq
 ----------------------------------------------------------------------

 Structure from the checkpoint file:  "2003846667223680600001_r13_insertion_RSR_9_1_2_5_IRC_F_prod.chk"
 ------------------------------
 Gaussian input prepared by ASE
 ------------------------------
 Charge =  0 Multiplicity = 1

                          Input orientation:
 ---------------------------------------------------------------------
 Center     Atomic      Atomic             Coordinates (Angstroms)
 Number     Number       Type             X           Y           Z
 ---------------------------------------------------------------------
      1          6           0        0.112885   -1.451845   -0.136511
      2          6           0        0.595279    0.017989   -0.306705
      3          9           0        1.831190    0.125842    0.179778
      4          9           0        0.597448    0.327496   -1.602432
      5         16           0       -0.457710    1.284952    0.594890
      6          8           0       -0.816947    0.721279    1.866602
      7          8           0        0.206680    2.538061    0.438084
      8          8           0       -1.745682    1.323148   -0.354699
      9          9           0       -1.201471   -1.530438   -0.386170
     10          9           0        0.750394   -2.228073   -1.002154
     11          9           0        0.343310   -1.888037    1.088138
     12          1           0       -2.389652    0.658159   -0.077078
 ---------------------------------------------------------------------

 SCF Done:  E(RwB97XD) =  -1199.82588018     A.U. after    1 cycles

 Isotropic polarizability for W=    0.000000       55.70 Bohr**3.
 End of Minotr F.D. properties file   721 does not exist.

                      1                      2                      3
                      A                      A                      A
 Frequencies --     56.8653                61.7118               126.7408
 Red. masses --     12.2857                15.2920                 8.7163
 Frc consts  --      0.0234                 0.0343                 0.0825
 IR Inten    --      1.8171                 1.6154                10.3151

                      4                      5                      6
                      A                      A                      A
 Frequencies --    197.1128               219.1933               237.9338
 Red. masses --      9.1649                10.3688                 9.5730
 Frc consts  --      0.2098                 0.2935                 0.3193
 IR Inten    --      8.2030                 6.8914                 2.9991

                      7                      8                      9
                      A                      A                      A
 Frequencies --    276.6575               297.3417               309.4511
 Red. masses --     15.3686                 1.9415                16.8743
 Frc consts  --      0.6931                 0.1011                 0.9521
 IR Inten    --      9.7683                70.9963                 0.9153

                     10                     11                     12
                      A                      A                      A
 Frequencies --    328.8374               376.9929               437.4954
 Red. masses --      5.2265                 8.2913                12.4208
 Frc consts  --      0.3330                 0.6943                 1.4007
 IR Inten    --     19.1365                12.3721                 6.5629

                     13                     14                     15
                      A                      A                      A
 Frequencies --    450.3877               510.5389               537.7919
 Red. masses --      5.5610                16.3458                17.8444
 Frc consts  --      0.6646                 2.5102                 3.0408
 IR Inten    --     30.7982                 9.3906                25.5489

                     16                     17                     18
                      A                      A                      A
 Frequencies --    599.2630               609.1353               655.9385
 Red. masses --     17.7903                20.4701                16.2577
 Frc consts  --      3.7642                 4.4750                 4.1213
 IR Inten    --      2.9818               119.2938                25.9960

                     19                     20                     21
                      A                      A                      A
 Frequencies --    763.4615               834.0227              1002.2380
 Red. masses --     17.2868                17.4682                12.7138
 Frc consts  --      5.9366                 7.1590                 7.5243
 IR Inten    --     18.7158               192.0173               100.4429

                     22                     23                     24
                      A                      A                      A
 Frequencies --   1133.9838              1155.6155              1209.0825
 Red. masses --      1.2100                13.5533                13.8091
 Frc consts  --      0.9168                10.6641                11.8940
 IR Inten    --    132.0194               156.6648                82.0044

                     25                     26                     27
                      A                      A                      A
 Frequencies --   1226.5150              1228.2167              1262.1882
 Red. masses --     12.4166                13.3479                13.3270
 Frc consts  --     11.0052                11.8635                12.5092
 IR Inten    --    138.4315               182.2988               373.7369

                     28                     29                     30
                      A                      A                      A
 Frequencies --   1348.4436              1443.6351              3828.4673
 Red. masses --     12.6972                14.1107                 1.0664
 Frc consts  --     13.6026                17.3266                 9.2088
 IR Inten    --    113.4445               294.7679               151.9255

 - Thermochemistry -
 -------------------
 Temperature   298.150 Kelvin.  Pressure   1.00000 Atm.
 Atom     1 has atomic number  6 and mass  12.00000

 Molecular mass:   199.95666 amu.
 Principal axes and moments of inertia in atomic units:
                           1         2         3
     Eigenvalues --  1152.592182137.519762288.61820
           X           -0.24267   0.82544   0.50967
           Y            0.94153   0.32698  -0.08127
           Z            0.23373  -0.46014   0.85653
 This molecule is an asymmetric top.
 Rotational symmetry number  1.
 Warning -- assumption of classical behavior for rotation
           may cause significant error
 Rotational temperatures (Kelvin)      0.07515     0.04052     0.03785
 Rotational constants (GHZ):           1.56581     0.84432     0.78857
 Zero-point vibrational energy     135927.2 (Joules/Mol)
                                   32.48739 (Kcal/Mol)
 Warning -- explicit consideration of  17 degrees of freedom as
           vibrations may cause significant error
 Vibrational temperatures:     81.82    88.79   182.35   283.60   315.37
          (Kelvin)            342.33   398.05   427.81   445.23   473.12
                              542.41   629.46   648.01   734.55   773.76
                              862.21   876.41   943.75  1098.45  1199.97
                             1442.00  1631.55  1662.67  1739.60  1764.68
                             1767.13  1816.01  1940.11  2077.07  5508.31

 Zero-point correction=                           0.051772 (Hartree/Particle)
 Thermal correction to Energy=                    0.062231
 Thermal correction to Enthalpy=                  0.063175
 Thermal correction to Gibbs Free Energy=         0.015022
 Sum of electronic and zero-point Energies=          -1199.774108
 Sum of electronic and thermal Energies=             -1199.763649
 Sum of electronic and thermal Enthalpies=           -1199.762705
 Sum of electronic and thermal Free Energies=        -1199.810858

                     E (Thermal)             CV                S
                      KCal/Mol        Cal/Mol-Kelvin    Cal/Mol-Kelvin
 Total                   39.051             36.696            101.347
 Electronic               0.000              0.000              0.000
 Translational            0.889              2.981             41.783
 Rotational               0.889              2.981             30.112
 Vibrational             37.273             30.734             29.451
 Vibration     1          0.596              1.975              4.563
 Vibration     2          0.597              1.973              4.402
 Vibration     3          0.611              1.926              2.995
 Vibration     4          0.636              1.844              2.160
 Vibration     5          0.647              1.812              1.966
 Vibration     6          0.656              1.783              1.818
 Vibration     7          0.678              1.717              1.554
 Vibration     8          0.691              1.679              1.432
 Vibration     9          0.699              1.656              1.365
 Vibration    10          0.712              1.618              1.266
 Vibration    11          0.748              1.519              1.051
 Vibration    12          0.798              1.388              0.835
 Vibration    13          0.809              1.360              0.795
 Vibration    14          0.866              1.227              0.632
 Vibration    15          0.893              1.166              0.570
 Vibration    16          0.957              1.033              0.451
 Vibration    17          0.968              1.012              0.434

 Optimization completed.
    -- Stationary point found.
 Normal termination of Gaussian 16 at Fri May 23 04:55:27 2025.
