 Gaussian 16, Revision C.01,
 Gaussian 16:  ES64L-G16RevC.01  3-Jul-2019

 ----------------------------------------------------------------------
 #P wb97xd/6-311++G(d,p) Symm(None) scf(xqc) pop(None) opt(NoFreeze,TS,
 CalcAll,NoEigentest,MaxCycle=999)
 ----------------------------------------------------------------------

 ------------------------------
 Gaussian input prepared by ASE
 ------------------------------
 Symbolic Z-matrix:
 Charge =  0 Multiplicity = 1

 SCF Done:  E(RwB97XD) =  -1199.72608062     A.U. after   15 cycles
 SCF Done:  E(RwB97XD) =  -1199.73019457     A.U. after   13 cycles
 SCF Done:  E(RwB97XD) =  -1199.74846020     A.U. after   13 cycles
 SCF Done:  E(RwB97XD) =  -1199.76252170     A.U. after   13 cycles
 SCF Done:  E(RwB97XD) =  -1199.76576591     A.U. after   13 cycles
 SCF Done:  E(RwB97XD) =  -1199.76589037     A.U. after   12 cycles
 SCF Done:  E(RwB97XD) =  -1199.76589445     A.U. after   11 cycles

 Isotropic polarizability for W=    0.000000       56.21 Bohr**3.
 End of Minotr F.D. properties file   721 does not exist.

 Optimization completed.
    -- Stationary point found.

                          Input orientation:
 ---------------------------------------------------------------------
 Center     Atomic      Atomic             Coordinates (Angstroms)
 Number     Number       Type             X           Y           Z
 ---------------------------------------------------------------------
      1          6           0       -0.748424    0.316333    1.319383
      2          6           0       -0.114753   -0.003785   -0.067277
      3          9           0       -0.385677   -1.265057   -0.385984
      4          9           0       -0.624963    0.812108   -0.987999
      5         16           0        1.753081    0.206548   -0.147401
      6          8           0        2.318246   -0.046126    1.245116
      7          8           0        2.197380   -0.562121   -1.264424
      8          8           0        2.027096    1.701070   -0.072797
      9          9           0       -0.402746   -0.602811    2.206297
     10          9           0       -0.359692    1.512194    1.746084
     11          9           0       -2.070124    0.315376    1.188252
     12          1           0        2.460999    1.214303    1.039045
 ---------------------------------------------------------------------

 ******    1 imaginary frequencies (negative Signs) ******

                      1                      2                      3
                      A                      A                      A
 Frequencies --  -1927.5090                40.4097                67.9768
 Red. masses --      1.0888                13.6151                18.2726
 Frc consts  --      2.3833                 0.0131                 0.0497
 IR Inten    --    624.3453                 0.3303                 0.0198

                      4                      5                      6
                      A                      A                      A
 Frequencies --    135.8672               190.7984               221.6515
 Red. masses --     13.7053                16.3255                18.4688
 Frc consts  --      0.1491                 0.3502                 0.5346
 IR Inten    --      1.3485                 2.4568                 1.4358

                      7                      8                      9
                      A                      A                      A
 Frequencies --    238.1293               277.0101               305.1437
 Red. masses --     14.4449                16.5608                17.6783
 Frc consts  --      0.4826                 0.7487                 0.9698
 IR Inten    --      2.4325                 3.0321                 0.7775

                     10                     11                     12
                      A                      A                      A
 Frequencies --    317.9658               372.5844               425.5697
 Red. masses --     17.0284                18.0256                17.7782
 Frc consts  --      1.0143                 1.4743                 1.8971
 IR Inten    --      0.5738                 0.2545                10.0059

                     13                     14                     15
                      A                      A                      A
 Frequencies --    491.3468               520.9148               556.7464
 Red. masses --     18.0150                11.3435                12.8573
 Frc consts  --      2.5625                 1.8136                 2.3481
 IR Inten    --      6.9319                45.3771                11.3007

                     16                     17                     18
                      A                      A                      A
 Frequencies --    600.2564               644.2565               709.7313
 Red. masses --     17.8447                16.8095                15.8246
 Frc consts  --      3.7882                 4.1108                 4.6965
 IR Inten    --      2.2351                17.8946                96.1363

                     19                     20                     21
                      A                      A                      A
 Frequencies --    770.5187               964.7353               980.5571
 Red. masses --     15.7840                12.5146                 1.2582
 Frc consts  --      5.5212                 6.8625                 0.7127
 IR Inten    --     17.5341               174.0601               111.2078

                     22                     23                     24
                      A                      A                      A
 Frequencies --   1056.0646              1112.0330              1168.5577
 Red. masses --      8.4137                11.4126                13.0177
 Frc consts  --      5.5286                 8.3151                10.4733
 IR Inten    --     67.1624               222.3013               135.2345

                     25                     26                     27
                      A                      A                      A
 Frequencies --   1226.9973              1239.5056              1260.0826
 Red. masses --     13.1986                12.7781                12.9330
 Frc consts  --     11.7075                11.5668                12.0990
 IR Inten    --    115.8573               224.0557               418.4121

                     28                     29                     30
                      A                      A                      A
 Frequencies --   1343.8068              1379.4104              2162.9111
 Red. masses --     12.6927                16.9768                 1.0280
 Frc consts  --     13.5045                19.0324                 2.8335
 IR Inten    --    135.3488               307.8512               131.9257

 - Thermochemistry -
 -------------------
 Temperature   298.150 Kelvin.  Pressure   1.00000 Atm.
 Atom     1 has atomic number  6 and mass  12.00000

 Molecular mass:   199.95666 amu.
 Principal axes and moments of inertia in atomic units:
                           1         2         3
     Eigenvalues --  1156.175372112.368482339.10891
           X            0.89396   0.40947  -0.18212
           Y           -0.00431   0.41423   0.91016
           Z           -0.44812   0.81287  -0.37207
 This molecule is an asymmetric top.
 Rotational symmetry number  1.
 Warning -- assumption of classical behavior for rotation
           may cause significant error
 Rotational temperatures (Kelvin)      0.07491     0.04100     0.03703
 Rotational constants (GHZ):           1.56096     0.85437     0.77155
    1 imaginary frequencies ignored.
 Zero-point vibrational energy     124301.2 (Joules/Mol)
                                   29.70870 (Kcal/Mol)
 Warning -- explicit consideration of  15 degrees of freedom as
           vibrations may cause significant error
 Vibrational temperatures:     58.14    97.80   195.48   274.52   318.91
          (Kelvin)            342.61   398.56   439.03   457.48   536.07
                              612.30   706.94   749.48   801.03   863.64
                              926.94  1021.14  1108.60  1388.04  1410.80
                             1519.44  1599.97  1681.29  1765.38  1783.37
                             1812.98  1933.44  1984.66  3111.95

 Zero-point correction=                           0.047344 (Hartree/Particle)
 Thermal correction to Energy=                    0.057320
 Thermal correction to Enthalpy=                  0.058265
 Thermal correction to Gibbs Free Energy=         0.010696
 Sum of electronic and zero-point Energies=          -1199.718551
 Sum of electronic and thermal Energies=             -1199.708574
 Sum of electronic and thermal Enthalpies=           -1199.707630
 Sum of electronic and thermal Free Energies=        -1199.755199

                     E (Thermal)             CV                S
                      KCal/Mol        Cal/Mol-Kelvin    Cal/Mol-Kelvin
 Total                   35.969             34.732            100.118
 Electronic               0.000              0.000              0.000
 Translational            0.889              2.981             41.783
 Rotational               0.889              2.981             30.125
 Vibrational             34.192             28.770             28.209
 Vibration     1          0.594              1.981              5.239
 Vibration     2          0.598              1.969              4.211
 Vibration     3          0.614              1.918              2.861
 Vibration     4          0.634              1.853              2.220
 Vibration     5          0.648              1.808              1.946
 Vibration     6          0.656              1.782              1.817
 Vibration     7          0.678              1.716              1.552
 Vibration     8          0.696              1.664              1.389
 Vibration     9          0.704              1.639              1.321
 Vibration    10          0.744              1.528              1.069
 Vibration    11          0.787              1.415              0.873
 Vibration    12          0.847              1.269              0.680
 Vibration    13          0.876              1.204              0.608
 Vibration    14          0.912              1.125              0.530
 Vibration    15          0.958              1.031              0.449

 Normal termination of Gaussian 16 at Fri May 23 02:20:02 2025.
