 Gaussian 16, Revision C.01,
 Gaussian 16:  ES64L-G16RevC.01  3-Jul-2019

 ----------------------------------------------------------------------
 #P wb97xd/6-311++G(d,p) Symm(None) scf(xqc) pop(None) geom(AllCheck,No
 KeepConstants) guess(Read) irc(RCFC,forward,MaxPoints=100,StepSize=2)
 ----------------------------------------------------------------------

 Structure from the checkpoint file:  "2003846667223680600001_r13_insertion_ROR_12_8_5_6_IRC_F.chk"
 ------------------------------
 Gaussian input prepared by ASE
 ------------------------------
 Charge =  0 Multiplicity = 1

 SCF Done:  E(RwB97XD) =  -1199.65884723     A.U. after   15 cycles
 SCF Done:  E(RwB97XD) =  -1199.65886143     A.U. after   14 cycles
 SCF Done:  E(RwB97XD) =  -1199.65888523     A.U. after   14 cycles
 SCF Done:  E(RwB97XD) =  -1199.65891864     A.U. after   14 cycles
 SCF Done:  E(RwB97XD) =  -1199.65896169     A.U. after   14 cycles
 SCF Done:  E(RwB97XD) =  -1199.65901440     A.U. after   14 cycles
 SCF Done:  E(RwB97XD) =  -1199.65907683     A.U. after   14 cycles
 SCF Done:  E(RwB97XD) =  -1199.65914903     A.U. after   14 cycles
 SCF Done:  E(RwB97XD) =  -1199.65923106     A.U. after   14 cycles
 SCF Done:  E(RwB97XD) =  -1199.65932299     A.U. after   14 cycles
 SCF Done:  E(RwB97XD) =  -1199.69839360     A.U. after   11 cycles
 SCF Done:  E(RwB97XD) =  -1199.69908832     A.U. after   11 cycles
 SCF Done:  E(RwB97XD) =  -1199.69977816     A.U. after   11 cycles
 SCF Done:  E(RwB97XD) =  -1199.70046266     A.U. after   11 cycles
 SCF Done:  E(RwB97XD) =  -1199.70114144     A.U. after   11 cycles
 SCF Done:  E(RwB97XD) =  -1199.70181410     A.U. after   11 cycles
 SCF Done:  E(RwB97XD) =  -1199.70248028     A.U. after   11 cycles
 SCF Done:  E(RwB97XD) =  -1199.70313967     A.U. after   11 cycles
 SCF Done:  E(RwB97XD) =  -1199.70379193     A.U. after   11 cycles
 SCF Done:  E(RwB97XD) =  -1199.70443678     A.U. after   11 cycles

                          Input orientation:
 ---------------------------------------------------------------------
 Center     Atomic      Atomic             Coordinates (Angstroms)
 Number     Number       Type             X           Y           Z
 ---------------------------------------------------------------------
      1          6           0        1.229130    0.694951    0.785308
      2          6           0        0.451157   -0.551950    0.248612
      3          9           0        1.278975   -1.334866   -0.431675
      4          9           0       -0.053290   -1.210894    1.298647
      5         16           0       -1.013856    0.119689   -0.759305
      6          8           0       -3.242696   -0.473189   -0.640360
      7          8           0       -0.511860    0.703072   -2.001016
      8          8           0       -1.868257   -1.266374   -0.955562
      9          9           0        1.872232    1.301325   -0.200381
     10          9           0        0.378926    1.559850    1.342682
     11          9           0        2.107727    0.314699    1.705975
     12          1           0       -3.861517   -0.975559   -1.194282
 ---------------------------------------------------------------------

 Normal termination of Gaussian 16 at Fri May 23 05:04:01 2025.
