 Gaussian 16, Revision C.01,
 Gaussian 16:  ES64L-G16RevC.01  3-Jul-2019

 ----------------------------------------------------------------------
 #P wb97xd/6-311++G(d,p) Symm(None) scf(xqc) pop(None) opt(NoFreeze,TS,
 CalcAll,NoEigentest,MaxCycle=999)
 ----------------------------------------------------------------------

 ------------------------------
 Gaussian input prepared by ASE
 ------------------------------
 Symbolic Z-matrix:
 Charge =  0 Multiplicity = 1

 SCF Done:  E(RwB97XD) =  -1199.60060074     A.U. after   19 cycles
 SCF Done:  E(RwB97XD) =  -1199.66551232     A.U. after   16 cycles
 SCF Done:  E(RwB97XD) =  -1199.72696357     A.U. after   14 cycles
 SCF Done:  E(RwB97XD) =  -1199.78915719     A.U. after   14 cycles
 SCF Done:  E(RwB97XD) =  -1199.81760154     A.U. after   13 cycles
 SCF Done:  E(RwB97XD) =  -1199.82151372     A.U. after   13 cycles
 SCF Done:  E(RwB97XD) =  -1199.82200565     A.U. after   12 cycles
 SCF Done:  E(RwB97XD) =  -1199.82201503     A.U. after   10 cycles

 Isotropic polarizability for W=    0.000000       55.65 Bohr**3.
 End of Minotr F.D. properties file   721 does not exist.

 Optimization completed.
    -- Stationary point found.

                          Input orientation:
 ---------------------------------------------------------------------
 Center     Atomic      Atomic             Coordinates (Angstroms)
 Number     Number       Type             X           Y           Z
 ---------------------------------------------------------------------
      1          6           0       -0.870031   -0.143434    1.355114
      2          6           0       -0.020454    0.539994    0.212032
      3          9           0       -0.508883    0.202483   -0.977012
      4          9           0       -0.075152    1.870346    0.341445
      5         16           0        1.793674    0.068446    0.246428
      6          8           0        2.358152    0.621859    1.445638
      7          8           0        1.896474   -1.303064   -0.135996
      8          8           0        2.278961    0.941348   -1.008717
      9          9           0       -0.097859   -0.909277    2.118887
     10          9           0       -1.433340    0.783856    2.115803
     11          9           0       -1.819459   -0.896679    0.821528
     12          1           0        2.548341    1.822149   -0.716864
 ---------------------------------------------------------------------

 ******    1 imaginary frequencies (negative Signs) ******

                      1                      2                      3
                      A                      A                      A
 Frequencies --    -51.2324                73.1579               140.6473
 Red. masses --     17.8693                11.8371                12.4785
 Frc consts  --      0.0276                 0.0373                 0.1454
 IR Inten    --      0.1322                 2.1751                 2.1062

                      4                      5                      6
                      A                      A                      A
 Frequencies --    185.7876               237.4801               278.9254
 Red. masses --     11.2616                 8.4274                12.0393
 Frc consts  --      0.2290                 0.2800                 0.5519
 IR Inten    --      6.5591                 7.2560                 0.7871

                      7                      8                      9
                      A                      A                      A
 Frequencies --    281.4123               309.0796               335.0651
 Red. masses --     17.3978                 3.9701                17.7773
 Frc consts  --      0.8118                 0.2235                 1.1759
 IR Inten    --      4.9799                23.8674                 0.4435

                     10                     11                     12
                      A                      A                      A
 Frequencies --    350.0650               375.4287               430.9664
 Red. masses --      2.0976                16.5489                 4.2767
 Frc consts  --      0.1515                 1.3743                 0.4680
 IR Inten    --     51.7211                 0.5441                26.0622

                     13                     14                     15
                      A                      A                      A
 Frequencies --    485.0254               489.4465               542.2644
 Red. masses --     12.2365                 8.7264                17.9021
 Frc consts  --      1.6960                 1.2317                 3.1015
 IR Inten    --     33.8934                 5.0605                30.8962

                     16                     17                     18
                      A                      A                      A
 Frequencies --    595.5569               609.4129               656.4174
 Red. masses --     17.3591                19.9707                17.3383
 Frc consts  --      3.6276                 4.3698                 4.4017
 IR Inten    --      3.1127               113.8473                28.7069

                     19                     20                     21
                      A                      A                      A
 Frequencies --    765.1719               824.0818               996.8498
 Red. masses --     17.0355                17.1635                13.8612
 Frc consts  --      5.8766                 6.8674                 8.1154
 IR Inten    --     46.4898               220.2398                39.6541

                     22                     23                     24
                      A                      A                      A
 Frequencies --   1130.9988              1157.2740              1195.1958
 Red. masses --      1.1994                11.9513                16.1361
 Frc consts  --      0.9039                 9.4305                13.5809
 IR Inten    --    110.7549               278.8130                 3.6587

                     25                     26                     27
                      A                      A                      A
 Frequencies --   1219.6708              1250.6309              1255.3643
 Red. masses --     13.1722                13.1397                13.5406
 Frc consts  --     11.5450                12.1086                12.5727
 IR Inten    --    160.8210               247.5446               281.8715

                     28                     29                     30
                      A                      A                      A
 Frequencies --   1317.7599              1443.5833              3833.7555
 Red. masses --     12.7727                14.1740                 1.0663
 Frc consts  --     13.0679                17.4030                 9.2335
 IR Inten    --    110.0167               305.3057               163.4357

 - Thermochemistry -
 -------------------
 Temperature   298.150 Kelvin.  Pressure   1.00000 Atm.
 Atom     1 has atomic number  6 and mass  12.00000

 Molecular mass:   199.95666 amu.
 Principal axes and moments of inertia in atomic units:
                           1         2         3
     Eigenvalues --  1137.408842208.387462338.65449
           X            0.90902   0.37048   0.19088
           Y            0.09992  -0.63840   0.76319
           Z           -0.40460   0.67468   0.61733
 This molecule is an asymmetric top.
 Rotational symmetry number  1.
 Warning -- assumption of classical behavior for rotation
           may cause significant error
 Rotational temperatures (Kelvin)      0.07615     0.03922     0.03704
 Rotational constants (GHZ):           1.58671     0.81722     0.77170
    1 imaginary frequencies ignored.
 Zero-point vibrational energy     136173.8 (Joules/Mol)
                                   32.54631 (Kcal/Mol)
 Warning -- explicit consideration of  16 degrees of freedom as
           vibrations may cause significant error
 Vibrational temperatures:    105.26   202.36   267.31   341.68   401.31
          (Kelvin)            404.89   444.70   482.08   503.67   540.16
                              620.06   697.84   704.20   780.20   856.87
                              876.81   944.44  1100.91  1185.67  1434.24
                             1627.25  1665.06  1719.62  1754.83  1799.38
                             1806.19  1895.96  2076.99  5515.92

 Zero-point correction=                           0.051866 (Hartree/Particle)
 Thermal correction to Energy=                    0.061314
 Thermal correction to Enthalpy=                  0.062258
 Thermal correction to Gibbs Free Energy=         0.016815
 Sum of electronic and zero-point Energies=          -1199.770149
 Sum of electronic and thermal Energies=             -1199.760701
 Sum of electronic and thermal Enthalpies=           -1199.759757
 Sum of electronic and thermal Free Energies=        -1199.805200

                     E (Thermal)             CV                S
                      KCal/Mol        Cal/Mol-Kelvin    Cal/Mol-Kelvin
 Total                   38.475             34.516             95.644
 Electronic               0.000              0.000              0.000
 Translational            0.889              2.981             41.783
 Rotational               0.889              2.981             30.153
 Vibrational             36.698             28.554             23.707
 Vibration     1          0.599              1.967              4.067
 Vibration     2          0.615              1.913              2.795
 Vibration     3          0.632              1.859              2.269
 Vibration     4          0.656              1.783              1.822
 Vibration     5          0.679              1.713              1.540
 Vibration     6          0.681              1.708              1.525
 Vibration     7          0.698              1.656              1.367
 Vibration     8          0.716              1.605              1.236
 Vibration     9          0.727              1.575              1.166
 Vibration    10          0.746              1.522              1.058
 Vibration    11          0.792              1.403              0.856
 Vibration    12          0.841              1.283              0.697
 Vibration    13          0.845              1.273              0.685
 Vibration    14          0.897              1.157              0.560
 Vibration    15          0.953              1.041              0.457
 Vibration    16          0.968              1.012              0.434

 Normal termination of Gaussian 16 at Fri May 23 03:28:54 2025.
