 Gaussian 16, Revision C.01,
 Gaussian 16:  ES64L-G16RevC.01  3-Jul-2019

 ----------------------------------------------------------------------
 #P wb97xd/6-311++G(d,p) Symm(None) scf(xqc) pop(None) freq opt(CalcFC)
 ----------------------------------------------------------------------

 ------------------------------
 Gaussian input prepared by ASE
 ------------------------------
 Symbolic Z-matrix:
 Charge =  0 Multiplicity = 1

 SCF Done:  E(RwB97XD) =  -1199.60858696     A.U. after   16 cycles
 SCF Done:  E(RwB97XD) =  -1199.60869755     A.U. after   14 cycles
 SCF Done:  E(RwB97XD) =  -1199.60877531     A.U. after   13 cycles
 SCF Done:  E(RwB97XD) =  -1199.60981756     A.U. after   14 cycles
 SCF Done:  E(RwB97XD) =  -1199.60993096     A.U. after   14 cycles
 SCF Done:  E(RwB97XD) =  -1199.61048263     A.U. after   13 cycles
 SCF Done:  E(RwB97XD) =  -1199.61054025     A.U. after   13 cycles
 SCF Done:  E(RwB97XD) =  -1199.61056601     A.U. after   13 cycles
 SCF Done:  E(RwB97XD) =  -1199.61057328     A.U. after   12 cycles
 SCF Done:  E(RwB97XD) =  -1199.61057424     A.U. after   10 cycles
 SCF Done:  E(RwB97XD) =  -1199.61057424     A.U. after   11 cycles
 SCF Done:  E(RwB97XD) =  -1199.61057476     A.U. after   10 cycles
 SCF Done:  E(RwB97XD) =  -1199.61057479     A.U. after    8 cycles
 Optimization completed.
    -- Stationary point found.
 Normal termination of Gaussian 16 at Fri May 23 04:57:28 2025.

 ----------------------------------------------------------------------
 #P Geom=AllCheck Guess=TCheck SCRF=Check GenChk RwB97XD/6-311++G(d,p)
 Freq
 ----------------------------------------------------------------------

 Structure from the checkpoint file:  "2003846667223680600001_r13_insertion_ROR_3_2_5_6_IRC_R_prod.chk"
 ------------------------------
 Gaussian input prepared by ASE
 ------------------------------
 Charge =  0 Multiplicity = 1

                          Input orientation:
 ---------------------------------------------------------------------
 Center     Atomic      Atomic             Coordinates (Angstroms)
 Number     Number       Type             X           Y           Z
 ---------------------------------------------------------------------
      1          6           0        0.284058   -1.361742   -0.784542
      2          6           0        0.683369   -0.426394    0.320385
      3          9           0       -2.307001    0.750189   -0.089312
      4          9           0        0.963589   -1.071940    1.470451
      5         16           0        0.102747    1.090466    0.545328
      6          8           0       -1.536611    1.478552    0.838315
      7          8           0        0.678573    1.814306    1.636336
      8          8           0        0.120748    1.773420   -0.879765
      9          9           0        0.118513   -0.712579   -1.948155
     10          9           0        1.251450   -2.267659   -0.951128
     11          9           0       -0.845161   -2.035383   -0.535015
     12          1           0        0.925370    1.536036   -1.360643
 ---------------------------------------------------------------------

 SCF Done:  E(RwB97XD) =  -1199.61057479     A.U. after    1 cycles

 Isotropic polarizability for W=    0.000000       62.46 Bohr**3.
 End of Minotr F.D. properties file   721 does not exist.

                      1                      2                      3
                      A                      A                      A
 Frequencies --     39.2541                71.5812                93.1421
 Red. masses --     15.8282                17.2477                16.6733
 Frc consts  --      0.0144                 0.0521                 0.0852
 IR Inten    --      0.6249                 0.3034                 1.4803

                      4                      5                      6
                      A                      A                      A
 Frequencies --    171.5501               189.4530               201.5883
 Red. masses --      8.7656                12.4124                15.3721
 Frc consts  --      0.1520                 0.2625                 0.3681
 IR Inten    --      2.9344                13.4783                 2.0651

                      7                      8                      9
                      A                      A                      A
 Frequencies --    243.4840               307.2021               324.1338
 Red. masses --     17.1980                13.5351                17.4371
 Frc consts  --      0.6007                 0.7526                 1.0794
 IR Inten    --      3.6749                 1.3821                 4.7247

                     10                     11                     12
                      A                      A                      A
 Frequencies --    330.5592               351.0050               395.2119
 Red. masses --      4.6632                 1.5307                 6.6114
 Frc consts  --      0.3002                 0.1111                 0.6084
 IR Inten    --     13.9502                88.6128                32.5706

                     13                     14                     15
                      A                      A                      A
 Frequencies --    452.1755               463.6317               474.7941
 Red. masses --      8.5173                14.5645                17.3981
 Frc consts  --      1.0260                 1.8446                 2.3108
 IR Inten    --     20.6486                 1.3799                22.4235

                     16                     17                     18
                      A                      A                      A
 Frequencies --    554.9377               595.6696               603.7950
 Red. masses --     16.5671                16.1250                16.8711
 Frc consts  --      3.0060                 3.3710                 3.6239
 IR Inten    --     17.8001                 5.9587                10.1314

                     19                     20                     21
                      A                      A                      A
 Frequencies --    676.5829               765.0259               881.5552
 Red. masses --     14.1666                16.8782                17.6266
 Frc consts  --      3.8208                 5.8201                 8.0708
 IR Inten    --    233.1159                39.4434               160.7926

                     22                     23                     24
                      A                      A                      A
 Frequencies --    969.7455              1070.7878              1144.0068
 Red. masses --     16.9699                 5.5970                 1.3346
 Frc consts  --      9.4025                 3.7810                 1.0291
 IR Inten    --     14.5593                82.4928               181.7482

                     25                     26                     27
                      A                      A                      A
 Frequencies --   1174.2504              1193.8184              1257.1341
 Red. masses --     12.7433                12.8863                13.7225
 Frc consts  --     10.3527                10.8207                12.7775
 IR Inten    --    293.6418               298.8600                13.4171

                     28                     29                     30
                      A                      A                      A
 Frequencies --   1332.3355              1363.0537              3823.6558
 Red. masses --     12.3138                17.1610                 1.0660
 Frc consts  --     12.8787                18.7853                 9.1830
 IR Inten    --    450.1595               188.4641               161.7074

 - Thermochemistry -
 -------------------
 Temperature   298.150 Kelvin.  Pressure   1.00000 Atm.
 Atom     1 has atomic number  6 and mass  12.00000

 Molecular mass:   199.95666 amu.
 Principal axes and moments of inertia in atomic units:
                           1         2         3
     Eigenvalues --  1260.990722260.124042609.33720
           X           -0.26830   0.78317  -0.56095
           Y            0.88150  -0.03528  -0.47086
           Z            0.38855   0.62081   0.68089
 This molecule is an asymmetric top.
 Rotational symmetry number  1.
 Warning -- assumption of classical behavior for rotation
           may cause significant error
 Rotational temperatures (Kelvin)      0.06869     0.03832     0.03319
 Rotational constants (GHZ):           1.43121     0.79851     0.69165
 Zero-point vibrational energy     128689.0 (Joules/Mol)
                                   30.75741 (Kcal/Mol)
 Warning -- explicit consideration of  18 degrees of freedom as
           vibrations may cause significant error
 Vibrational temperatures:     56.48   102.99   134.01   246.82   272.58
          (Kelvin)            290.04   350.32   442.00   466.36   475.60
                              505.02   568.62   650.58   667.06   683.12
                              798.43   857.04   868.73   973.45  1100.70
                             1268.36  1395.25  1540.62  1645.97  1689.48
                             1717.64  1808.74  1916.93  1961.13  5501.39

 Zero-point correction=                           0.049015 (Hartree/Particle)
 Thermal correction to Energy=                    0.060033
 Thermal correction to Enthalpy=                  0.060977
 Thermal correction to Gibbs Free Energy=         0.011277
 Sum of electronic and zero-point Energies=          -1199.561560
 Sum of electronic and thermal Energies=             -1199.550542
 Sum of electronic and thermal Enthalpies=           -1199.549598
 Sum of electronic and thermal Free Energies=        -1199.599298

                     E (Thermal)             CV                S
                      KCal/Mol        Cal/Mol-Kelvin    Cal/Mol-Kelvin
 Total                   37.671             38.276            104.603
 Electronic               0.000              0.000              0.000
 Translational            0.889              2.981             41.783
 Rotational               0.889              2.981             30.387
 Vibrational             35.894             32.315             32.432
 Vibration     1          0.594              1.981              5.296
 Vibration     2          0.598              1.968              4.109
 Vibration     3          0.602              1.954              3.593
 Vibration     4          0.626              1.877              2.418
 Vibration     5          0.633              1.854              2.233
 Vibration     6          0.638              1.838              2.119
 Vibration     7          0.659              1.774              1.777
 Vibration     8          0.697              1.660              1.377
 Vibration     9          0.709              1.627              1.289
 Vibration    10          0.713              1.614              1.257
 Vibration    11          0.728              1.573              1.162
 Vibration    12          0.762              1.480              0.980
 Vibration    13          0.811              1.356              0.789
 Vibration    14          0.821              1.331              0.756
 Vibration    15          0.832              1.306              0.724
 Vibration    16          0.910              1.129              0.534
 Vibration    17          0.953              1.041              0.457
 Vibration    18          0.962              1.024              0.443

 Optimization completed.
    -- Stationary point found.
 Normal termination of Gaussian 16 at Fri May 23 04:58:42 2025.
