 Gaussian 16, Revision C.01,
 Gaussian 16:  ES64L-G16RevC.01  3-Jul-2019

 ----------------------------------------------------------------------
 #P wb97xd/6-311++G(d,p) Symm(None) scf(xqc) pop(None) freq opt(CalcFC)
 ----------------------------------------------------------------------

 ------------------------------
 Gaussian input prepared by ASE
 ------------------------------
 Symbolic Z-matrix:
 Charge =  0 Multiplicity = 1

 SCF Done:  E(RwB97XD) =  -1199.82304303     A.U. after   14 cycles
 SCF Done:  E(RwB97XD) =  -1199.82529713     A.U. after   12 cycles
 SCF Done:  E(RwB97XD) =  -1199.82576185     A.U. after   13 cycles
 SCF Done:  E(RwB97XD) =  -1199.82585503     A.U. after   11 cycles
 SCF Done:  E(RwB97XD) =  -1199.82594120     A.U. after   12 cycles
 SCF Done:  E(RwB97XD) =  -1199.82595202     A.U. after   13 cycles
 SCF Done:  E(RwB97XD) =  -1199.82600219     A.U. after   12 cycles
 SCF Done:  E(RwB97XD) =  -1199.82602811     A.U. after   11 cycles
 SCF Done:  E(RwB97XD) =  -1199.82604354     A.U. after   12 cycles
 SCF Done:  E(RwB97XD) =  -1199.82604474     A.U. after   10 cycles
 SCF Done:  E(RwB97XD) =  -1199.82604496     A.U. after   10 cycles
 SCF Done:  E(RwB97XD) =  -1199.82604498     A.U. after    9 cycles
 Optimization completed.
    -- Stationary point found.
 Normal termination of Gaussian 16 at Fri May 23 04:16:55 2025.

 ----------------------------------------------------------------------
 #P Geom=AllCheck Guess=TCheck SCRF=Check GenChk RwB97XD/6-311++G(d,p)
 Freq
 ----------------------------------------------------------------------

 Structure from the checkpoint file:  "2003846667223680600001_r12_insertion_R_1_2_3_IRC_F_prod.chk"
 ------------------------------
 Gaussian input prepared by ASE
 ------------------------------
 Charge =  0 Multiplicity = 1

                          Input orientation:
 ---------------------------------------------------------------------
 Center     Atomic      Atomic             Coordinates (Angstroms)
 Number     Number       Type             X           Y           Z
 ---------------------------------------------------------------------
      1          6           0       -1.284777   -0.319239    0.670277
      2          6           0       -0.395888    0.192024   -0.499119
      3          9           0       -0.725771   -0.451674   -1.615376
      4          9           0       -0.611162    1.504820   -0.664283
      5         16           0        1.443480   -0.040472   -0.213187
      6          8           0        1.775345    0.653284    0.999766
      7          8           0        1.763728   -1.408016   -0.463336
      8          8           0        1.979229    0.799748   -1.468758
      9          9           0       -0.984122   -1.579893    0.955503
     10          9           0       -1.111338    0.428300    1.749510
     11          9           0       -2.559696   -0.251270    0.300099
     12          1           0        2.069839    1.733115   -1.235659
 ---------------------------------------------------------------------

 SCF Done:  E(RwB97XD) =  -1199.82604498     A.U. after    1 cycles

 Isotropic polarizability for W=    0.000000       55.70 Bohr**3.
 End of Minotr F.D. properties file   721 does not exist.

                      1                      2                      3
                      A                      A                      A
 Frequencies --     25.7693                67.3216               131.1428
 Red. masses --     14.2332                14.4160                14.6857
 Frc consts  --      0.0056                 0.0385                 0.1488
 IR Inten    --      1.2693                 0.7418                 1.2820

                      4                      5                      6
                      A                      A                      A
 Frequencies --    193.5035               222.3987               234.2113
 Red. masses --      9.3661                17.9087                 8.1447
 Frc consts  --      0.2066                 0.5219                 0.2632
 IR Inten    --      8.1943                 1.2204                 9.4558

                      7                      8                      9
                      A                      A                      A
 Frequencies --    275.1603               311.3892               317.9984
 Red. masses --     15.3048                 5.3425                18.2120
 Frc consts  --      0.6827                 0.3052                 1.0851
 IR Inten    --      1.4456                15.2368                 0.3088

                     10                     11                     12
                      A                      A                      A
 Frequencies --    360.5161               371.4879               437.0300
 Red. masses --      1.8549                17.3428                 4.0054
 Frc consts  --      0.1420                 1.4101                 0.4507
 IR Inten    --     57.1929                 0.2761                31.8186

                     13                     14                     15
                      A                      A                      A
 Frequencies --    484.5364               489.4527               539.4219
 Red. masses --     13.4191                 8.2430                17.8354
 Frc consts  --      1.8562                 1.1635                 3.0577
 IR Inten    --     15.6921                19.7917                28.6800

                     16                     17                     18
                      A                      A                      A
 Frequencies --    600.4305               609.0875               653.7820
 Red. masses --     17.3844                20.1209                17.3499
 Frc consts  --      3.6926                 4.3980                 4.3693
 IR Inten    --      3.5507               118.3825                29.9987

                     19                     20                     21
                      A                      A                      A
 Frequencies --    764.7443               824.9929              1005.8012
 Red. masses --     17.1177                17.1475                13.8252
 Frc consts  --      5.8983                 6.8763                 8.2403
 IR Inten    --     41.5507               218.0803                52.8440

                     22                     23                     24
                      A                      A                      A
 Frequencies --   1130.9998              1157.8217              1201.5051
 Red. masses --      1.1954                12.1685                15.9903
 Frc consts  --      0.9009                 9.6111                13.6006
 IR Inten    --    108.3226               242.0607                 6.1714

                     25                     26                     27
                      A                      A                      A
 Frequencies --   1219.4898              1249.2816              1253.9883
 Red. masses --     13.1202                13.6871                13.1762
 Frc consts  --     11.4960                12.5859                12.2076
 IR Inten    --    110.8414               331.8433               259.1799

                     28                     29                     30
                      A                      A                      A
 Frequencies --   1345.0214              1443.6400              3833.2377
 Red. masses --     12.6421                14.2498                 1.0663
 Frc consts  --     13.4749                17.4976                 9.2309
 IR Inten    --    106.9940               313.7966               161.6841

 - Thermochemistry -
 -------------------
 Temperature   298.150 Kelvin.  Pressure   1.00000 Atm.
 Atom     1 has atomic number  6 and mass  12.00000

 Molecular mass:   199.95666 amu.
 Principal axes and moments of inertia in atomic units:
                           1         2         3
     Eigenvalues --  1133.385082197.936272320.57203
           X            0.93938   0.34060   0.03943
           Y            0.11669  -0.42571   0.89730
           Z           -0.32240   0.83831   0.43965
 This molecule is an asymmetric top.
 Rotational symmetry number  1.
 Warning -- assumption of classical behavior for rotation
           may cause significant error
 Rotational temperatures (Kelvin)      0.07642     0.03941     0.03732
 Rotational constants (GHZ):           1.59235     0.82111     0.77771
 Zero-point vibrational energy     136106.1 (Joules/Mol)
                                   32.53014 (Kcal/Mol)
 Warning -- explicit consideration of  17 degrees of freedom as
           vibrations may cause significant error
 Vibrational temperatures:     37.08    96.86   188.69   278.41   319.98
          (Kelvin)            336.98   395.89   448.02   457.53   518.70
                              534.49   628.79   697.14   704.21   776.11
                              863.89   876.34   940.65  1100.30  1186.98
                             1447.12  1627.26  1665.85  1728.70  1754.57
                             1797.44  1804.21  1935.19  2077.08  5515.17

 Zero-point correction=                           0.051840 (Hartree/Particle)
 Thermal correction to Energy=                    0.062286
 Thermal correction to Enthalpy=                  0.063231
 Thermal correction to Gibbs Free Energy=         0.014547
 Sum of electronic and zero-point Energies=          -1199.774205
 Sum of electronic and thermal Energies=             -1199.763759
 Sum of electronic and thermal Enthalpies=           -1199.762814
 Sum of electronic and thermal Free Energies=        -1199.811498

                     E (Thermal)             CV                S
                      KCal/Mol        Cal/Mol-Kelvin    Cal/Mol-Kelvin
 Total                   39.085             36.594            102.463
 Electronic               0.000              0.000              0.000
 Translational            0.889              2.981             41.783
 Rotational               0.889              2.981             30.137
 Vibrational             37.308             30.632             30.542
 Vibration     1          0.593              1.985              6.131
 Vibration     2          0.598              1.970              4.230
 Vibration     3          0.612              1.922              2.929
 Vibration     4          0.635              1.849              2.194
 Vibration     5          0.648              1.807              1.939
 Vibration     6          0.654              1.789              1.846
 Vibration     7          0.677              1.719              1.564
 Vibration     8          0.700              1.652              1.355
 Vibration     9          0.704              1.639              1.320
 Vibration    10          0.735              1.554              1.120
 Vibration    11          0.743              1.531              1.074
 Vibration    12          0.797              1.389              0.836
 Vibration    13          0.841              1.284              0.698
 Vibration    14          0.845              1.273              0.685
 Vibration    15          0.894              1.163              0.567
 Vibration    16          0.959              1.031              0.449
 Vibration    17          0.968              1.013              0.434

 Optimization completed.
    -- Stationary point found.
 Normal termination of Gaussian 16 at Fri May 23 04:18:20 2025.
