 Gaussian 16, Revision C.01,
 Gaussian 16:  ES64L-G16RevC.01  3-Jul-2019

 ----------------------------------------------------------------------
 #P wb97xd/6-311++G(d,p) Symm(None) scf(xqc) pop(None) opt(CalcAll,Cart
 esian)
 ----------------------------------------------------------------------

 ------------------------------
 Gaussian input prepared by ASE
 ------------------------------
 Symbolic Z-matrix:
 Charge =  0 Multiplicity = 1

 SCF Done:  E(RwB97XD) =  -1199.81367537     A.U. after   14 cycles
 SCF Done:  E(RwB97XD) =  -1199.81368332     A.U. after   12 cycles
 SCF Done:  E(RwB97XD) =  -1199.81368623     A.U. after   11 cycles
 SCF Done:  E(RwB97XD) =  -1199.81368628     A.U. after   10 cycles
 SCF Done:  E(RwB97XD) =  -1199.81368629     A.U. after    8 cycles

 Isotropic polarizability for W=    0.000000       53.79 Bohr**3.
 End of Minotr F.D. properties file   721 does not exist.

 Optimization completed.
    -- Stationary point found.

                          Input orientation:
 ---------------------------------------------------------------------
 Center     Atomic      Atomic             Coordinates (Angstroms)
 Number     Number       Type             X           Y           Z
 ---------------------------------------------------------------------
      1          6           0       -1.697806    0.014704    0.981020
      2          6           0       -1.035671    0.334499   -0.370064
      3          9           0       -0.189980   -0.688817   -0.681104
      4          9           0       -1.970585    0.410442   -1.326379
      5         16           0        2.506553   -0.229816   -0.532228
      6          8           0        2.690992   -1.069992    0.610752
      7          8           0        2.816251   -0.707838   -1.844754
      8          8           0        2.038786    1.116984   -0.357983
      9          9           0       -2.386488   -1.118664    0.933954
     10          9           0       -0.757240   -0.090356    1.920258
     11          9           0       -2.522988    1.007763    1.314832
     12          1           0       -0.462554    1.262683   -0.320624
 ---------------------------------------------------------------------

                      1                      2                      3
                      A                      A                      A
 Frequencies --     15.1179                24.1298                42.6390
 Red. masses --     15.1859                16.7867                17.2505
 Frc consts  --      0.0020                 0.0058                 0.0185
 IR Inten    --      0.1948                 0.0436                 0.4824

                      4                      5                      6
                      A                      A                      A
 Frequencies --     59.7185                70.8220                96.6824
 Red. masses --     16.5862                16.8688                12.8601
 Frc consts  --      0.0349                 0.0499                 0.0708
 IR Inten    --      0.5026                 0.7323                 2.1104

                      7                      8                      9
                      A                      A                      A
 Frequencies --    149.7639               216.5441               251.6278
 Red. masses --     13.9386                18.5795                14.3899
 Frc consts  --      0.1842                 0.5133                 0.5368
 IR Inten    --      2.5747                 1.8330                 4.8878

                     10                     11                     12
                      A                      A                      A
 Frequencies --    363.5661               419.2043               477.7345
 Red. masses --     17.7272                15.3888                22.6621
 Frc consts  --      1.3806                 1.5933                 3.0474
 IR Inten    --      0.1706                 0.5227                72.3510

                     13                     14                     15
                      A                      A                      A
 Frequencies --    515.6580               516.6748               526.1874
 Red. masses --     17.2811                17.3284                15.3426
 Frc consts  --      2.7074                 2.7255                 2.5028
 IR Inten    --     27.4791                29.1872                11.9701

                     16                     17                     18
                      A                      A                      A
 Frequencies --    583.0165               586.5401               728.9739
 Red. masses --     10.1796                16.3467                12.1747
 Frc consts  --      2.0387                 3.3134                 3.8118
 IR Inten    --     13.6203                 1.3093                42.4578

                     19                     20                     21
                      A                      A                      A
 Frequencies --    874.2289              1075.6573              1105.1878
 Red. masses --      6.1632                15.9974                 7.7481
 Frc consts  --      2.7753                10.9056                 5.5760
 IR Inten    --     47.2335                 0.5985               189.6261

                     22                     23                     24
                      A                      A                      A
 Frequencies --   1170.7015              1206.8237              1227.0324
 Red. masses --      6.6911                 4.7711                12.9892
 Frc consts  --      5.4031                 4.0941                11.5224
 IR Inten    --    141.2549               195.5084               414.7444

                     25                     26                     27
                      A                      A                      A
 Frequencies --   1319.3023              1379.6916              1394.5773
 Red. masses --      3.4835                 3.6116                 1.6051
 Frc consts  --      3.5724                 4.0506                 1.8392
 IR Inten    --    171.6939               179.8883                79.0281

                     28                     29                     30
                      A                      A                      A
 Frequencies --   1403.1659              1457.2055              3135.7881
 Red. masses --     20.5521                 2.1628                 1.0894
 Frc consts  --     23.8410                 2.7059                 6.3113
 IR Inten    --    229.9827                 2.1856                 5.6866

 - Thermochemistry -
 -------------------
 Temperature   298.150 Kelvin.  Pressure   1.00000 Atm.
 Atom     1 has atomic number  6 and mass  12.00000

 Molecular mass:   199.95666 amu.
 Principal axes and moments of inertia in atomic units:
                           1         2         3
     Eigenvalues --  1005.157873696.677754017.43146
           X            0.95416   0.27202   0.12483
           Y           -0.08492  -0.15387   0.98444
           Z           -0.28700   0.94991   0.12372
 This molecule is an asymmetric top.
 Rotational symmetry number  1.
 Warning -- assumption of classical behavior for rotation
           may cause significant error
 Rotational temperatures (Kelvin)      0.08617     0.02343     0.02156
 Rotational constants (GHZ):           1.79548     0.48821     0.44923
 Zero-point vibrational energy     133945.6 (Joules/Mol)
                                   32.01378 (Kcal/Mol)
 Warning -- explicit consideration of  17 degrees of freedom as
           vibrations may cause significant error
 Vibrational temperatures:     21.75    34.72    61.35    85.92   101.90
          (Kelvin)            139.10   215.48   311.56   362.04   523.09
                              603.14   687.35   741.92   743.38   757.07
                              838.83   843.90  1048.83  1257.82  1547.63
                             1590.12  1684.38  1736.35  1765.43  1898.18
                             1985.07  2006.49  2018.84  2096.59  4511.70

 Zero-point correction=                           0.051017 (Hartree/Particle)
 Thermal correction to Energy=                    0.062660
 Thermal correction to Enthalpy=                  0.063604
 Thermal correction to Gibbs Free Energy=         0.008381
 Sum of electronic and zero-point Energies=          -1199.762669
 Sum of electronic and thermal Energies=             -1199.751026
 Sum of electronic and thermal Enthalpies=           -1199.750082
 Sum of electronic and thermal Free Energies=        -1199.805306

                     E (Thermal)             CV                S
                      KCal/Mol        Cal/Mol-Kelvin    Cal/Mol-Kelvin
 Total                   39.320             36.362            116.228
 Electronic               0.000              0.000              0.000
 Translational            0.889              2.981             41.783
 Rotational               0.889              2.981             31.080
 Vibrational             37.542             30.400             43.365
 Vibration     1          0.593              1.986              7.190
 Vibration     2          0.593              1.985              6.262
 Vibration     3          0.595              1.980              5.133
 Vibration     4          0.597              1.974              4.466
 Vibration     5          0.598              1.968              4.130
 Vibration     6          0.603              1.952              3.520
 Vibration     7          0.618              1.903              2.675
 Vibration     8          0.645              1.816              1.988
 Vibration     9          0.664              1.760              1.719
 Vibration    10          0.737              1.547              1.107
 Vibration    11          0.782              1.429              0.895
 Vibration    12          0.834              1.299              0.716
 Vibration    13          0.871              1.215              0.620
 Vibration    14          0.872              1.213              0.618
 Vibration    15          0.881              1.192              0.596
 Vibration    16          0.940              1.068              0.480
 Vibration    17          0.944              1.061              0.473

 Normal termination of Gaussian 16 at Fri May 23 04:32:39 2025.
