 Gaussian 16, Revision C.01,
 Gaussian 16:  ES64L-G16RevC.01  3-Jul-2019

 ----------------------------------------------------------------------
 #P wb97xd/6-311++G(d,p) Symm(None) scf(xqc) pop(None) freq opt(CalcFC,
  Tight)
 ----------------------------------------------------------------------

 ------------------------------
 Gaussian input prepared by ASE
 ------------------------------
 Symbolic Z-matrix:
 Charge =  0 Multiplicity = 1

 SCF Done:  E(RwB97XD) =  -1199.60933829     A.U. after   18 cycles
 SCF Done:  E(RwB97XD) =  -1199.60933829     A.U. after    8 cycles
 Optimization completed.
    -- Stationary point found.
 Normal termination of Gaussian 16 at Fri May 23 07:26:34 2025.

 ----------------------------------------------------------------------
 #P Geom=AllCheck Guess=TCheck SCRF=Check GenChk RwB97XD/6-311++G(d,p)
 Freq
 ----------------------------------------------------------------------

 Structure from the checkpoint file:  "2003716027184320770001_well.chk"
 ------------------------------
 Gaussian input prepared by ASE
 ------------------------------
 Charge =  0 Multiplicity = 1

                          Input orientation:
 ---------------------------------------------------------------------
 Center     Atomic      Atomic             Coordinates (Angstroms)
 Number     Number       Type             X           Y           Z
 ---------------------------------------------------------------------
      1          6           0       -1.276351   -0.460801    0.609649
      2          6           0       -0.275966    0.166386   -0.385337
      3          9           0       -0.678575    0.008476   -1.620799
      4          9           0       -0.329928    1.589911   -0.158745
      5         16           0        1.569918   -0.435723   -0.200214
      6          8           0        0.850059    2.124289    0.832142
      7          8           0        1.584083   -1.622197   -1.042058
      8          8           0        2.157601    0.778765   -1.122433
      9          9           0       -1.318375   -1.770473    0.395810
     10          9           0       -0.879058   -0.234773    1.854442
     11          9           0       -2.491340    0.046297    0.439384
     12          1           0        2.122445    1.590772   -0.580803
 ---------------------------------------------------------------------

 SCF Done:  E(RwB97XD) =  -1199.60933829     A.U. after    1 cycles

 Isotropic polarizability for W=    0.000000       61.60 Bohr**3.
 End of Minotr F.D. properties file   721 does not exist.

                      1                      2                      3
                      A                      A                      A
 Frequencies --     40.4332                54.7148               105.9272
 Red. masses --     18.0898                12.7183                13.9558
 Frc consts  --      0.0174                 0.0224                 0.0923
 IR Inten    --      0.3522                 1.1114                 4.0131

                      4                      5                      6
                      A                      A                      A
 Frequencies --    128.8556               194.8993               206.7457
 Red. masses --     15.1116                16.0051                17.3906
 Frc consts  --      0.1478                 0.3582                 0.4380
 IR Inten    --      5.5372                 6.7377                 3.0245

                      7                      8                      9
                      A                      A                      A
 Frequencies --    231.9653               248.2286               272.1232
 Red. masses --     14.4522                14.6805                17.3167
 Frc consts  --      0.4582                 0.5330                 0.7555
 IR Inten    --      1.7466                14.0853                 0.4895

                     10                     11                     12
                      A                      A                      A
 Frequencies --    296.9544               345.3672               401.4448
 Red. masses --     10.0904                16.7897                12.4187
 Frc consts  --      0.5242                 1.1799                 1.1792
 IR Inten    --      7.9833                 5.3753                12.5243

                     13                     14                     15
                      A                      A                      A
 Frequencies --    428.8090               466.5255               533.8486
 Red. masses --     12.8342                13.7678                16.2768
 Frc consts  --      1.3904                 1.7655                 2.7331
 IR Inten    --      1.9402                 1.2920                20.6249

                     16                     17                     18
                      A                      A                      A
 Frequencies --    564.8335               588.1979               614.4175
 Red. masses --     16.1434                12.7921                 1.4635
 Frc consts  --      3.0345                 2.6076                 0.3255
 IR Inten    --     12.3655                99.7713                95.5995

                     19                     20                     21
                      A                      A                      A
 Frequencies --    635.3276               744.5614               767.2044
 Red. masses --      4.2657                15.0463                12.2976
 Frc consts  --      1.0145                 4.9145                 4.2648
 IR Inten    --     76.6877                 7.2951               118.5478

                     22                     23                     24
                      A                      A                      A
 Frequencies --    922.1991               959.8308              1144.7135
 Red. masses --     12.5377                13.1829                 1.2613
 Frc consts  --      6.2823                 7.1557                 0.9737
 IR Inten    --    117.8733               106.6057               117.7637

                     25                     26                     27
                      A                      A                      A
 Frequencies --   1228.2400              1239.9864              1249.5687
 Red. masses --     11.8873                12.7769                12.9145
 Frc consts  --     10.5657                11.5747                11.8809
 IR Inten    --    165.6952                93.3430               209.1835

                     28                     29                     30
                      A                      A                      A
 Frequencies --   1265.9024              1364.9243              3643.0335
 Red. masses --      9.5241                12.7985                 1.0651
 Frc consts  --      8.9924                14.0484                 8.3288
 IR Inten    --    438.6612               128.4262               230.7173

 - Thermochemistry -
 -------------------
 Temperature   298.150 Kelvin.  Pressure   1.00000 Atm.
 Atom     1 has atomic number  6 and mass  12.00000

 Molecular mass:   199.95666 amu.
 Principal axes and moments of inertia in atomic units:
                           1         2         3
     Eigenvalues --  1326.732182083.076472510.87144
           X            0.91933  -0.04757   0.39060
           Y            0.14491   0.96383  -0.22370
           Z           -0.36583   0.26226   0.89297
 This molecule is an asymmetric top.
 Rotational symmetry number  1.
 Warning -- assumption of classical behavior for rotation
           may cause significant error
 Rotational temperatures (Kelvin)      0.06528     0.04158     0.03450
 Rotational constants (GHZ):           1.36029     0.86638     0.71877
 Zero-point vibrational energy     124948.7 (Joules/Mol)
                                   29.86344 (Kcal/Mol)
 Warning -- explicit consideration of  18 degrees of freedom as
           vibrations may cause significant error
 Vibrational temperatures:     58.17    78.72   152.41   185.39   280.42
          (Kelvin)            297.46   333.75   357.15   391.52   427.25
                              496.91   577.59   616.96   671.23   768.09
                              812.67   846.29   884.01   914.09  1071.26
                             1103.84  1326.84  1380.98  1646.99  1767.16
                             1784.06  1797.85  1821.35  1963.82  5241.51

 Zero-point correction=                           0.047590 (Hartree/Particle)
 Thermal correction to Energy=                    0.058918
 Thermal correction to Enthalpy=                  0.059862
 Thermal correction to Gibbs Free Energy=         0.009385
 Sum of electronic and zero-point Energies=          -1199.561748
 Sum of electronic and thermal Energies=             -1199.550421
 Sum of electronic and thermal Enthalpies=           -1199.549476
 Sum of electronic and thermal Free Energies=        -1199.599953

                     E (Thermal)             CV                S
                      KCal/Mol        Cal/Mol-Kelvin    Cal/Mol-Kelvin
 Total                   36.971             38.925            106.237
 Electronic               0.000              0.000              0.000
 Translational            0.889              2.981             41.783
 Rotational               0.889              2.981             30.318
 Vibrational             35.194             32.964             34.135
 Vibration     1          0.594              1.981              5.238
 Vibration     2          0.596              1.976              4.639
 Vibration     3          0.605              1.944              3.342
 Vibration     4          0.611              1.924              2.963
 Vibration     5          0.636              1.847              2.181
 Vibration     6          0.641              1.830              2.072
 Vibration     7          0.653              1.792              1.864
 Vibration     8          0.662              1.766              1.743
 Vibration     9          0.675              1.725              1.583
 Vibration    10          0.691              1.679              1.434
 Vibration    11          0.724              1.585              1.187
 Vibration    12          0.767              1.467              0.957
 Vibration    13          0.790              1.408              0.863
 Vibration    14          0.824              1.324              0.747
 Vibration    15          0.889              1.175              0.579
 Vibration    16          0.921              1.107              0.514
 Vibration    17          0.945              1.057              0.470
 Vibration    18          0.974              1.001              0.426

 Optimization completed.
    -- Stationary point found.
 Normal termination of Gaussian 16 at Fri May 23 07:27:51 2025.
