 Gaussian 16, Revision C.01,
 Gaussian 16:  ES64L-G16RevC.01  3-Jul-2019

 ------------------------------------------------------------------
 #P mp2/6-31G Symm(None) scf(xqc) pop(None) freq opt(CalcFC, Tight)
 ------------------------------------------------------------------

 ------------------------------
 Gaussian input prepared by ASE
 ------------------------------
 Symbolic Z-matrix:
 Charge =  0 Multiplicity = 1

 SCF Done:  E(RHF) =  -1194.91332209     A.U. after   14 cycles
 E2 =    -0.1239236047D+01 EUMP2 =    -0.11961525581383D+04
 E2 =    -0.1239236047D+01 EUMP2 =    -0.11961525581383D+04
 SCF Done:  E(RHF) =  -1194.96229350     A.U. after   14 cycles
 E2 =    -0.1264481231D+01 EUMP2 =    -0.11962267747304D+04
 SCF Done:  E(RHF) =  -1194.96109659     A.U. after   17 cycles
 E2 =    -0.1292812915D+01 EUMP2 =    -0.11962539095065D+04
 SCF Done:  E(RHF) =  -1194.96439892     A.U. after   15 cycles
 E2 =    -0.1290640751D+01 EUMP2 =    -0.11962550396692D+04
 SCF Done:  E(RHF) =  -1194.96731493     A.U. after   17 cycles
 E2 =    -0.1288344265D+01 EUMP2 =    -0.11962556591979D+04
 SCF Done:  E(RHF) =  -1194.96751830     A.U. after   16 cycles
 E2 =    -0.1288489841D+01 EUMP2 =    -0.11962560081377D+04
 SCF Done:  E(RHF) =  -1194.96566817     A.U. after   15 cycles
 E2 =    -0.1290512552D+01 EUMP2 =    -0.11962561807197D+04
 SCF Done:  E(RHF) =  -1194.96566763     A.U. after   15 cycles
 E2 =    -0.1290832277D+01 EUMP2 =    -0.11962564999069D+04
 SCF Done:  E(RHF) =  -1194.96558365     A.U. after   14 cycles
 E2 =    -0.1291054627D+01 EUMP2 =    -0.11962566382732D+04
 SCF Done:  E(RHF) =  -1194.96588880     A.U. after   14 cycles
 E2 =    -0.1290777507D+01 EUMP2 =    -0.11962566663044D+04
 SCF Done:  E(RHF) =  -1194.96598567     A.U. after   12 cycles
 E2 =    -0.1290699905D+01 EUMP2 =    -0.11962566855745D+04
 SCF Done:  E(RHF) =  -1194.96611550     A.U. after   14 cycles
 E2 =    -0.1290586828D+01 EUMP2 =    -0.11962567023298D+04
 SCF Done:  E(RHF) =  -1194.96614401     A.U. after   12 cycles
 E2 =    -0.1290559644D+01 EUMP2 =    -0.11962567036506D+04
 SCF Done:  E(RHF) =  -1194.96614492     A.U. after   11 cycles
 E2 =    -0.1290558914D+01 EUMP2 =    -0.11962567038354D+04
 SCF Done:  E(RHF) =  -1194.96615210     A.U. after   10 cycles
 E2 =    -0.1290551774D+01 EUMP2 =    -0.11962567038762D+04
 SCF Done:  E(RHF) =  -1194.96615560     A.U. after    8 cycles
 E2 =    -0.1290548281D+01 EUMP2 =    -0.11962567038779D+04
 SCF Done:  E(RHF) =  -1194.96615835     A.U. after    8 cycles
 E2 =    -0.1290545524D+01 EUMP2 =    -0.11962567038792D+04
 SCF Done:  E(RHF) =  -1194.96615908     A.U. after    8 cycles
 E2 =    -0.1290544799D+01 EUMP2 =    -0.11962567038811D+04
 Optimization completed.
    -- Stationary point found.
 Normal termination of Gaussian 16 at Fri May 23 01:51:53 2025.

 -------------------------------------------------------------------
 #P Geom=AllCheck Guess=TCheck SCRF=Check GenChk RMP2(FC)/6-31G Freq
 -------------------------------------------------------------------

 Structure from the checkpoint file:  "2003846667223680600001_well_mp2.chk"
 ------------------------------
 Gaussian input prepared by ASE
 ------------------------------
 Charge =  0 Multiplicity = 1

                          Input orientation:
 ---------------------------------------------------------------------
 Center     Atomic      Atomic             Coordinates (Angstroms)
 Number     Number       Type             X           Y           Z
 ---------------------------------------------------------------------
      1          6           0        1.544705    0.217292    0.083806
      2          6           0        0.405167   -0.634897   -0.503775
      3          9           0        0.300954   -0.453315   -1.875007
      4          9           0        0.632152   -1.979997   -0.199422
      5         16           0       -1.439004   -0.326917    0.214416
      6          8           0       -2.495159   -0.722633   -0.909391
      7          8           0       -1.565004   -0.899536    1.693937
      8          8           0       -1.145860    1.464556    0.219335
      9          9           0        1.574963    1.483708   -0.471470
     10          9           0        1.397887    0.311454    1.464185
     11          9           0        2.760964   -0.412144   -0.190476
     12          1           0       -1.971766    1.952429    0.473865
 ---------------------------------------------------------------------

 SCF Done:  E(RHF) =  -1194.96615908     A.U. after    1 cycles
 E2 =    -0.1290544799D+01 EUMP2 =    -0.11962567038809D+04
 E2 =    -0.1290544799D+01 EUMP2 =    -0.11962567038809D+04

                      1                      2                      3
                      A                      A                      A
 Frequencies --     39.1836                64.7483               126.8443
 Red. masses --     12.6867                18.3319                 6.8555
 Frc consts  --      0.0115                 0.0453                 0.0650
 IR Inten    --      0.8073                 0.0761                18.4124

                      4                      5                      6
                      A                      A                      A
 Frequencies --    144.6663               158.5062               190.0142
 Red. masses --      2.3550                 4.5684                 3.7634
 Frc consts  --      0.0290                 0.0676                 0.0801
 IR Inten    --     43.3748                14.0315                26.3317

                      7                      8                      9
                      A                      A                      A
 Frequencies --    216.7238               221.5171               272.2198
 Red. masses --     13.8074                14.4583                 7.5632
 Frc consts  --      0.3821                 0.4180                 0.3302
 IR Inten    --      9.1928                 4.5218                23.9228

                     10                     11                     12
                      A                      A                      A
 Frequencies --    291.5870               340.2201               353.8189
 Red. masses --     16.1320                16.6496                11.7430
 Frc consts  --      0.8081                 1.1355                 0.8662
 IR Inten    --      2.3312                 7.1372                50.2679

                     13                     14                     15
                      A                      A                      A
 Frequencies --    373.6793               416.7754               450.7143
 Red. masses --     12.9031                17.4636                14.3162
 Frc consts  --      1.0616                 1.7873                 1.7135
 IR Inten    --     13.0978                 1.3131               103.3786

                     16                     17                     18
                      A                      A                      A
 Frequencies --    494.9070               556.0876               580.0219
 Red. masses --     16.3341                17.6309                16.8641
 Frc consts  --      2.3572                 3.2123                 3.3427
 IR Inten    --     11.5154                 4.4442                34.1466

                     19                     20                     21
                      A                      A                      A
 Frequencies --    625.0629               689.5326               901.3397
 Red. masses --     18.1965                16.9700                12.0366
 Frc consts  --      4.1888                 4.7538                 5.7614
 IR Inten    --    134.4795                33.7299               128.8790

                     22                     23                     24
                      A                      A                      A
 Frequencies --    979.7829              1084.1357              1097.4726
 Red. masses --      8.3335                13.6780                 1.2908
 Frc consts  --      4.7134                 9.4720                 0.9160
 IR Inten    --     51.4552               120.7263               119.3285

                     25                     26                     27
                      A                      A                      A
 Frequencies --   1125.5420              1187.7101              1188.5767
 Red. masses --     17.8678                11.2925                11.3941
 Frc consts  --     13.3366                 9.3856                 9.4839
 IR Inten    --    128.3570               161.5559               154.2777

                     28                     29                     30
                      A                      A                      A
 Frequencies --   1227.1297              1303.0721              3530.7268
 Red. masses --     13.0450                12.3410                 1.0663
 Frc consts  --     11.5738                12.3463                 7.8319
 IR Inten    --    181.8389               167.9975               102.2437

 - Thermochemistry -
 -------------------
 Temperature   298.150 Kelvin.  Pressure   1.00000 Atm.
 Atom     1 has atomic number  6 and mass  12.00000

 Molecular mass:   199.95666 amu.
 Principal axes and moments of inertia in atomic units:
                           1         2         3
     Eigenvalues --  1276.866522381.670892497.38401
           X            0.98911  -0.06752   0.13074
           Y            0.13698   0.74700  -0.65056
           Z           -0.05374   0.66139   0.74812
 This molecule is an asymmetric top.
 Rotational symmetry number  1.
 Warning -- assumption of classical behavior for rotation
           may cause significant error
 Rotational temperatures (Kelvin)      0.06783     0.03637     0.03468
 Rotational constants (GHZ):           1.41341     0.75776     0.72265
 Zero-point vibrational energy     121016.1 (Joules/Mol)
                                   28.92355 (Kcal/Mol)
 Warning -- explicit consideration of  18 degrees of freedom as
           vibrations may cause significant error
 Vibrational temperatures:     56.38    93.16   182.50   208.14   228.06
          (Kelvin)            273.39   311.82   318.71   391.66   419.53
                              489.50   509.07   537.64   599.65   648.48
                              712.06   800.09   834.52   899.33   992.08
                             1296.83  1409.69  1559.83  1579.02  1619.40
                             1708.85  1710.10  1765.57  1874.83  5079.93

 Zero-point correction=                           0.046093 (Hartree/Particle)
 Thermal correction to Energy=                    0.057779
 Thermal correction to Enthalpy=                  0.058723
 Thermal correction to Gibbs Free Energy=         0.007683
 Sum of electronic and zero-point Energies=          -1196.210611
 Sum of electronic and thermal Energies=             -1196.198925
 Sum of electronic and thermal Enthalpies=           -1196.197981
 Sum of electronic and thermal Free Energies=        -1196.249021

                     E (Thermal)             CV                S
                      KCal/Mol        Cal/Mol-Kelvin    Cal/Mol-Kelvin
 Total                   36.257             39.799            107.422
 Electronic               0.000              0.000              0.000
 Translational            0.889              2.981             41.783
 Rotational               0.889              2.981             30.408
 Vibrational             34.479             33.837             35.230
 Vibration     1          0.594              1.981              5.300
 Vibration     2          0.597              1.971              4.307
 Vibration     3          0.611              1.926              2.993
 Vibration     4          0.616              1.908              2.741
 Vibration     5          0.621              1.893              2.568
 Vibration     6          0.633              1.854              2.228
 Vibration     7          0.646              1.816              1.986
 Vibration     8          0.648              1.808              1.947
 Vibration     9          0.675              1.724              1.582
 Vibration    10          0.687              1.689              1.465
 Vibration    11          0.720              1.595              1.211
 Vibration    12          0.730              1.567              1.149
 Vibration    13          0.745              1.526              1.065
 Vibration    14          0.780              1.434              0.903
 Vibration    15          0.809              1.359              0.794
 Vibration    16          0.851              1.261              0.671
 Vibration    17          0.912              1.126              0.532
 Vibration    18          0.937              1.075              0.485

 Optimization completed.
    -- Stationary point found.
 Normal termination of Gaussian 16 at Fri May 23 01:52:22 2025.
