 Gaussian 16, Revision C.01,
 Gaussian 16:  ES64L-G16RevC.01  3-Jul-2019

 ----------------------------------------------------------------------
 #P wb97xd/6-311++G(d,p) Symm(None) scf(xqc) pop(None) freq opt(CalcFC)
 ----------------------------------------------------------------------

 ------------------------------
 Gaussian input prepared by ASE
 ------------------------------
 Symbolic Z-matrix:
 Charge =  0 Multiplicity = 1

 SCF Done:  E(RwB97XD) =  -1199.60850015     A.U. after   21 cycles
 SCF Done:  E(RwB97XD) =  -1199.60853500     A.U. after   17 cycles
 SCF Done:  E(RwB97XD) =  -1199.60855641     A.U. after   19 cycles
 SCF Done:  E(RwB97XD) =  -1199.60867089     A.U. after   17 cycles
 SCF Done:  E(RwB97XD) =  -1199.60696740     A.U. after   17 cycles
 SCF Done:  E(RwB97XD) =  -1199.60882824     A.U. after   19 cycles
 SCF Done:  E(RwB97XD) =  -1199.60765239     A.U. after   19 cycles
 SCF Done:  E(RwB97XD) =  -1199.60916593     A.U. after   16 cycles
 SCF Done:  E(RwB97XD) =  -1199.60924173     A.U. after   16 cycles
 SCF Done:  E(RwB97XD) =  -1199.60930536     A.U. after   18 cycles
 SCF Done:  E(RwB97XD) =  -1199.60933528     A.U. after   17 cycles
 SCF Done:  E(RwB97XD) =  -1199.60933816     A.U. after   14 cycles
 SCF Done:  E(RwB97XD) =  -1199.60933821     A.U. after   11 cycles
 SCF Done:  E(RwB97XD) =  -1199.60933829     A.U. after   11 cycles
 Optimization completed.
    -- Stationary point found.
 Normal termination of Gaussian 16 at Fri May 23 07:22:11 2025.

 ----------------------------------------------------------------------
 #P Geom=AllCheck Guess=TCheck SCRF=Check GenChk RwB97XD/6-311++G(d,p)
 Freq
 ----------------------------------------------------------------------

 Structure from the checkpoint file:  "2003846667223680600001_r12_insertion_R_2_5_6_IRC_F_prod.chk"
 ------------------------------
 Gaussian input prepared by ASE
 ------------------------------
 Charge =  0 Multiplicity = 1

                          Input orientation:
 ---------------------------------------------------------------------
 Center     Atomic      Atomic             Coordinates (Angstroms)
 Number     Number       Type             X           Y           Z
 ---------------------------------------------------------------------
      1          6           0       -1.276360   -0.460826    0.609633
      2          6           0       -0.275965    0.166401   -0.385316
      3          9           0       -0.678565    0.008568   -1.620789
      4          9           0       -0.329934    1.589913   -0.158623
      5         16           0        1.569912   -0.435740   -0.200204
      6          8           0        0.850165    2.124397    0.832074
      7          8           0        1.584059   -1.622224   -1.042032
      8          8           0        2.157597    0.778730   -1.122440
      9          9           0       -1.318323   -1.770501    0.395805
     10          9           0       -0.879108   -0.234764    1.854433
     11          9           0       -2.491365    0.046218    0.439329
     12          1           0        2.122400    1.590756   -0.580833
 ---------------------------------------------------------------------

 SCF Done:  E(RwB97XD) =  -1199.60933829     A.U. after    1 cycles

 Isotropic polarizability for W=    0.000000       61.60 Bohr**3.
 End of Minotr F.D. properties file   721 does not exist.

                      1                      2                      3
                      A                      A                      A
 Frequencies --     40.4357                54.7084               105.9111
 Red. masses --     18.0881                12.7207                13.9545
 Frc consts  --      0.0174                 0.0224                 0.0922
 IR Inten    --      0.3525                 1.1095                 4.0146

                      4                      5                      6
                      A                      A                      A
 Frequencies --    128.8513               194.8970               206.7381
 Red. masses --     15.1159                16.0070                17.3903
 Frc consts  --      0.1479                 0.3582                 0.4379
 IR Inten    --      5.5336                 6.7341                 3.0234

                      7                      8                      9
                      A                      A                      A
 Frequencies --    231.9552               248.2369               272.1184
 Red. masses --     14.4556                14.6805                17.3160
 Frc consts  --      0.4582                 0.5330                 0.7555
 IR Inten    --      1.7440                14.0849                 0.4896

                     10                     11                     12
                      A                      A                      A
 Frequencies --    296.9610               345.3685               401.4480
 Red. masses --     10.0916                16.7898                12.4210
 Frc consts  --      0.5243                 1.1799                 1.1794
 IR Inten    --      7.9860                 5.3757                12.5258

                     13                     14                     15
                      A                      A                      A
 Frequencies --    428.8098               466.5271               533.8486
 Red. masses --     12.8333                13.7670                16.2800
 Frc consts  --      1.3903                 1.7654                 2.7336
 IR Inten    --      1.9408                 1.2918                20.6354

                     16                     17                     18
                      A                      A                      A
 Frequencies --    564.8296               588.2001               614.4722
 Red. masses --     16.1464                12.8146                 1.4653
 Frc consts  --      3.0350                 2.6122                 0.3260
 IR Inten    --     12.3699                99.6854                95.4818

                     19                     20                     21
                      A                      A                      A
 Frequencies --    635.3379               744.5609               767.2083
 Red. masses --      4.2464                15.0458                12.2977
 Frc consts  --      1.0099                 4.9144                 4.2648
 IR Inten    --     76.8785                 7.2967               118.5461

                     22                     23                     24
                      A                      A                      A
 Frequencies --    922.1830               959.8315              1144.7401
 Red. masses --     12.5375                13.1831                 1.2613
 Frc consts  --      6.2820                 7.1558                 0.9738
 IR Inten    --    117.8847               106.5842               117.7574

                     25                     26                     27
                      A                      A                      A
 Frequencies --   1228.2430              1239.9897              1249.5672
 Red. masses --     11.8864                12.7769                12.9142
 Frc consts  --     10.5650                11.5747                11.8806
 IR Inten    --    165.7180                93.3875               209.1422

                     28                     29                     30
                      A                      A                      A
 Frequencies --   1265.9066              1364.9270              3642.9884
 Red. masses --      9.5227                12.7984                 1.0651
 Frc consts  --      8.9911                14.0483                 8.3286
 IR Inten    --    438.6371               128.4372               230.7631

 - Thermochemistry -
 -------------------
 Temperature   298.150 Kelvin.  Pressure   1.00000 Atm.
 Atom     1 has atomic number  6 and mass  12.00000

 Molecular mass:   199.95666 amu.
 Principal axes and moments of inertia in atomic units:
                           1         2         3
     Eigenvalues --  1326.752702083.069702510.90631
           X            0.91933  -0.04760   0.39059
           Y            0.14494   0.96382  -0.22368
           Z           -0.36581   0.26225   0.89298
 This molecule is an asymmetric top.
 Rotational symmetry number  1.
 Warning -- assumption of classical behavior for rotation
           may cause significant error
 Rotational temperatures (Kelvin)      0.06528     0.04158     0.03450
 Rotational constants (GHZ):           1.36027     0.86639     0.71876
 Zero-point vibrational energy     124948.8 (Joules/Mol)
                                   29.86347 (Kcal/Mol)
 Warning -- explicit consideration of  18 degrees of freedom as
           vibrations may cause significant error
 Vibrational temperatures:     58.18    78.71   152.38   185.39   280.41
          (Kelvin)            297.45   333.73   357.16   391.52   427.26
                              496.91   577.59   616.96   671.23   768.09
                              812.66   846.29   884.09   914.11  1071.26
                             1103.84  1326.82  1380.98  1647.03  1767.17
                             1784.07  1797.85  1821.36  1963.83  5241.45

 Zero-point correction=                           0.047590 (Hartree/Particle)
 Thermal correction to Energy=                    0.058918
 Thermal correction to Enthalpy=                  0.059862
 Thermal correction to Gibbs Free Energy=         0.009385
 Sum of electronic and zero-point Energies=          -1199.561748
 Sum of electronic and thermal Energies=             -1199.550420
 Sum of electronic and thermal Enthalpies=           -1199.549476
 Sum of electronic and thermal Free Energies=        -1199.599953

                     E (Thermal)             CV                S
                      KCal/Mol        Cal/Mol-Kelvin    Cal/Mol-Kelvin
 Total                   36.972             38.925            106.238
 Electronic               0.000              0.000              0.000
 Translational            0.889              2.981             41.783
 Rotational               0.889              2.981             30.318
 Vibrational             35.194             32.964             34.136
 Vibration     1          0.594              1.981              5.238
 Vibration     2          0.596              1.976              4.639
 Vibration     3          0.605              1.945              3.343
 Vibration     4          0.611              1.924              2.963
 Vibration     5          0.636              1.847              2.181
 Vibration     6          0.641              1.830              2.072
 Vibration     7          0.653              1.792              1.864
 Vibration     8          0.662              1.766              1.743
 Vibration     9          0.675              1.725              1.583
 Vibration    10          0.691              1.679              1.434
 Vibration    11          0.724              1.585              1.187
 Vibration    12          0.767              1.467              0.957
 Vibration    13          0.790              1.408              0.863
 Vibration    14          0.824              1.324              0.747
 Vibration    15          0.889              1.175              0.579
 Vibration    16          0.921              1.107              0.514
 Vibration    17          0.945              1.057              0.470
 Vibration    18          0.974              1.001              0.425

 Optimization completed.
    -- Stationary point found.
 Normal termination of Gaussian 16 at Fri May 23 07:24:34 2025.
