 Gaussian 16, Revision C.01,
 Gaussian 16:  ES64L-G16RevC.01  3-Jul-2019

 ----------------------------------------------------------------------
 #P wb97xd/6-311++G(d,p) Symm(None) scf(xqc) pop(None) opt(NoFreeze,TS,
 CalcAll,NoEigentest,MaxCycle=999)
 ----------------------------------------------------------------------

 ------------------------------
 Gaussian input prepared by ASE
 ------------------------------
 Symbolic Z-matrix:
 Charge =  0 Multiplicity = 1

 SCF Done:  E(RwB97XD) =  -1199.58892045     A.U. after   20 cycles
 SCF Done:  E(RwB97XD) =  -1199.66007744     A.U. after   16 cycles
 SCF Done:  E(RwB97XD) =  -1199.72196646     A.U. after   15 cycles
 SCF Done:  E(RwB97XD) =  -1199.77767337     A.U. after   14 cycles
 SCF Done:  E(RwB97XD) =  -1199.81137969     A.U. after   14 cycles
 SCF Done:  E(RwB97XD) =  -1199.82110997     A.U. after   13 cycles
 SCF Done:  E(RwB97XD) =  -1199.82198950     A.U. after   12 cycles
 SCF Done:  E(RwB97XD) =  -1199.82201471     A.U. after   11 cycles

 Isotropic polarizability for W=    0.000000       55.65 Bohr**3.
 End of Minotr F.D. properties file   721 does not exist.

 Optimization completed.
    -- Stationary point found.

                          Input orientation:
 ---------------------------------------------------------------------
 Center     Atomic      Atomic             Coordinates (Angstroms)
 Number     Number       Type             X           Y           Z
 ---------------------------------------------------------------------
      1          6           0       -0.869859   -0.141377    1.356298
      2          6           0       -0.020189    0.541869    0.213208
      3          9           0       -0.511180    0.207684   -0.975728
      4          9           0       -0.071212    1.872135    0.344957
      5         16           0        1.792676    0.065513    0.244233
      6          8           0        2.360341    0.615413    1.443555
      7          8           0        1.891286   -1.305614   -0.140638
      8          8           0        2.278400    0.939277   -1.010139
      9          9           0       -0.098448   -0.910399    2.117669
     10          9           0       -1.429834    0.785981    2.119353
     11          9           0       -1.821856   -0.891416    0.822785
     12          1           0        2.550298    1.818965   -0.717263
 ---------------------------------------------------------------------

 ******    1 imaginary frequencies (negative Signs) ******

                      1                      2                      3
                      A                      A                      A
 Frequencies --    -51.3419                73.2044               140.6893
 Red. masses --     17.8693                11.8365                12.4758
 Frc consts  --      0.0278                 0.0374                 0.1455
 IR Inten    --      0.1326                 2.1758                 2.1089

                      4                      5                      6
                      A                      A                      A
 Frequencies --    185.7901               237.5044               278.9198
 Red. masses --     11.2567                 8.4210                12.0099
 Frc consts  --      0.2289                 0.2799                 0.5505
 IR Inten    --      6.5713                 7.2737                 0.8024

                      7                      8                      9
                      A                      A                      A
 Frequencies --    281.3994               309.0924               335.0620
 Red. masses --     17.4540                 3.9718                17.7755
 Frc consts  --      0.8143                 0.2236                 1.1758
 IR Inten    --      4.9637                23.8566                 0.4422

                     10                     11                     12
                      A                      A                      A
 Frequencies --    350.0540               375.4380               430.9527
 Red. masses --      2.0973                16.5387                 4.2792
 Frc consts  --      0.1514                 1.3735                 0.4682
 IR Inten    --     51.7387                 0.5493                26.0526

                     13                     14                     15
                      A                      A                      A
 Frequencies --    485.0370               489.4471               542.2643
 Red. masses --     12.2403                 8.7276                17.9022
 Frc consts  --      1.6966                 1.2318                 3.1016
 IR Inten    --     33.8961                 5.0621                30.9005

                     16                     17                     18
                      A                      A                      A
 Frequencies --    595.5535               609.3991               656.4181
 Red. masses --     17.3588                19.9712                17.3377
 Frc consts  --      3.6275                 4.3698                 4.4015
 IR Inten    --      3.1144               113.7890                28.6896

                     19                     20                     21
                      A                      A                      A
 Frequencies --    765.1700               824.0960               996.8909
 Red. masses --     17.0358                17.1628                13.8609
 Frc consts  --      5.8766                 6.8674                 8.1159
 IR Inten    --     46.4706               220.2513                39.6531

                     22                     23                     24
                      A                      A                      A
 Frequencies --   1131.0118              1157.2923              1195.2639
 Red. masses --      1.1994                11.9496                16.1360
 Frc consts  --      0.9039                 9.4295                13.5824
 IR Inten    --    110.7801               278.8285                 3.6604

                     25                     26                     27
                      A                      A                      A
 Frequencies --   1219.6322              1250.6626              1255.3812
 Red. masses --     13.1724                13.1409                13.5423
 Frc consts  --     11.5444                12.1103                12.5746
 IR Inten    --    160.7915               247.6376               281.7319

                     28                     29                     30
                      A                      A                      A
 Frequencies --   1317.7935              1443.6062              3833.7895
 Red. masses --     12.7728                14.1752                 1.0663
 Frc consts  --     13.0687                17.4051                 9.2336
 IR Inten    --    110.0469               305.3000               163.4327

 - Thermochemistry -
 -------------------
 Temperature   298.150 Kelvin.  Pressure   1.00000 Atm.
 Atom     1 has atomic number  6 and mass  12.00000

 Molecular mass:   199.95666 amu.
 Principal axes and moments of inertia in atomic units:
                           1         2         3
     Eigenvalues --  1137.422672208.222862338.50854
           X            0.90869   0.36979   0.19375
           Y            0.09829  -0.64055   0.76160
           Z           -0.40574   0.67301   0.61841
 This molecule is an asymmetric top.
 Rotational symmetry number  1.
 Warning -- assumption of classical behavior for rotation
           may cause significant error
 Rotational temperatures (Kelvin)      0.07615     0.03922     0.03704
 Rotational constants (GHZ):           1.58669     0.81728     0.77175
    1 imaginary frequencies ignored.
 Zero-point vibrational energy     136175.8 (Joules/Mol)
                                   32.54680 (Kcal/Mol)
 Warning -- explicit consideration of  16 degrees of freedom as
           vibrations may cause significant error
 Vibrational temperatures:    105.32   202.42   267.31   341.72   401.30
          (Kelvin)            404.87   444.71   482.08   503.65   540.17
                              620.04   697.86   704.21   780.20   856.87
                              876.79   944.44  1100.91  1185.69  1434.30
                             1627.27  1665.09  1719.72  1754.78  1799.42
                             1806.21  1896.01  2077.03  5515.97

 Zero-point correction=                           0.051867 (Hartree/Particle)
 Thermal correction to Energy=                    0.061315
 Thermal correction to Enthalpy=                  0.062259
 Thermal correction to Gibbs Free Energy=         0.016816
 Sum of electronic and zero-point Energies=          -1199.770148
 Sum of electronic and thermal Energies=             -1199.760700
 Sum of electronic and thermal Enthalpies=           -1199.759756
 Sum of electronic and thermal Free Energies=        -1199.805198

                     E (Thermal)             CV                S
                      KCal/Mol        Cal/Mol-Kelvin    Cal/Mol-Kelvin
 Total                   38.476             34.515             95.642
 Electronic               0.000              0.000              0.000
 Translational            0.889              2.981             41.783
 Rotational               0.889              2.981             30.153
 Vibrational             36.698             28.554             23.705
 Vibration     1          0.599              1.967              4.065
 Vibration     2          0.615              1.913              2.794
 Vibration     3          0.632              1.859              2.269
 Vibration     4          0.656              1.783              1.821
 Vibration     5          0.679              1.713              1.540
 Vibration     6          0.681              1.708              1.525
 Vibration     7          0.698              1.656              1.367
 Vibration     8          0.716              1.605              1.236
 Vibration     9          0.727              1.575              1.166
 Vibration    10          0.746              1.522              1.057
 Vibration    11          0.792              1.403              0.856
 Vibration    12          0.841              1.283              0.697
 Vibration    13          0.845              1.273              0.685
 Vibration    14          0.897              1.157              0.560
 Vibration    15          0.953              1.041              0.457
 Vibration    16          0.968              1.012              0.434

 Normal termination of Gaussian 16 at Fri May 23 03:29:29 2025.
