 Gaussian 16, Revision C.01,
 Gaussian 16:  ES64L-G16RevC.01  3-Jul-2019

 ----------------------------------------------------------------------
 #P wb97xd/6-311++G(d,p) Symm(None) scf(xqc) pop(None) geom(AllCheck,No
 KeepConstants) guess(Read) irc(RCFC,reverse,MaxPoints=100,StepSize=2)
 ----------------------------------------------------------------------

 Structure from the checkpoint file:  "2003846667223680600001_r12_insertion_R_12_8_5_IRC_R.chk"
 ------------------------------
 Gaussian input prepared by ASE
 ------------------------------
 Charge =  0 Multiplicity = 1

 SCF Done:  E(RwB97XD) =  -1199.76704950     A.U. after    9 cycles
 SCF Done:  E(RwB97XD) =  -1199.76714010     A.U. after   10 cycles
 SCF Done:  E(RwB97XD) =  -1199.76729104     A.U. after   10 cycles
 SCF Done:  E(RwB97XD) =  -1199.76750166     A.U. after   10 cycles
 SCF Done:  E(RwB97XD) =  -1199.76777087     A.U. after   10 cycles
 SCF Done:  E(RwB97XD) =  -1199.76809730     A.U. after   10 cycles
 SCF Done:  E(RwB97XD) =  -1199.76847946     A.U. after   10 cycles
 SCF Done:  E(RwB97XD) =  -1199.76891580     A.U. after   10 cycles
 SCF Done:  E(RwB97XD) =  -1199.76940460     A.U. after   10 cycles
 SCF Done:  E(RwB97XD) =  -1199.76994385     A.U. after   10 cycles
 SCF Done:  E(RwB97XD) =  -1199.81649560     A.U. after    9 cycles
 SCF Done:  E(RwB97XD) =  -1199.81673363     A.U. after    9 cycles
 SCF Done:  E(RwB97XD) =  -1199.81696712     A.U. after    9 cycles
 SCF Done:  E(RwB97XD) =  -1199.81719616     A.U. after    9 cycles
 SCF Done:  E(RwB97XD) =  -1199.81742083     A.U. after    9 cycles
 SCF Done:  E(RwB97XD) =  -1199.81764124     A.U. after    9 cycles
 SCF Done:  E(RwB97XD) =  -1199.81785745     A.U. after    9 cycles
 SCF Done:  E(RwB97XD) =  -1199.81806955     A.U. after    9 cycles
 SCF Done:  E(RwB97XD) =  -1199.81827761     A.U. after    9 cycles
 SCF Done:  E(RwB97XD) =  -1199.81848170     A.U. after    9 cycles

                          Input orientation:
 ---------------------------------------------------------------------
 Center     Atomic      Atomic             Coordinates (Angstroms)
 Number     Number       Type             X           Y           Z
 ---------------------------------------------------------------------
      1          6           0       -1.245178   -0.366658    0.762846
      2          6           0       -0.466701    0.157455   -0.476079
      3          9           0       -0.777670   -0.586194   -1.538566
      4          9           0       -0.799321    1.424501   -0.708904
      5         16           0        1.412982    0.083493   -0.350906
      6          8           0        1.805197    1.311626    0.597551
      7          8           0        1.737588   -1.209537    0.172199
      8          8           0        1.914083    0.578822   -1.608280
      9          9           0       -1.122583   -1.678057    0.875436
     10          9           0       -0.776793    0.217759    1.861391
     11          9           0       -2.532120   -0.062705    0.626471
     12          1           0        2.218740    1.942829   -0.008671
 ---------------------------------------------------------------------

 Normal termination of Gaussian 16 at Fri May 23 04:09:19 2025.
