 Gaussian 16, Revision C.01,
 Gaussian 16:  ES64L-G16RevC.01  3-Jul-2019

 ----------------------------------------------------------------------
 #P wb97xd/6-311++G(d,p) Symm(None) scf(xqc) pop(None) freq opt(CalcFC)
 ----------------------------------------------------------------------

 ------------------------------
 Gaussian input prepared by ASE
 ------------------------------
 Symbolic Z-matrix:
 Charge =  0 Multiplicity = 1

 SCF Done:  E(RwB97XD) =  -1199.82203351     A.U. after   14 cycles
 SCF Done:  E(RwB97XD) =  -1199.82245973     A.U. after   13 cycles
 SCF Done:  E(RwB97XD) =  -1199.82387403     A.U. after   13 cycles
 SCF Done:  E(RwB97XD) =  -1199.82574314     A.U. after   14 cycles
 SCF Done:  E(RwB97XD) =  -1199.82563711     A.U. after   12 cycles
 SCF Done:  E(RwB97XD) =  -1199.82601580     A.U. after   12 cycles
 SCF Done:  E(RwB97XD) =  -1199.82603350     A.U. after   11 cycles
 SCF Done:  E(RwB97XD) =  -1199.82604639     A.U. after   11 cycles
 SCF Done:  E(RwB97XD) =  -1199.82604763     A.U. after   10 cycles
 SCF Done:  E(RwB97XD) =  -1199.82604791     A.U. after    9 cycles
 Optimization completed.
    -- Stationary point found.
 Normal termination of Gaussian 16 at Fri May 23 06:38:21 2025.

 ----------------------------------------------------------------------
 #P Geom=AllCheck Guess=TCheck SCRF=Check GenChk RwB97XD/6-311++G(d,p)
 Freq
 ----------------------------------------------------------------------

 Structure from the checkpoint file:  "2003846667223680600001_Intra_Diels_alder_R_6_7_IRC_R_prod.chk"
 ------------------------------
 Gaussian input prepared by ASE
 ------------------------------
 Charge =  0 Multiplicity = 1

                          Input orientation:
 ---------------------------------------------------------------------
 Center     Atomic      Atomic             Coordinates (Angstroms)
 Number     Number       Type             X           Y           Z
 ---------------------------------------------------------------------
      1          6           0       -1.317337   -0.295249    0.641016
      2          6           0       -0.370653    0.185663   -0.495590
      3          9           0       -0.611578   -0.520820   -1.596465
      4          9           0       -0.610644    1.481848   -0.739216
      5         16           0        1.452439    0.022437   -0.084616
      6          8           0        1.826354   -1.343920   -0.253162
      7          8           0        1.685987    0.777118    1.114826
      8          8           0        2.044238    0.824290   -1.340108
      9          9           0       -0.994492   -1.527267    1.013968
     10          9           0       -1.240235    0.514192    1.686212
     11          9           0       -2.566674   -0.293820    0.186958
     12          1           0        2.092504    1.769304   -1.144333
 ---------------------------------------------------------------------

 SCF Done:  E(RwB97XD) =  -1199.82604791     A.U. after    1 cycles

 Isotropic polarizability for W=    0.000000       55.70 Bohr**3.
 End of Minotr F.D. properties file   721 does not exist.

                      1                      2                      3
                      A                      A                      A
 Frequencies --     29.5649                67.5288               131.2210
 Red. masses --     14.2510                14.3647                14.7338
 Frc consts  --      0.0073                 0.0386                 0.1495
 IR Inten    --      1.2614                 0.7602                 1.2590

                      4                      5                      6
                      A                      A                      A
 Frequencies --    193.7950               222.7902               234.5250
 Red. masses --      9.2476                17.9561                 8.0164
 Frc consts  --      0.2046                 0.5251                 0.2598
 IR Inten    --      8.2763                 1.1924                 9.6848

                      7                      8                      9
                      A                      A                      A
 Frequencies --    275.1556               310.9502               318.1306
 Red. masses --     15.2588                 5.0434                18.2009
 Frc consts  --      0.6807                 0.2873                 1.0853
 IR Inten    --      1.4297                16.6867                 0.3337

                     10                     11                     12
                      A                      A                      A
 Frequencies --    358.8821               371.4832               436.8481
 Red. masses --      1.8778                17.7692                 4.1110
 Frc consts  --      0.1425                 1.4448                 0.4622
 IR Inten    --     56.5904                 0.1368                31.1313

                     13                     14                     15
                      A                      A                      A
 Frequencies --    484.7147               489.7094               539.3761
 Red. masses --     13.0433                 8.3875                17.8494
 Frc consts  --      1.8056                 1.1851                 3.0596
 IR Inten    --     14.3573                21.0279                28.4992

                     16                     17                     18
                      A                      A                      A
 Frequencies --    600.3568               609.3153               653.6951
 Red. masses --     17.3791                20.1292                17.3547
 Frc consts  --      3.6906                 4.4031                 4.3694
 IR Inten    --      3.5571               118.3142                30.1464

                     19                     20                     21
                      A                      A                      A
 Frequencies --    764.7145               825.6267              1005.6217
 Red. masses --     17.1217                17.1325                13.8202
 Frc consts  --      5.8992                 6.8808                 8.2344
 IR Inten    --     41.0148               218.7834                52.4848

                     22                     23                     24
                      A                      A                      A
 Frequencies --   1130.9314              1158.0196              1203.7924
 Red. masses --      1.1959                11.9830                15.9707
 Frc consts  --      0.9012                 9.4678                13.6357
 IR Inten    --    109.5471               237.8891                 7.1283

                     25                     26                     27
                      A                      A                      A
 Frequencies --   1219.1058              1249.5138              1254.0070
 Red. masses --     13.1322                13.7911                13.1768
 Frc consts  --     11.4993                12.6862                12.2085
 IR Inten    --    110.2346               334.9380               261.0410

                     28                     29                     30
                      A                      A                      A
 Frequencies --   1344.6171              1446.4575              3832.5196
 Red. masses --     12.6484                14.3544                 1.0663
 Frc consts  --     13.4736                17.6949                 9.2274
 IR Inten    --    106.5497               312.3982               161.6498

 - Thermochemistry -
 -------------------
 Temperature   298.150 Kelvin.  Pressure   1.00000 Atm.
 Atom     1 has atomic number  6 and mass  12.00000

 Molecular mass:   199.95666 amu.
 Principal axes and moments of inertia in atomic units:
                           1         2         3
     Eigenvalues --  1133.495912197.589782320.31542
           X            0.95442   0.29817  -0.01309
           Y            0.12938  -0.37382   0.91843
           Z           -0.26895   0.87827   0.39536
 This molecule is an asymmetric top.
 Rotational symmetry number  1.
 Warning -- assumption of classical behavior for rotation
           may cause significant error
 Rotational temperatures (Kelvin)      0.07641     0.03941     0.03733
 Rotational constants (GHZ):           1.59219     0.82124     0.77780
 Zero-point vibrational energy     136152.8 (Joules/Mol)
                                   32.54130 (Kcal/Mol)
 Warning -- explicit consideration of  17 degrees of freedom as
           vibrations may cause significant error
 Vibrational temperatures:     42.54    97.16   188.80   278.83   320.55
          (Kelvin)            337.43   395.89   447.39   457.72   516.35
                              534.48   628.53   697.40   704.58   776.04
                              863.78   876.67   940.52  1100.25  1187.89
                             1446.87  1627.16  1666.13  1731.99  1754.02
                             1797.77  1804.24  1934.60  2081.13  5514.14

 Zero-point correction=                           0.051858 (Hartree/Particle)
 Thermal correction to Energy=                    0.062295
 Thermal correction to Enthalpy=                  0.063240
 Thermal correction to Gibbs Free Energy=         0.014690
 Sum of electronic and zero-point Energies=          -1199.774190
 Sum of electronic and thermal Energies=             -1199.763753
 Sum of electronic and thermal Enthalpies=           -1199.762808
 Sum of electronic and thermal Free Energies=        -1199.811358

                     E (Thermal)             CV                S
                      KCal/Mol        Cal/Mol-Kelvin    Cal/Mol-Kelvin
 Total                   39.091             36.592            102.182
 Electronic               0.000              0.000              0.000
 Translational            0.889              2.981             41.783
 Rotational               0.889              2.981             30.137
 Vibrational             37.313             30.630             30.261
 Vibration     1          0.593              1.984              5.858
 Vibration     2          0.598              1.970              4.224
 Vibration     3          0.612              1.922              2.928
 Vibration     4          0.635              1.848              2.191
 Vibration     5          0.648              1.806              1.936
 Vibration     6          0.654              1.788              1.844
 Vibration     7          0.677              1.719              1.564
 Vibration     8          0.700              1.653              1.357
 Vibration     9          0.705              1.639              1.320
 Vibration    10          0.734              1.557              1.127
 Vibration    11          0.743              1.531              1.074
 Vibration    12          0.797              1.390              0.837
 Vibration    13          0.841              1.284              0.697
 Vibration    14          0.846              1.273              0.684
 Vibration    15          0.894              1.163              0.567
 Vibration    16          0.959              1.031              0.449
 Vibration    17          0.968              1.012              0.434

 Optimization completed.
    -- Stationary point found.
 Normal termination of Gaussian 16 at Fri May 23 06:39:36 2025.
