 Gaussian 16, Revision C.01,
 Gaussian 16:  ES64L-G16RevC.01  3-Jul-2019

 ----------------------------------------------------------------------
 #P mp2/6-31G Symm(None) scf(xqc) pop(None) guess(Mix,Always) opt(NoFre
 eze,TS,CalcAll,NoEigentest,MaxCycle=999)
 ----------------------------------------------------------------------

 ------------------------------
 Gaussian input prepared by ASE
 ------------------------------
 Symbolic Z-matrix:
 Charge =  0 Multiplicity = 1

 SCF Done:  E(RHF) =  -1194.83117878     A.U. after   17 cycles
 E2 =    -0.1260089286D+01 EUMP2 =    -0.11960912680613D+04
 E2 =    -0.1260089286D+01 EUMP2 =    -0.11960912680613D+04
 SCF Done:  E(RHF) =  -1194.84300413     A.U. after   17 cycles
 E2 =    -0.1277331743D+01 EUMP2 =    -0.11961203358768D+04
 E2 =    -0.1277331743D+01 EUMP2 =    -0.11961203358768D+04
 SCF Done:  E(RHF) =  -1194.88469412     A.U. after   17 cycles
 E2 =    -0.1287895404D+01 EUMP2 =    -0.11961725895266D+04
 E2 =    -0.1287895404D+01 EUMP2 =    -0.11961725895266D+04
 SCF Done:  E(RHF) =  -1194.90438594     A.U. after   19 cycles
 E2 =    -0.1292717309D+01 EUMP2 =    -0.11961971032443D+04
 E2 =    -0.1292717309D+01 EUMP2 =    -0.11961971032443D+04
 SCF Done:  E(RHF) =  -1194.90555565     A.U. after   19 cycles
 E2 =    -0.1295013667D+01 EUMP2 =    -0.11962005693145D+04
 E2 =    -0.1295013667D+01 EUMP2 =    -0.11962005693145D+04
 SCF Done:  E(RHF) =  -1194.90518930     A.U. after   19 cycles
 E2 =    -0.1295663098D+01 EUMP2 =    -0.11962008524020D+04
 E2 =    -0.1295663098D+01 EUMP2 =    -0.11962008524020D+04
 SCF Done:  E(RHF) =  -1194.90496016     A.U. after   19 cycles
 E2 =    -0.1295932497D+01 EUMP2 =    -0.11962008926586D+04
 E2 =    -0.1295932497D+01 EUMP2 =    -0.11962008926586D+04
 SCF Done:  E(RHF) =  -1194.90487131     A.U. after   19 cycles
 E2 =    -0.1296024264D+01 EUMP2 =    -0.11962008955731D+04
 E2 =    -0.1296024264D+01 EUMP2 =    -0.11962008955731D+04
 SCF Done:  E(RHF) =  -1194.90486084     A.U. after   19 cycles
 E2 =    -0.1296034760D+01 EUMP2 =    -0.11962008956049D+04
 E2 =    -0.1296034760D+01 EUMP2 =    -0.11962008956049D+04
 Optimization completed.
    -- Stationary point found.

                          Input orientation:
 ---------------------------------------------------------------------
 Center     Atomic      Atomic             Coordinates (Angstroms)
 Number     Number       Type             X           Y           Z
 ---------------------------------------------------------------------
      1          6           0       -0.814592    0.199643    1.333882
      2          6           0       -0.239317    0.006666   -0.077359
      3          9           0       -0.540009   -1.254546   -0.566989
      4          9           0       -0.687827    0.997133   -0.939036
      5         16           0        1.776352    0.115022   -0.162425
      6          8           0        2.433740    0.128302    1.431064
      7          8           0        2.290888   -0.897630   -1.264374
      8          8           0        2.159044    1.791655   -0.183892
      9          9           0       -0.398191   -0.838213    2.154048
     10          9           0       -0.384134    1.412833    1.854916
     11          9           0       -2.205208    0.199662    1.268807
     12          1           0        2.613737    1.402668    1.028444
 ---------------------------------------------------------------------

 ******    1 imaginary frequencies (negative Signs) ******

                      1                      2                      3
                      A                      A                      A
 Frequencies --  -1691.6456                23.7308                70.0488
 Red. masses --      1.0935                14.5501                16.8457
 Frc consts  --      1.8437                 0.0048                 0.0487
 IR Inten    --    356.4370                 0.2881                 0.0744

                      4                      5                      6
                      A                      A                      A
 Frequencies --    117.7171               141.1884               181.9896
 Red. masses --     14.0640                16.3060                15.1322
 Frc consts  --      0.1148                 0.1915                 0.2953
 IR Inten    --      2.2103                 2.5354                 4.0237

                      7                      8                      9
                      A                      A                      A
 Frequencies --    204.2182               219.3868               256.2681
 Red. masses --     17.8255                15.7733                17.6329
 Frc consts  --      0.4380                 0.4473                 0.6823
 IR Inten    --      3.7708                 5.4243                 2.2820

                     10                     11                     12
                      A                      A                      A
 Frequencies --    286.3112               341.5016               351.2307
 Red. masses --     17.7144                18.5348                18.4057
 Frc consts  --      0.8556                 1.2736                 1.3378
 IR Inten    --      0.5784                 2.5530                10.8240

                     13                     14                     15
                      A                      A                      A
 Frequencies --    409.5838               420.9933               487.8375
 Red. masses --     17.7168                13.6881                17.0302
 Frc consts  --      1.7511                 1.4294                 2.3879
 IR Inten    --      5.0673                62.4299                 7.0728

                     16                     17                     18
                      A                      A                      A
 Frequencies --    558.7648               574.4560               593.4060
 Red. masses --     17.7609                17.0947                17.0824
 Frc consts  --      3.2672                 3.3237                 3.5441
 IR Inten    --      2.2283                28.6860                51.8640

                     19                     20                     21
                      A                      A                      A
 Frequencies --    687.0030               808.3641               889.3195
 Red. masses --     16.8696                16.3665                11.9228
 Frc consts  --      4.6911                 6.3012                 5.5557
 IR Inten    --     22.2229                80.3233               130.3957

                     22                     23                     24
                      A                      A                      A
 Frequencies --    902.1997               990.8325              1081.6023
 Red. masses --     11.2255                 1.1348                14.4591
 Frc consts  --      5.3835                 0.6564                 9.9661
 IR Inten    --    126.4157                98.0530                54.0015

                     25                     26                     27
                      A                      A                      A
 Frequencies --   1090.7946              1199.5008              1200.9651
 Red. masses --     12.5156                13.1022                12.6922
 Frc consts  --      8.7738                11.1070                10.7857
 IR Inten    --    267.8365               116.9006               128.9754

                     28                     29                     30
                      A                      A                      A
 Frequencies --   1226.6963              1310.7147              2003.5723
 Red. masses --     12.7881                12.4117                 1.0294
 Frc consts  --     11.3379                12.5631                 2.4347
 IR Inten    --    205.2188               161.8118               123.4969

 - Thermochemistry -
 -------------------
 Temperature   298.150 Kelvin.  Pressure   1.00000 Atm.
 Atom     1 has atomic number  6 and mass  12.00000

 Molecular mass:   199.95666 amu.
 Principal axes and moments of inertia in atomic units:
                           1         2         3
     Eigenvalues --  1308.860062333.115932576.62352
           X            0.91125   0.36212  -0.19619
           Y            0.01826   0.44037   0.89763
           Z           -0.41145   0.82155  -0.39468
 This molecule is an asymmetric top.
 Rotational symmetry number  1.
 Warning -- assumption of classical behavior for rotation
           may cause significant error
 Rotational temperatures (Kelvin)      0.06618     0.03712     0.03362
 Rotational constants (GHZ):           1.37886     0.77353     0.70043
    1 imaginary frequencies ignored.
 Zero-point vibrational energy     111433.3 (Joules/Mol)
                                   26.63320 (Kcal/Mol)
 Warning -- explicit consideration of  17 degrees of freedom as
           vibrations may cause significant error
 Vibrational temperatures:     34.14   100.78   169.37   203.14   261.84
          (Kelvin)            293.82   315.65   368.71   411.94   491.34
                              505.34   589.30   605.72   701.89   803.94
                              826.51   853.78   988.44  1163.06  1279.53
                             1298.06  1425.59  1556.18  1569.41  1725.81
                             1727.92  1764.94  1885.83  2882.69

 Zero-point correction=                           0.042443 (Hartree/Particle)
 Thermal correction to Energy=                    0.053440
 Thermal correction to Enthalpy=                  0.054385
 Thermal correction to Gibbs Free Energy=         0.004170
 Sum of electronic and zero-point Energies=          -1196.158453
 Sum of electronic and thermal Energies=             -1196.147455
 Sum of electronic and thermal Enthalpies=           -1196.146511
 Sum of electronic and thermal Free Energies=        -1196.196726

                     E (Thermal)             CV                S
                      KCal/Mol        Cal/Mol-Kelvin    Cal/Mol-Kelvin
 Total                   33.534             37.519            105.686
 Electronic               0.000              0.000              0.000
 Translational            0.889              2.981             41.783
 Rotational               0.889              2.981             30.443
 Vibrational             31.757             31.557             33.459
 Vibration     1          0.593              1.985              6.295
 Vibration     2          0.598              1.968              4.152
 Vibration     3          0.608              1.935              3.138
 Vibration     4          0.615              1.912              2.788
 Vibration     5          0.630              1.864              2.308
 Vibration     6          0.640              1.834              2.095
 Vibration     7          0.647              1.812              1.964
 Vibration     8          0.666              1.752              1.687
 Vibration     9          0.684              1.699              1.496
 Vibration    10          0.721              1.593              1.205
 Vibration    11          0.728              1.573              1.161
 Vibration    12          0.774              1.449              0.928
 Vibration    13          0.783              1.425              0.889
 Vibration    14          0.844              1.277              0.689
 Vibration    15          0.914              1.121              0.526
 Vibration    16          0.931              1.087              0.496
 Vibration    17          0.951              1.046              0.461

 Normal termination of Gaussian 16 at Fri May 23 03:20:30 2025.
