 Gaussian 16, Revision C.01,
 Gaussian 16:  ES64L-G16RevC.01  3-Jul-2019

 ----------------------------------------------------------------------
 #P wb97xd/6-311++G(d,p) Symm(None) scf(xqc) pop(None) freq opt(CalcFC)
 ----------------------------------------------------------------------

 ------------------------------
 Gaussian input prepared by ASE
 ------------------------------
 Symbolic Z-matrix:
 Charge =  0 Multiplicity = 1

 SCF Done:  E(RwB97XD) =  -1199.78911905     A.U. after   14 cycles
 SCF Done:  E(RwB97XD) =  -1199.81325852     A.U. after   14 cycles
 SCF Done:  E(RwB97XD) =  -1199.82017081     A.U. after   13 cycles
 SCF Done:  E(RwB97XD) =  -1199.82430532     A.U. after   15 cycles
 SCF Done:  E(RwB97XD) =  -1199.78884120     A.U. after   14 cycles
 SCF Done:  E(RwB97XD) =  -1199.82542250     A.U. after   13 cycles
 SCF Done:  E(RwB97XD) =  -1199.82562480     A.U. after   11 cycles
 SCF Done:  E(RwB97XD) =  -1199.82572435     A.U. after   12 cycles
 SCF Done:  E(RwB97XD) =  -1199.82582128     A.U. after   12 cycles
 SCF Done:  E(RwB97XD) =  -1199.82588373     A.U. after   12 cycles
 SCF Done:  E(RwB97XD) =  -1199.82591558     A.U. after   12 cycles
 SCF Done:  E(RwB97XD) =  -1199.82595128     A.U. after   10 cycles
 SCF Done:  E(RwB97XD) =  -1199.82600770     A.U. after   12 cycles
 SCF Done:  E(RwB97XD) =  -1199.82602465     A.U. after   10 cycles
 SCF Done:  E(RwB97XD) =  -1199.82603481     A.U. after   11 cycles
 SCF Done:  E(RwB97XD) =  -1199.82604313     A.U. after   12 cycles
 SCF Done:  E(RwB97XD) =  -1199.82604474     A.U. after   10 cycles
 SCF Done:  E(RwB97XD) =  -1199.82604482     A.U. after    8 cycles
 Optimization completed.
    -- Stationary point found.
 Normal termination of Gaussian 16 at Fri May 23 04:02:23 2025.

 ----------------------------------------------------------------------
 #P Geom=AllCheck Guess=TCheck SCRF=Check GenChk RwB97XD/6-311++G(d,p)
 Freq
 ----------------------------------------------------------------------

 Structure from the checkpoint file:  "2003846667223680600001_r12_insertion_R_3_2_1_IRC_F_prod.chk"
 ------------------------------
 Gaussian input prepared by ASE
 ------------------------------
 Charge =  0 Multiplicity = 1

                          Input orientation:
 ---------------------------------------------------------------------
 Center     Atomic      Atomic             Coordinates (Angstroms)
 Number     Number       Type             X           Y           Z
 ---------------------------------------------------------------------
      1          6           0       -1.281038   -0.333281    0.684973
      2          6           0       -0.422630    0.172721   -0.509197
      3          9           0       -0.772476   -0.484724   -1.611291
      4          9           0       -0.651706    1.482109   -0.682559
      5         16           0        1.424431   -0.042840   -0.262667
      6          8           0        1.778674    0.667871    0.934037
      7          8           0        1.749358   -1.410880   -0.503951
      8          8           0        1.924767    0.786251   -1.540124
      9          9           0       -0.964810   -1.588878    0.975568
     10          9           0       -1.088654    0.426094    1.752686
     11          9           0       -2.564462   -0.277998    0.343176
     12          1           0        2.013701    1.722949   -1.320119
 ---------------------------------------------------------------------

 SCF Done:  E(RwB97XD) =  -1199.82604482     A.U. after    1 cycles

 Isotropic polarizability for W=    0.000000       55.71 Bohr**3.
 End of Minotr F.D. properties file   721 does not exist.

                      1                      2                      3
                      A                      A                      A
 Frequencies --     25.5230                67.3392               131.0480
 Red. masses --     14.1909                14.4589                14.6822
 Frc consts  --      0.0054                 0.0386                 0.1486
 IR Inten    --      1.2772                 0.7202                 1.3081

                      4                      5                      6
                      A                      A                      A
 Frequencies --    193.1621               222.2295               233.9597
 Red. masses --      9.2161                17.8710                 8.0905
 Frc consts  --      0.2026                 0.5200                 0.2609
 IR Inten    --      8.3001                 1.2525                 9.6091

                      7                      8                      9
                      A                      A                      A
 Frequencies --    275.0058               311.0102               317.9485
 Red. masses --     15.2376                 5.1977                18.2107
 Frc consts  --      0.6790                 0.2962                 1.0847
 IR Inten    --      1.4247                15.9122                 0.3128

                     10                     11                     12
                      A                      A                      A
 Frequencies --    359.3378               371.4660               436.6021
 Red. masses --      1.8627                17.4305                 4.0733
 Frc consts  --      0.1417                 1.4171                 0.4575
 IR Inten    --     57.0790                 0.2472                31.5092

                     13                     14                     15
                      A                      A                      A
 Frequencies --    484.5328               489.3614               539.4117
 Red. masses --     13.4634                 8.3124                17.8423
 Frc consts  --      1.8623                 1.1728                 3.0587
 IR Inten    --     15.5951                19.7414                28.7303

                     16                     17                     18
                      A                      A                      A
 Frequencies --    600.4000               608.9432               653.7441
 Red. masses --     17.3847                20.1310                17.3447
 Frc consts  --      3.6923                 4.3981                 4.3675
 IR Inten    --      3.5596               118.3178                29.9188

                     19                     20                     21
                      A                      A                      A
 Frequencies --    764.7069               824.7738              1005.7608
 Red. masses --     17.1177                17.1459                13.8226
 Frc consts  --      5.8977                 6.8719                 8.2381
 IR Inten    --     41.5953               217.6458                52.9983

                     22                     23                     24
                      A                      A                      A
 Frequencies --   1130.4378              1157.7126              1201.2178
 Red. masses --      1.1945                12.3111                15.9722
 Frc consts  --      0.8994                 9.7219                13.5787
 IR Inten    --    106.7129               243.6639                 6.0186

                     25                     26                     27
                      A                      A                      A
 Frequencies --   1219.2938              1249.1566              1253.9109
 Red. masses --     13.1185                13.6804                13.1767
 Frc consts  --     11.4909                12.5772                12.2064
 IR Inten    --    110.6497               332.3894               258.7697

                     28                     29                     30
                      A                      A                      A
 Frequencies --   1344.9655              1443.1613              3832.8487
 Red. masses --     12.6412                14.2537                 1.0663
 Frc consts  --     13.4729                17.4907                 9.2290
 IR Inten    --    106.8555               314.1682               161.6966

 - Thermochemistry -
 -------------------
 Temperature   298.150 Kelvin.  Pressure   1.00000 Atm.
 Atom     1 has atomic number  6 and mass  12.00000

 Molecular mass:   199.95666 amu.
 Principal axes and moments of inertia in atomic units:
                           1         2         3
     Eigenvalues --  1133.370402197.969702320.59945
           X            0.93092   0.36274   0.04242
           Y            0.12047  -0.41465   0.90197
           Z           -0.34477   0.83455   0.42971
 This molecule is an asymmetric top.
 Rotational symmetry number  1.
 Warning -- assumption of classical behavior for rotation
           may cause significant error
 Rotational temperatures (Kelvin)      0.07642     0.03941     0.03732
 Rotational constants (GHZ):           1.59237     0.82109     0.77770
 Zero-point vibrational energy     136069.1 (Joules/Mol)
                                   32.52129 (Kcal/Mol)
 Warning -- explicit consideration of  17 degrees of freedom as
           vibrations may cause significant error
 Vibrational temperatures:     36.72    96.89   188.55   277.92   319.74
          (Kelvin)            336.62   395.67   447.47   457.46   517.01
                              534.46   628.17   697.13   704.08   776.09
                              863.84   876.13   940.59  1100.24  1186.67
                             1447.07  1626.45  1665.69  1728.28  1754.29
                             1797.26  1804.10  1935.11  2076.39  5514.61

 Zero-point correction=                           0.051826 (Hartree/Particle)
 Thermal correction to Energy=                    0.062277
 Thermal correction to Enthalpy=                  0.063221
 Thermal correction to Gibbs Free Energy=         0.014520
 Sum of electronic and zero-point Energies=          -1199.774219
 Sum of electronic and thermal Energies=             -1199.763768
 Sum of electronic and thermal Enthalpies=           -1199.762824
 Sum of electronic and thermal Free Energies=        -1199.811525

                     E (Thermal)             CV                S
                      KCal/Mol        Cal/Mol-Kelvin    Cal/Mol-Kelvin
 Total                   39.079             36.602            102.500
 Electronic               0.000              0.000              0.000
 Translational            0.889              2.981             41.783
 Rotational               0.889              2.981             30.137
 Vibrational             37.302             30.640             30.580
 Vibration     1          0.593              1.985              6.150
 Vibration     2          0.598              1.970              4.230
 Vibration     3          0.612              1.922              2.931
 Vibration     4          0.635              1.849              2.197
 Vibration     5          0.648              1.807              1.941
 Vibration     6          0.654              1.789              1.848
 Vibration     7          0.677              1.720              1.565
 Vibration     8          0.700              1.653              1.357
 Vibration     9          0.704              1.639              1.321
 Vibration    10          0.734              1.556              1.125
 Vibration    11          0.743              1.531              1.074
 Vibration    12          0.797              1.390              0.837
 Vibration    13          0.841              1.284              0.698
 Vibration    14          0.845              1.274              0.685
 Vibration    15          0.894              1.163              0.567
 Vibration    16          0.959              1.031              0.449
 Vibration    17          0.968              1.013              0.435

 Optimization completed.
    -- Stationary point found.
 Normal termination of Gaussian 16 at Fri May 23 04:03:38 2025.
