 Gaussian 16, Revision C.01,
 Gaussian 16:  ES64L-G16RevC.01  3-Jul-2019

 ----------------------------------------------------------------------
 #P wb97xd/6-311++G(d,p) Symm(None) scf(xqc) pop(None) geom(AllCheck,No
 KeepConstants) guess(Read) irc(RCFC,reverse,MaxPoints=100,StepSize=2)
 ----------------------------------------------------------------------

 Structure from the checkpoint file:  "2003846667223680600001_r13_insertion_ROR_3_2_5_8_IRC_R.chk"
 ------------------------------
 Gaussian input prepared by ASE
 ------------------------------
 Charge =  0 Multiplicity = 1

 SCF Done:  E(RwB97XD) =  -1199.59819659     A.U. after   13 cycles
 SCF Done:  E(RwB97XD) =  -1199.59823803     A.U. after   13 cycles
 SCF Done:  E(RwB97XD) =  -1199.59830779     A.U. after   13 cycles
 SCF Done:  E(RwB97XD) =  -1199.59840594     A.U. after   13 cycles
 SCF Done:  E(RwB97XD) =  -1199.59853209     A.U. after   13 cycles
 SCF Done:  E(RwB97XD) =  -1199.59868569     A.U. after   13 cycles
 SCF Done:  E(RwB97XD) =  -1199.59886666     A.U. after   14 cycles
 SCF Done:  E(RwB97XD) =  -1199.59907574     A.U. after   14 cycles
 SCF Done:  E(RwB97XD) =  -1199.59931472     A.U. after   14 cycles
 SCF Done:  E(RwB97XD) =  -1199.59958620     A.U. after   14 cycles
 SCF Done:  E(RwB97XD) =  -1199.75704671     A.U. after   10 cycles
 SCF Done:  E(RwB97XD) =  -1199.75784804     A.U. after   10 cycles
 SCF Done:  E(RwB97XD) =  -1199.75862321     A.U. after   10 cycles
 SCF Done:  E(RwB97XD) =  -1199.75937160     A.U. after   10 cycles
 SCF Done:  E(RwB97XD) =  -1199.76009211     A.U. after   10 cycles
 SCF Done:  E(RwB97XD) =  -1199.76078358     A.U. after   10 cycles
 SCF Done:  E(RwB97XD) =  -1199.76144698     A.U. after   10 cycles
 SCF Done:  E(RwB97XD) =  -1199.76208266     A.U. after   11 cycles
 SCF Done:  E(RwB97XD) =  -1199.76269012     A.U. after   10 cycles
 SCF Done:  E(RwB97XD) =  -1199.76326668     A.U. after   11 cycles

                          Input orientation:
 ---------------------------------------------------------------------
 Center     Atomic      Atomic             Coordinates (Angstroms)
 Number     Number       Type             X           Y           Z
 ---------------------------------------------------------------------
      1          6           0        0.295455   -1.408341   -0.857512
      2          6           0        0.377485   -0.448895    0.339754
      3          9           0       -2.861338    1.685905    1.097490
      4          9           0        0.941789   -1.011418    1.391347
      5         16           0        0.351798    1.275564    0.282880
      6          8           0        0.880034    1.864627    1.472536
      7          8           0        0.307727    1.883924   -1.004589
      8          8           0       -0.906165    0.289207    0.574302
      9          9           0        1.504049   -1.749465   -1.298102
     10          9           0       -0.334102   -2.508741   -0.455313
     11          9           0       -0.374954   -0.840506   -1.840960
     12          1           0       -2.444643    0.966698    1.489061
 ---------------------------------------------------------------------

 Normal termination of Gaussian 16 at Fri May 23 05:15:42 2025.
