 Gaussian 16, Revision C.01,
 Gaussian 16:  ES64L-G16RevC.01  3-Jul-2019

 ----------------------------------------------------------------------
 #P wb97xd/6-311++G(d,p) Symm(None) scf(xqc) pop(None) freq opt(CalcFC)
 ----------------------------------------------------------------------

 ------------------------------
 Gaussian input prepared by ASE
 ------------------------------
 Symbolic Z-matrix:
 Charge =  0 Multiplicity = 1

 SCF Done:  E(RwB97XD) =  -1199.82201643     A.U. after   14 cycles
 SCF Done:  E(RwB97XD) =  -1199.82247671     A.U. after   13 cycles
 SCF Done:  E(RwB97XD) =  -1199.82390197     A.U. after   13 cycles
 SCF Done:  E(RwB97XD) =  -1199.82575277     A.U. after   14 cycles
 SCF Done:  E(RwB97XD) =  -1199.82567954     A.U. after   12 cycles
 SCF Done:  E(RwB97XD) =  -1199.82600660     A.U. after   12 cycles
 SCF Done:  E(RwB97XD) =  -1199.82217018     A.U. after   14 cycles
 SCF Done:  E(RwB97XD) =  -1199.82602774     A.U. after   11 cycles
 SCF Done:  E(RwB97XD) =  -1199.82604193     A.U. after   11 cycles
 SCF Done:  E(RwB97XD) =  -1199.82604410     A.U. after   11 cycles
 SCF Done:  E(RwB97XD) =  -1199.82604423     A.U. after    9 cycles
 SCF Done:  E(RwB97XD) =  -1199.82604425     A.U. after    8 cycles
 Optimization completed.
    -- Stationary point found.
 Normal termination of Gaussian 16 at Fri May 23 03:42:37 2025.

 ----------------------------------------------------------------------
 #P Geom=AllCheck Guess=TCheck SCRF=Check GenChk RwB97XD/6-311++G(d,p)
 Freq
 ----------------------------------------------------------------------

 Structure from the checkpoint file:  "2003846667223680600001_r12_insertion_R_6_5_8_IRC_R_prod.chk"
 ------------------------------
 Gaussian input prepared by ASE
 ------------------------------
 Charge =  0 Multiplicity = 1

                          Input orientation:
 ---------------------------------------------------------------------
 Center     Atomic      Atomic             Coordinates (Angstroms)
 Number     Number       Type             X           Y           Z
 ---------------------------------------------------------------------
      1          6           0       -1.246086   -0.311969    0.764561
      2          6           0       -0.417740    0.219650   -0.439699
      3          9           0       -0.791509   -0.418066   -1.545489
      4          9           0       -0.655050    1.531273   -0.582650
      5         16           0        1.435343    0.006026   -0.240990
      6          8           0        1.815114    0.691863    0.962396
      7          8           0        1.759166   -1.355138   -0.519620
      8          8           0        1.902971    0.864616   -1.511329
      9          9           0       -0.917910   -1.571218    1.024620
     10          9           0       -1.032183    0.428662    1.841294
     11          9           0       -2.537315   -0.256418    0.453625
     12          1           0        1.993302    1.796759   -1.273286
 ---------------------------------------------------------------------

 SCF Done:  E(RwB97XD) =  -1199.82604425     A.U. after    1 cycles

 Isotropic polarizability for W=    0.000000       55.71 Bohr**3.
 End of Minotr F.D. properties file   721 does not exist.

                      1                      2                      3
                      A                      A                      A
 Frequencies --     25.2220                67.5477               131.2390
 Red. masses --     14.1536                14.5136                14.7134
 Frc consts  --      0.0053                 0.0390                 0.1493
 IR Inten    --      1.2841                 0.7040                 1.3022

                      4                      5                      6
                      A                      A                      A
 Frequencies --    193.0914               222.2404               233.9969
 Red. masses --      9.2158                17.9207                 8.0388
 Frc consts  --      0.2024                 0.5215                 0.2593
 IR Inten    --      8.2482                 1.2269                 9.7406

                      7                      8                      9
                      A                      A                      A
 Frequencies --    274.9330               311.2293               317.9210
 Red. masses --     15.2206                 5.2976                18.2271
 Frc consts  --      0.6779                 0.3023                 1.0854
 IR Inten    --      1.4205                15.4976                 0.2666

                     10                     11                     12
                      A                      A                      A
 Frequencies --    359.7064               371.4377               436.6739
 Red. masses --      1.8550                17.3688                 4.0627
 Frc consts  --      0.1414                 1.4119                 0.4564
 IR Inten    --     57.3617                 0.2604                31.6590

                     13                     14                     15
                      A                      A                      A
 Frequencies --    484.3467               489.4080               539.3580
 Red. masses --     13.3494                 8.3596                17.8447
 Frc consts  --      1.8451                 1.1797                 3.0585
 IR Inten    --     15.3573                20.0042                28.8482

                     16                     17                     18
                      A                      A                      A
 Frequencies --    600.3751               608.8693               653.7244
 Red. masses --     17.3862                20.1353                17.3429
 Frc consts  --      3.6923                 4.3980                 4.3668
 IR Inten    --      3.5682               118.4126                29.7608

                     19                     20                     21
                      A                      A                      A
 Frequencies --    764.6678               825.3745              1005.6284
 Red. masses --     17.1206                17.1228                13.8233
 Frc consts  --      5.8981                 6.8727                 8.2364
 IR Inten    --     41.0804               217.9981                52.9144

                     22                     23                     24
                      A                      A                      A
 Frequencies --   1131.0138              1157.4486              1200.5343
 Red. masses --      1.1950                12.3093                15.9656
 Frc consts  --      0.9006                 9.7160                13.5577
 IR Inten    --    107.0807               244.1903                 5.9491

                     25                     26                     27
                      A                      A                      A
 Frequencies --   1219.3775              1248.8140              1253.8339
 Red. masses --     13.1140                13.6614                13.1768
 Frc consts  --     11.4884                12.5528                12.2050
 IR Inten    --    110.5369               331.7207               258.8586

                     28                     29                     30
                      A                      A                      A
 Frequencies --   1344.8465              1442.2416              3833.4417
 Red. masses --     12.6395                14.2070                 1.0663
 Frc consts  --     13.4687                17.4112                 9.2318
 IR Inten    --    107.0806               314.0742               161.6378

 - Thermochemistry -
 -------------------
 Temperature   298.150 Kelvin.  Pressure   1.00000 Atm.
 Atom     1 has atomic number  6 and mass  12.00000

 Molecular mass:   199.95666 amu.
 Principal axes and moments of inertia in atomic units:
                           1         2         3
     Eigenvalues --  1133.376492198.030222320.65238
           X            0.92215   0.38365   0.04957
           Y            0.13039  -0.42890   0.89389
           Z           -0.36420   0.81784   0.44554
 This molecule is an asymmetric top.
 Rotational symmetry number  1.
 Warning -- assumption of classical behavior for rotation
           may cause significant error
 Rotational temperatures (Kelvin)      0.07642     0.03941     0.03732
 Rotational constants (GHZ):           1.59236     0.82107     0.77769
 Zero-point vibrational energy     136066.5 (Joules/Mol)
                                   32.52067 (Kcal/Mol)
 Warning -- explicit consideration of  17 degrees of freedom as
           vibrations may cause significant error
 Vibrational temperatures:     36.29    97.19   188.82   277.82   319.75
          (Kelvin)            336.67   395.57   447.79   457.42   517.54
                              534.42   628.28   696.87   704.15   776.02
                              863.81   876.03   940.56  1100.19  1187.53
                             1446.87  1627.28  1665.31  1727.30  1754.41
                             1796.76  1803.99  1934.93  2075.06  5515.47

 Zero-point correction=                           0.051825 (Hartree/Particle)
 Thermal correction to Energy=                    0.062275
 Thermal correction to Enthalpy=                  0.063220
 Thermal correction to Gibbs Free Energy=         0.014512
 Sum of electronic and zero-point Energies=          -1199.774219
 Sum of electronic and thermal Energies=             -1199.763769
 Sum of electronic and thermal Enthalpies=           -1199.762825
 Sum of electronic and thermal Free Energies=        -1199.811532

                     E (Thermal)             CV                S
                      KCal/Mol        Cal/Mol-Kelvin    Cal/Mol-Kelvin
 Total                   39.078             36.601            102.513
 Electronic               0.000              0.000              0.000
 Translational            0.889              2.981             41.783
 Rotational               0.889              2.981             30.137
 Vibrational             37.301             30.639             30.593
 Vibration     1          0.593              1.985              6.174
 Vibration     2          0.598              1.970              4.224
 Vibration     3          0.612              1.922              2.928
 Vibration     4          0.635              1.849              2.198
 Vibration     5          0.648              1.807              1.941
 Vibration     6          0.654              1.789              1.848
 Vibration     7          0.677              1.720              1.565
 Vibration     8          0.700              1.652              1.356
 Vibration     9          0.704              1.639              1.321
 Vibration    10          0.734              1.555              1.123
 Vibration    11          0.743              1.531              1.074
 Vibration    12          0.797              1.390              0.837
 Vibration    13          0.840              1.285              0.698
 Vibration    14          0.845              1.274              0.685
 Vibration    15          0.894              1.163              0.567
 Vibration    16          0.959              1.031              0.449
 Vibration    17          0.968              1.013              0.435

 Optimization completed.
    -- Stationary point found.
 Normal termination of Gaussian 16 at Fri May 23 03:43:55 2025.
