 Gaussian 16, Revision C.01,
 Gaussian 16:  ES64L-G16RevC.01  3-Jul-2019

 ----------------------------------------------------------------------
 #P wb97xd/6-311++G(d,p) Symm(None) scf(xqc) pop(None) geom(AllCheck,No
 KeepConstants) guess(Read) irc(RCFC,forward,MaxPoints=100,StepSize=2)
 ----------------------------------------------------------------------

 Structure from the checkpoint file:  "2003846667223680600001_r13_insertion_ROR_1_2_5_6_IRC_F.chk"
 ------------------------------
 Gaussian input prepared by ASE
 ------------------------------
 Charge =  0 Multiplicity = 1

 SCF Done:  E(RwB97XD) =  -1199.65969882     A.U. after   11 cycles
 SCF Done:  E(RwB97XD) =  -1199.65977148     A.U. after   11 cycles
 SCF Done:  E(RwB97XD) =  -1199.65989314     A.U. after   11 cycles
 SCF Done:  E(RwB97XD) =  -1199.66006417     A.U. after   11 cycles
 SCF Done:  E(RwB97XD) =  -1199.66028495     A.U. after   11 cycles
 SCF Done:  E(RwB97XD) =  -1199.66055583     A.U. after   11 cycles
 SCF Done:  E(RwB97XD) =  -1199.66087711     A.U. after   11 cycles
 SCF Done:  E(RwB97XD) =  -1199.66124896     A.U. after   11 cycles
 SCF Done:  E(RwB97XD) =  -1199.66167140     A.U. after   11 cycles
 SCF Done:  E(RwB97XD) =  -1199.66214423     A.U. after   11 cycles
 SCF Done:  E(RwB97XD) =  -1199.72893262     A.U. after   11 cycles
 SCF Done:  E(RwB97XD) =  -1199.72948634     A.U. after   11 cycles
 SCF Done:  E(RwB97XD) =  -1199.73003454     A.U. after   11 cycles
 SCF Done:  E(RwB97XD) =  -1199.73057728     A.U. after   11 cycles
 SCF Done:  E(RwB97XD) =  -1199.73111456     A.U. after   11 cycles
 SCF Done:  E(RwB97XD) =  -1199.73164636     A.U. after   11 cycles
 SCF Done:  E(RwB97XD) =  -1199.73217265     A.U. after   10 cycles
 SCF Done:  E(RwB97XD) =  -1199.73269345     A.U. after   10 cycles
 SCF Done:  E(RwB97XD) =  -1199.73320884     A.U. after   10 cycles
 SCF Done:  E(RwB97XD) =  -1199.73371889     A.U. after   10 cycles

                          Input orientation:
 ---------------------------------------------------------------------
 Center     Atomic      Atomic             Coordinates (Angstroms)
 Number     Number       Type             X           Y           Z
 ---------------------------------------------------------------------
      1          6           0       -1.510360    0.069617    0.583080
      2          6           0        0.504258   -1.439459   -0.635975
      3          9           0        1.507847   -2.021027   -0.027636
      4          9           0        0.835034   -1.342052   -1.903025
      5         16           0        1.088013    0.757177   -0.032921
      6          8           0       -0.480081    0.991150    0.530300
      7          8           0        2.000991    1.257268    0.964597
      8          8           0        0.907429    1.860294   -1.226541
      9          9           0       -2.515536    0.708740    1.160612
     10          9           0       -1.925078   -0.328805   -0.615467
     11          9           0       -1.236838   -0.996978    1.330526
     12          1           0        1.783497    2.110753   -1.548119
 ---------------------------------------------------------------------

 Normal termination of Gaussian 16 at Fri May 23 04:52:54 2025.
