 Gaussian 16, Revision C.01,
 Gaussian 16:  ES64L-G16RevC.01  3-Jul-2019

 ----------------------------------------------------------------------
 #P wb97xd/6-311++G(d,p) Symm(None) scf(xqc) pop(None) opt(CalcAll,Cart
 esian)
 ----------------------------------------------------------------------

 ------------------------------
 Gaussian input prepared by ASE
 ------------------------------
 Symbolic Z-matrix:
 Charge =  0 Multiplicity = 1

 SCF Done:  E(RwB97XD) =  -1199.63191016     A.U. after   16 cycles
 SCF Done:  E(RwB97XD) =  -1199.63186744     A.U. after   13 cycles
 SCF Done:  E(RwB97XD) =  -1199.63190059     A.U. after   12 cycles
 SCF Done:  E(RwB97XD) =  -1199.63191048     A.U. after    6 cycles
 SCF Done:  E(RwB97XD) =  -1199.63191121     A.U. after   11 cycles

 Isotropic polarizability for W=    0.000000       60.79 Bohr**3.
 End of Minotr F.D. properties file   721 does not exist.

 Optimization completed.
    -- Stationary point found.

                          Input orientation:
 ---------------------------------------------------------------------
 Center     Atomic      Atomic             Coordinates (Angstroms)
 Number     Number       Type             X           Y           Z
 ---------------------------------------------------------------------
      1          6           0        0.175957   -1.176510   -0.908696
      2          6           0        0.733707   -0.543471    0.339934
      3          9           0       -2.476000   -0.240482    1.115469
      4          9           0        1.277246   -1.376596    1.217138
      5         16           0        0.822869    1.032014    0.641870
      6          8           0        1.412679    1.421106    1.895060
      7          8           0        0.298759    1.942324   -0.346446
      8          8           0       -2.052985    1.104074    1.092715
      9          9           0        1.137500   -1.426434   -1.806947
     10          9           0       -0.389488   -2.338236   -0.590999
     11          9           0       -0.736872   -0.402030   -1.495213
     12          1           0       -2.288442    1.337683    0.181727
 ---------------------------------------------------------------------

                      1                      2                      3
                      A                      A                      A
 Frequencies --     26.8028                36.7242                53.7467
 Red. masses --     17.8129                15.7396                18.3497
 Frc consts  --      0.0075                 0.0125                 0.0312
 IR Inten    --      1.6733                 2.2363                 0.2750

                      4                      5                      6
                      A                      A                      A
 Frequencies --     73.8513                88.8734               120.5317
 Red. masses --      8.7340                15.0882                12.2206
 Frc consts  --      0.0281                 0.0702                 0.1046
 IR Inten    --      2.5332                 1.2264                 2.4914

                      7                      8                      9
                      A                      A                      A
 Frequencies --    135.2661               169.9904               220.4359
 Red. masses --      9.6260                16.8322                15.6360
 Frc consts  --      0.1038                 0.2866                 0.4477
 IR Inten    --      1.1651                 2.8255                 0.9897

                     10                     11                     12
                      A                      A                      A
 Frequencies --    257.4418               289.1412               330.8314
 Red. masses --     15.3779                18.0618                16.0734
 Frc consts  --      0.6005                 0.8897                 1.0365
 IR Inten    --     10.7260                57.8451                 6.6414

                     13                     14                     15
                      A                      A                      A
 Frequencies --    354.2401               414.1461               448.1345
 Red. masses --     11.7438                 1.1734                13.5783
 Frc consts  --      0.8683                 0.1186                 1.6066
 IR Inten    --      7.2252               191.4108                 0.7655

                     16                     17                     18
                      A                      A                      A
 Frequencies --    471.6860               575.4987               597.8982
 Red. masses --     13.3896                19.0328                16.3269
 Frc consts  --      1.7552                 3.7140                 3.4388
 IR Inten    --     25.5623                20.9779                 0.8531

                     19                     20                     21
                      A                      A                      A
 Frequencies --    603.9394               768.5310              1002.6439
 Red. masses --     17.3937                17.8808                16.8555
 Frc consts  --      3.7379                 6.2224                 9.9835
 IR Inten    --     23.7751                 8.0502                 4.4932

                     22                     23                     24
                      A                      A                      A
 Frequencies --   1053.1758              1169.1563              1184.0189
 Red. masses --     14.4420                14.5899                14.0239
 Frc consts  --      9.4380                11.7503                11.5834
 IR Inten    --    251.9980               202.5245               249.9283

                     25                     26                     27
                      A                      A                      A
 Frequencies --   1221.8006              1350.0553              1403.7895
 Red. masses --     13.0430                12.1831                13.1345
 Frc consts  --     11.4717                13.0831                15.2500
 IR Inten    --    236.6619               383.7193                40.6678

                     28                     29                     30
                      A                      A                      A
 Frequencies --   1414.5531              1442.6438              3793.4980
 Red. masses --     14.5966                 1.1286                 1.0685
 Frc consts  --     17.2084                 1.3840                 9.0599
 IR Inten    --    219.4049                50.0278                62.7310

 - Thermochemistry -
 -------------------
 Temperature   298.150 Kelvin.  Pressure   1.00000 Atm.
 Atom     1 has atomic number  6 and mass  12.00000

 Molecular mass:   199.95666 amu.
 Principal axes and moments of inertia in atomic units:
                           1         2         3
     Eigenvalues --  1713.522852183.455382743.06881
           X           -0.11111   0.99262   0.04850
           Y            0.79897   0.11825  -0.58963
           Z            0.59101   0.02676   0.80622
 This molecule is an asymmetric top.
 Rotational symmetry number  1.
 Warning -- assumption of classical behavior for rotation
           may cause significant error
 Rotational temperatures (Kelvin)      0.05055     0.03967     0.03158
 Rotational constants (GHZ):           1.05323     0.82655     0.65793
 Zero-point vibrational energy     126044.8 (Joules/Mol)
                                   30.12543 (Kcal/Mol)
 Warning -- explicit consideration of  19 degrees of freedom as
           vibrations may cause significant error
 Vibrational temperatures:     38.56    52.84    77.33   106.26   127.87
          (Kelvin)            173.42   194.62   244.58   317.16   370.40
                              416.01   475.99   509.67   595.86   644.77
                              678.65   828.01   860.24   868.93  1105.74
                             1442.58  1515.29  1682.16  1703.54  1757.90
                             1942.43  2019.74  2035.23  2075.64  5458.00

 Zero-point correction=                           0.048008 (Hartree/Particle)
 Thermal correction to Energy=                    0.060647
 Thermal correction to Enthalpy=                  0.061591
 Thermal correction to Gibbs Free Energy=         0.006128
 Sum of electronic and zero-point Energies=          -1199.583903
 Sum of electronic and thermal Energies=             -1199.571264
 Sum of electronic and thermal Enthalpies=           -1199.570320
 Sum of electronic and thermal Free Energies=        -1199.625784

                     E (Thermal)             CV                S
                      KCal/Mol        Cal/Mol-Kelvin    Cal/Mol-Kelvin
 Total                   38.057             39.708            116.733
 Electronic               0.000              0.000              0.000
 Translational            0.889              2.981             41.783
 Rotational               0.889              2.981             30.707
 Vibrational             36.279             33.747             44.242
 Vibration     1          0.593              1.984              6.053
 Vibration     2          0.594              1.982              5.428
 Vibration     3          0.596              1.976              4.675
 Vibration     4          0.599              1.966              4.048
 Vibration     5          0.602              1.957              3.685
 Vibration     6          0.609              1.932              3.092
 Vibration     7          0.613              1.918              2.870
 Vibration     8          0.625              1.879              2.436
 Vibration     9          0.647              1.810              1.956
 Vibration    10          0.667              1.750              1.679
 Vibration    11          0.686              1.694              1.479
 Vibration    12          0.713              1.614              1.256
 Vibration    13          0.730              1.567              1.147
 Vibration    14          0.778              1.440              0.912
 Vibration    15          0.807              1.365              0.801
 Vibration    16          0.829              1.313              0.733
 Vibration    17          0.932              1.084              0.494
 Vibration    18          0.956              1.036              0.453
 Vibration    19          0.962              1.023              0.443

 Normal termination of Gaussian 16 at Fri May 23 05:36:53 2025.
