 Gaussian 16, Revision C.01,
 Gaussian 16:  ES64L-G16RevC.01  3-Jul-2019

 ----------------------------------------------------------------------
 #P wb97xd/6-311++G(d,p) Symm(None) scf(xqc) pop(None) opt(NoFreeze,TS,
 CalcAll,NoEigentest,MaxCycle=999)
 ----------------------------------------------------------------------

 ------------------------------
 Gaussian input prepared by ASE
 ------------------------------
 Symbolic Z-matrix:
 Charge =  0 Multiplicity = 1

 SCF Done:  E(RwB97XD) =  -1199.68292473     A.U. after   17 cycles
 SCF Done:  E(RwB97XD) =  -1199.74886961     A.U. after   14 cycles
 SCF Done:  E(RwB97XD) =  -1199.79483603     A.U. after   14 cycles
 SCF Done:  E(RwB97XD) =  -1199.81740851     A.U. after   13 cycles
 SCF Done:  E(RwB97XD) =  -1199.82135040     A.U. after   13 cycles
 SCF Done:  E(RwB97XD) =  -1199.82198572     A.U. after   12 cycles
 SCF Done:  E(RwB97XD) =  -1199.82201823     A.U. after   10 cycles
 SCF Done:  E(RwB97XD) =  -1199.82201836     A.U. after    8 cycles

 Isotropic polarizability for W=    0.000000       55.64 Bohr**3.
 End of Minotr F.D. properties file   721 does not exist.

 Optimization completed.
    -- Stationary point found.

                          Input orientation:
 ---------------------------------------------------------------------
 Center     Atomic      Atomic             Coordinates (Angstroms)
 Number     Number       Type             X           Y           Z
 ---------------------------------------------------------------------
      1          6           0       -0.830316   -0.174550    1.399294
      2          6           0       -0.033119    0.540194    0.237779
      3          9           0       -0.565099    0.221624   -0.937731
      4          9           0       -0.094991    1.867070    0.396299
      5         16           0        1.785227    0.086224    0.191146
      6          8           0        2.391503    0.620875    1.378371
      7          8           0        1.885384   -1.276211   -0.223099
      8          8           0        2.212641    0.989021   -1.063915
      9          9           0       -0.021344   -0.947795    2.116097
     10          9           0       -1.371473    0.731585    2.200487
     11          9           0       -1.793219   -0.926421    0.888413
     12          1           0        2.485228    1.866413   -0.764855
 ---------------------------------------------------------------------

 ******    1 imaginary frequencies (negative Signs) ******

                      1                      2                      3
                      A                      A                      A
 Frequencies --    -51.7839                73.0700               141.3048
 Red. masses --     17.8478                11.8372                12.5012
 Frc consts  --      0.0282                 0.0372                 0.1471
 IR Inten    --      0.1340                 2.1494                 2.1451

                      4                      5                      6
                      A                      A                      A
 Frequencies --    185.8412               237.7476               279.1038
 Red. masses --     11.1362                 8.3895                12.0056
 Frc consts  --      0.2266                 0.2794                 0.5510
 IR Inten    --      6.6736                 7.2858                 0.7726

                      7                      8                      9
                      A                      A                      A
 Frequencies --    281.5814               309.0827               335.2969
 Red. masses --     17.2101                 3.9921                17.7791
 Frc consts  --      0.8040                 0.2247                 1.1777
 IR Inten    --      5.1137                23.7118                 0.4509

                     10                     11                     12
                      A                      A                      A
 Frequencies --    349.9076               375.5782               430.7098
 Red. masses --      2.0913                16.5983                 4.3023
 Frc consts  --      0.1509                 1.3795                 0.4702
 IR Inten    --     51.9394                 0.5215                26.0686

                     13                     14                     15
                      A                      A                      A
 Frequencies --    484.9217               489.4401               542.3152
 Red. masses --     12.1907                 8.8034                17.9032
 Frc consts  --      1.6890                 1.2425                 3.1023
 IR Inten    --     33.9864                 4.9493                30.9060

                     16                     17                     18
                      A                      A                      A
 Frequencies --    595.5934               609.5356               656.3843
 Red. masses --     17.3581                19.9822                17.3368
 Frc consts  --      3.6279                 4.3741                 4.4008
 IR Inten    --      3.1279               113.8039                28.8181

                     19                     20                     21
                      A                      A                      A
 Frequencies --    765.1703               824.7671               996.8586
 Red. masses --     17.0422                17.1322                13.8611
 Frc consts  --      5.8789                 6.8664                 8.1155
 IR Inten    --     45.6244               220.4465                39.4828

                     22                     23                     24
                      A                      A                      A
 Frequencies --   1131.0204              1157.3285              1195.3356
 Red. masses --      1.1991                12.0096                16.1223
 Frc consts  --      0.9038                 9.4774                13.5724
 IR Inten    --    110.0823               280.1548                 3.7816

                     25                     26                     27
                      A                      A                      A
 Frequencies --   1219.5005              1250.7497              1255.4506
 Red. masses --     13.1719                13.1415                13.5441
 Frc consts  --     11.5415                12.1126                12.5776
 IR Inten    --    160.7142               247.1940               281.7965

                     28                     29                     30
                      A                      A                      A
 Frequencies --   1317.6772              1443.4239              3833.8309
 Red. masses --     12.7733                14.1645                 1.0663
 Frc consts  --     13.0669                17.3876                 9.2338
 IR Inten    --    110.2495               305.2850               163.4594

 - Thermochemistry -
 -------------------
 Temperature   298.150 Kelvin.  Pressure   1.00000 Atm.
 Atom     1 has atomic number  6 and mass  12.00000

 Molecular mass:   199.95666 amu.
 Principal axes and moments of inertia in atomic units:
                           1         2         3
     Eigenvalues --  1137.434602208.288702338.60281
           X            0.89133  -0.40278   0.20810
           Y            0.11713   0.64802   0.75256
           Z           -0.43797  -0.64640   0.62477
 This molecule is an asymmetric top.
 Rotational symmetry number  1.
 Warning -- assumption of classical behavior for rotation
           may cause significant error
 Rotational temperatures (Kelvin)      0.07615     0.03922     0.03704
 Rotational constants (GHZ):           1.58668     0.81726     0.77172
    1 imaginary frequencies ignored.
 Zero-point vibrational energy     136186.0 (Joules/Mol)
                                   32.54924 (Kcal/Mol)
 Warning -- explicit consideration of  16 degrees of freedom as
           vibrations may cause significant error
 Vibrational temperatures:    105.13   203.31   267.38   342.07   401.57
          (Kelvin)            405.13   444.70   482.42   503.44   540.37
                              619.70   697.69   704.20   780.27   856.93
                              876.99   944.39  1100.91  1186.66  1434.26
                             1627.29  1665.14  1719.82  1754.59  1799.55
                             1806.31  1895.84  2076.77  5516.03

 Zero-point correction=                           0.051871 (Hartree/Particle)
 Thermal correction to Energy=                    0.061317
 Thermal correction to Enthalpy=                  0.062261
 Thermal correction to Gibbs Free Energy=         0.016823
 Sum of electronic and zero-point Energies=          -1199.770148
 Sum of electronic and thermal Energies=             -1199.760702
 Sum of electronic and thermal Enthalpies=           -1199.759758
 Sum of electronic and thermal Free Energies=        -1199.805195

                     E (Thermal)             CV                S
                      KCal/Mol        Cal/Mol-Kelvin    Cal/Mol-Kelvin
 Total                   38.477             34.513             95.632
 Electronic               0.000              0.000              0.000
 Translational            0.889              2.981             41.783
 Rotational               0.889              2.981             30.153
 Vibrational             36.699             28.551             23.695
 Vibration     1          0.599              1.967              4.069
 Vibration     2          0.615              1.912              2.786
 Vibration     3          0.632              1.859              2.269
 Vibration     4          0.656              1.783              1.820
 Vibration     5          0.679              1.712              1.539
 Vibration     6          0.681              1.708              1.524
 Vibration     7          0.698              1.656              1.367
 Vibration     8          0.716              1.605              1.234
 Vibration     9          0.727              1.575              1.167
 Vibration    10          0.746              1.522              1.057
 Vibration    11          0.792              1.403              0.856
 Vibration    12          0.841              1.283              0.697
 Vibration    13          0.845              1.273              0.685
 Vibration    14          0.897              1.157              0.560
 Vibration    15          0.953              1.041              0.457
 Vibration    16          0.969              1.012              0.434

 Normal termination of Gaussian 16 at Fri May 23 03:26:38 2025.
