 Gaussian 16, Revision C.01,
 Gaussian 16:  ES64L-G16RevC.01  3-Jul-2019

 ----------------------------------------------------------------------
 #P mp2/6-31G Symm(None) scf(xqc) pop(None) guess(Read,Mix) geom(AllChe
 ck,NoKeepConstants) irc(RCFC,reverse,MaxPoints=100,StepSize=2)
 ----------------------------------------------------------------------

 Structure from the checkpoint file:  "2003846667223680600001_R_Addition_MultipleBond_5_2_1_IRC_R.chk"
 ------------------------------
 Gaussian input prepared by ASE
 ------------------------------
 Charge =  0 Multiplicity = 1

 SCF Done:  E(RHF) =  -1194.96585894     A.U. after   17 cycles
 E2 =    -0.1289545980D+01 EUMP2 =    -0.11962554049182D+04

                          Input orientation:
 ---------------------------------------------------------------------
 Center     Atomic      Atomic             Coordinates (Angstroms)
 Number     Number       Type             X           Y           Z
 ---------------------------------------------------------------------
      1          6           0       -1.178829   -0.480851    0.857798
      2          6           0       -0.565766    0.209026   -0.370475
      3          9           0       -0.944587   -0.458833   -1.526710
      4          9           0       -0.941767    1.544763   -0.399781
      5         16           0        1.437620    0.195166   -0.350756
      6          8           0        1.974741    1.123157    0.827556
      7          8           0        1.970771   -1.295169   -0.530176
      8          8           0        1.440833    1.086634   -1.937399
      9          9           0       -0.764285   -1.807261    0.907341
     10          9           0       -0.761141    0.164898    2.016379
     11          9           0       -2.566678   -0.436902    0.783579
     12          1           0        2.379859    1.254678   -2.216661
 ---------------------------------------------------------------------

 Normal termination of Gaussian 16 at Fri May 23 04:31:35 2025.
