 Gaussian 16, Revision C.01,
 Gaussian 16:  ES64L-G16RevC.01  3-Jul-2019

 ----------------------------------------------------------------------
 #P wb97xd/6-311++G(d,p) Symm(None) scf(xqc) pop(None) freq opt(CalcFC)
 ----------------------------------------------------------------------

 ------------------------------
 Gaussian input prepared by ASE
 ------------------------------
 Symbolic Z-matrix:
 Charge =  0 Multiplicity = 1

 SCF Done:  E(RwB97XD) =  -1199.75767500     A.U. after   14 cycles
 SCF Done:  E(RwB97XD) =  -1199.79482877     A.U. after   13 cycles
 SCF Done:  E(RwB97XD) =  -1199.81858616     A.U. after   14 cycles
 SCF Done:  E(RwB97XD) =  -1199.81915372     A.U. after   13 cycles
 SCF Done:  E(RwB97XD) =  -1199.81904142     A.U. after   15 cycles
 SCF Done:  E(RwB97XD) =  -1199.81615879     A.U. after   14 cycles
 SCF Done:  E(RwB97XD) =  -1199.81671711     A.U. after   13 cycles
 SCF Done:  E(RwB97XD) =  -1199.82057600     A.U. after   11 cycles
 SCF Done:  E(RwB97XD) =  -1199.79750211     A.U. after   13 cycles
 SCF Done:  E(RwB97XD) =  -1199.82208926     A.U. after   12 cycles
 SCF Done:  E(RwB97XD) =  -1199.82522239     A.U. after   12 cycles
 SCF Done:  E(RwB97XD) =  -1199.82545921     A.U. after   12 cycles
 SCF Done:  E(RwB97XD) =  -1199.82568654     A.U. after   12 cycles
 SCF Done:  E(RwB97XD) =  -1199.82584937     A.U. after   11 cycles
 SCF Done:  E(RwB97XD) =  -1199.82590743     A.U. after   11 cycles
 SCF Done:  E(RwB97XD) =  -1199.82596321     A.U. after   11 cycles
 SCF Done:  E(RwB97XD) =  -1199.82597556     A.U. after   11 cycles
 SCF Done:  E(RwB97XD) =  -1199.82597796     A.U. after    9 cycles
 SCF Done:  E(RwB97XD) =  -1199.82597849     A.U. after    9 cycles
 Optimization completed.
    -- Stationary point found.
 Normal termination of Gaussian 16 at Fri May 23 04:22:50 2025.

 ----------------------------------------------------------------------
 #P Geom=AllCheck Guess=TCheck SCRF=Check GenChk RwB97XD/6-311++G(d,p)
 Freq
 ----------------------------------------------------------------------

 Structure from the checkpoint file:  "2003846667223680600001_r12_insertion_R_2_1_9_IRC_R_prod.chk"
 ------------------------------
 Gaussian input prepared by ASE
 ------------------------------
 Charge =  0 Multiplicity = 1

                          Input orientation:
 ---------------------------------------------------------------------
 Center     Atomic      Atomic             Coordinates (Angstroms)
 Number     Number       Type             X           Y           Z
 ---------------------------------------------------------------------
      1          6           0       -1.129963   -0.196242    0.803888
      2          6           0       -0.309142   -0.397027   -0.501963
      3          9           0       -0.270803   -1.695357   -0.794244
      4          9           0       -0.909763    0.263932   -1.500763
      5         16           0        1.468952    0.200208   -0.436382
      6          8           0        1.993192   -0.082338    0.861373
      7          8           0        2.072586   -0.247905   -1.659244
      8          8           0        1.235687    1.782589   -0.514566
      9          9           0       -0.671804   -0.979701    1.765781
     10          9           0       -1.073401    1.070249    1.197950
     11          9           0       -2.399635   -0.511919    0.559968
     12          1           0        1.193453    2.070881   -1.435843
 ---------------------------------------------------------------------

 SCF Done:  E(RwB97XD) =  -1199.82597849     A.U. after    1 cycles

 Isotropic polarizability for W=    0.000000       55.73 Bohr**3.
 End of Minotr F.D. properties file   721 does not exist.

                      1                      2                      3
                      A                      A                      A
 Frequencies --     44.0496                66.5989               132.1273
 Red. masses --     13.1900                16.0705                16.7459
 Frc consts  --      0.0151                 0.0420                 0.1722
 IR Inten    --      1.9681                 0.4207                 0.7193

                      4                      5                      6
                      A                      A                      A
 Frequencies --    190.9777               223.8620               239.9967
 Red. masses --      5.7097                17.2025                14.7187
 Frc consts  --      0.1227                 0.5079                 0.4995
 IR Inten    --     13.8564                 1.3168                 7.4624

                      7                      8                      9
                      A                      A                      A
 Frequencies --    276.4356               311.1048               316.8976
 Red. masses --     12.4238                15.7433                 5.7140
 Frc consts  --      0.5594                 0.8978                 0.3381
 IR Inten    --      0.8270                 0.5706                11.6689

                     10                     11                     12
                      A                      A                      A
 Frequencies --    345.1501               374.3731               436.3069
 Red. masses --      1.9967                 7.1750                11.9909
 Frc consts  --      0.1401                 0.5925                 1.3449
 IR Inten    --     53.9781                 8.7110                16.1838

                     13                     14                     15
                      A                      A                      A
 Frequencies --    458.3094               510.1055               537.9999
 Red. masses --      4.2855                14.2451                17.9980
 Frc consts  --      0.5304                 2.1839                 3.0693
 IR Inten    --     36.7359                13.3045                23.4661

                     16                     17                     18
                      A                      A                      A
 Frequencies --    600.5818               609.3443               654.3290
 Red. masses --     17.4292                20.2448                17.1155
 Frc consts  --      3.7040                 4.4288                 4.3175
 IR Inten    --      4.1449               119.7768                25.1155

                     19                     20                     21
                      A                      A                      A
 Frequencies --    765.0680               833.9675              1006.2827
 Red. masses --     17.1744                17.4373                13.5133
 Frc consts  --      5.9229                 7.1454                 8.0622
 IR Inten    --     20.2724               195.2766               113.2379

                     22                     23                     24
                      A                      A                      A
 Frequencies --   1131.7128              1153.2184              1206.1169
 Red. masses --      1.1906                14.0513                13.7805
 Frc consts  --      0.8985                11.0101                11.8112
 IR Inten    --     91.0568               133.5154                46.9924

                     25                     26                     27
                      A                      A                      A
 Frequencies --   1224.3658              1235.1056              1260.8982
 Red. masses --     14.0220                13.3865                13.2921
 Frc consts  --     12.3846                12.0317                12.4510
 IR Inten    --    197.0771               214.9911               395.3401

                     28                     29                     30
                      A                      A                      A
 Frequencies --   1345.4564              1444.1136              3833.8620
 Red. masses --     12.6775                14.1644                 1.0663
 Frc consts  --     13.5215                17.4041                 9.2340
 IR Inten    --     96.2155               293.7073               163.6884

 - Thermochemistry -
 -------------------
 Temperature   298.150 Kelvin.  Pressure   1.00000 Atm.
 Atom     1 has atomic number  6 and mass  12.00000

 Molecular mass:   199.95666 amu.
 Principal axes and moments of inertia in atomic units:
                           1         2         3
     Eigenvalues --  1146.414652162.332052301.98832
           X            0.88757   0.30403  -0.34611
           Y            0.18821   0.44642   0.87480
           Z           -0.42048   0.84159  -0.33901
 This molecule is an asymmetric top.
 Rotational symmetry number  1.
 Warning -- assumption of classical behavior for rotation
           may cause significant error
 Rotational temperatures (Kelvin)      0.07555     0.04006     0.03763
 Rotational constants (GHZ):           1.57425     0.83463     0.78399
 Zero-point vibrational energy     136187.2 (Joules/Mol)
                                   32.54952 (Kcal/Mol)
 Warning -- explicit consideration of  17 degrees of freedom as
           vibrations may cause significant error
 Vibrational temperatures:     63.38    95.82   190.10   274.77   322.09
          (Kelvin)            345.30   397.73   447.61   455.95   496.59
                              538.64   627.75   659.41   733.93   774.06
                              864.10   876.71   941.43  1100.76  1199.89
                             1447.82  1628.28  1659.22  1735.33  1761.59
                             1777.04  1814.15  1935.81  2077.76  5516.07

 Zero-point correction=                           0.051871 (Hartree/Particle)
 Thermal correction to Energy=                    0.062289
 Thermal correction to Enthalpy=                  0.063234
 Thermal correction to Gibbs Free Energy=         0.015038
 Sum of electronic and zero-point Energies=          -1199.774108
 Sum of electronic and thermal Energies=             -1199.763689
 Sum of electronic and thermal Enthalpies=           -1199.762745
 Sum of electronic and thermal Free Energies=        -1199.810941

                     E (Thermal)             CV                S
                      KCal/Mol        Cal/Mol-Kelvin    Cal/Mol-Kelvin
 Total                   39.087             36.607            101.437
 Electronic               0.000              0.000              0.000
 Translational            0.889              2.981             41.783
 Rotational               0.889              2.981             30.124
 Vibrational             37.310             30.645             29.530
 Vibration     1          0.595              1.980              5.068
 Vibration     2          0.598              1.970              4.251
 Vibration     3          0.612              1.921              2.915
 Vibration     4          0.634              1.852              2.218
 Vibration     5          0.649              1.805              1.928
 Vibration     6          0.657              1.779              1.803
 Vibration     7          0.678              1.717              1.556
 Vibration     8          0.700              1.653              1.356
 Vibration     9          0.704              1.641              1.326
 Vibration    10          0.724              1.585              1.188
 Vibration    11          0.745              1.525              1.062
 Vibration    12          0.797              1.391              0.838
 Vibration    13          0.816              1.343              0.771
 Vibration    14          0.865              1.228              0.633
 Vibration    15          0.893              1.166              0.570
 Vibration    16          0.959              1.031              0.449
 Vibration    17          0.968              1.012              0.434

 Optimization completed.
    -- Stationary point found.
 Normal termination of Gaussian 16 at Fri May 23 04:24:25 2025.
