 Gaussian 16, Revision C.01,
 Gaussian 16:  ES64L-G16RevC.01  3-Jul-2019

 ----------------------------------------------------------------------
 #P wb97xd/6-311++G(d,p) Symm(None) scf(xqc) pop(None) geom(AllCheck,No
 KeepConstants) guess(Read) irc(RCFC,reverse,MaxPoints=100,StepSize=2)
 ----------------------------------------------------------------------

 Structure from the checkpoint file:  "2003846667223680600001_r12_insertion_R_6_5_8_IRC_R.chk"
 ------------------------------
 Gaussian input prepared by ASE
 ------------------------------
 Charge =  0 Multiplicity = 1

 SCF Done:  E(RwB97XD) =  -1199.82201643     A.U. after    9 cycles

                          Input orientation:
 ---------------------------------------------------------------------
 Center     Atomic      Atomic             Coordinates (Angstroms)
 Number     Number       Type             X           Y           Z
 ---------------------------------------------------------------------
      1          6           0       -1.265104   -0.308245    0.780930
      2          6           0       -0.415854    0.373632   -0.363352
      3          9           0       -0.902553    0.031963   -1.551895
      4          9           0       -0.473227    1.704262   -0.237595
      5         16           0        1.399076   -0.094638   -0.326256
      6          8           0        1.960319    0.459265    0.874273
      7          8           0        1.505259   -1.465730   -0.709187
      8          8           0        1.884823    0.779705   -1.580216
      9          9           0       -0.494477   -1.080848    1.539477
     10          9           0       -1.820344    0.619890    1.546478
     11          9           0       -2.220784   -1.054520    0.248551
     12          1           0        2.150970    1.661304   -1.287775
 ---------------------------------------------------------------------

 Normal termination of Gaussian 16 at Fri May 23 03:38:13 2025.
