 Gaussian 16, Revision C.01,
 Gaussian 16:  ES64L-G16RevC.01  3-Jul-2019

 ----------------------------------------------------------------------
 #P wb97xd/6-311++G(d,p) Symm(None) scf(xqc) pop(None) geom(AllCheck,No
 KeepConstants) guess(Read) irc(RCFC,forward,MaxPoints=100,StepSize=2)
 ----------------------------------------------------------------------

 Structure from the checkpoint file:  "2003846667223680600001_r12_insertion_R_9_1_10_IRC_F.chk"
 ------------------------------
 Gaussian input prepared by ASE
 ------------------------------
 Charge =  0 Multiplicity = 1

 SCF Done:  E(RwB97XD) =  -1199.66370658     A.U. after   12 cycles
 SCF Done:  E(RwB97XD) =  -1199.66379871     A.U. after   12 cycles
 SCF Done:  E(RwB97XD) =  -1199.66394882     A.U. after   13 cycles
 SCF Done:  E(RwB97XD) =  -1199.66415418     A.U. after   13 cycles
 SCF Done:  E(RwB97XD) =  -1199.66441206     A.U. after   13 cycles
 SCF Done:  E(RwB97XD) =  -1199.66471959     A.U. after   13 cycles
 SCF Done:  E(RwB97XD) =  -1199.66507371     A.U. after   13 cycles
 SCF Done:  E(RwB97XD) =  -1199.66547115     A.U. after   13 cycles
 SCF Done:  E(RwB97XD) =  -1199.66590871     A.U. after   13 cycles
 SCF Done:  E(RwB97XD) =  -1199.66638340     A.U. after   13 cycles
 SCF Done:  E(RwB97XD) =  -1199.72822897     A.U. after   10 cycles
 SCF Done:  E(RwB97XD) =  -1199.72890257     A.U. after   10 cycles
 SCF Done:  E(RwB97XD) =  -1199.72957142     A.U. after   10 cycles
 SCF Done:  E(RwB97XD) =  -1199.73023541     A.U. after   10 cycles
 SCF Done:  E(RwB97XD) =  -1199.73089446     A.U. after    9 cycles
 SCF Done:  E(RwB97XD) =  -1199.73154847     A.U. after    9 cycles
 SCF Done:  E(RwB97XD) =  -1199.73219736     A.U. after    9 cycles
 SCF Done:  E(RwB97XD) =  -1199.73284103     A.U. after    9 cycles
 SCF Done:  E(RwB97XD) =  -1199.73347941     A.U. after    9 cycles
 SCF Done:  E(RwB97XD) =  -1199.73411240     A.U. after    9 cycles

                          Input orientation:
 ---------------------------------------------------------------------
 Center     Atomic      Atomic             Coordinates (Angstroms)
 Number     Number       Type             X           Y           Z
 ---------------------------------------------------------------------
      1          6           0       -1.754501   -0.208920    0.354228
      2          6           0       -1.324238    0.585971   -0.603007
      3          9           0       -1.081082    0.184567   -1.826889
      4          9           0       -1.008334    1.853135   -0.373223
      5         16           0        1.624457   -0.214232    0.073989
      6          8           0        2.476154    0.482962    0.981235
      7          8           0        1.771963   -1.391347   -0.703811
      8          8           0        1.232638    0.879148   -1.019654
      9          9           0       -1.920204    0.190135    1.590492
     10          9           0        0.465082   -0.679919    1.109597
     11          9           0       -1.929775   -1.494752    0.192152
     12          1           0        1.335727    1.768623   -0.652550
 ---------------------------------------------------------------------

 Normal termination of Gaussian 16 at Fri May 23 04:23:45 2025.
