 Gaussian 16, Revision C.01,
 Gaussian 16:  ES64L-G16RevC.01  3-Jul-2019

 ----------------------------------------------------------------------
 #P wb97xd/6-311++G(d,p) Symm(None) scf(xqc) pop(None) geom(AllCheck,No
 KeepConstants) guess(Read) irc(RCFC,forward,MaxPoints=100,StepSize=2)
 ----------------------------------------------------------------------

 Structure from the checkpoint file:  "2003846667223680600001_r12_insertion_R_3_2_1_IRC_F.chk"
 ------------------------------
 Gaussian input prepared by ASE
 ------------------------------
 Charge =  0 Multiplicity = 1

 SCF Done:  E(RwB97XD) =  -1199.63686100     A.U. after   11 cycles
 SCF Done:  E(RwB97XD) =  -1199.63699967     A.U. after   11 cycles
 SCF Done:  E(RwB97XD) =  -1199.63723103     A.U. after   11 cycles
 SCF Done:  E(RwB97XD) =  -1199.63755567     A.U. after   11 cycles
 SCF Done:  E(RwB97XD) =  -1199.63797378     A.U. after   11 cycles
 SCF Done:  E(RwB97XD) =  -1199.63848520     A.U. after   11 cycles
 SCF Done:  E(RwB97XD) =  -1199.63908951     A.U. after   11 cycles
 SCF Done:  E(RwB97XD) =  -1199.63978615     A.U. after   11 cycles
 SCF Done:  E(RwB97XD) =  -1199.64057439     A.U. after   11 cycles
 SCF Done:  E(RwB97XD) =  -1199.64145319     A.U. after   11 cycles
 SCF Done:  E(RwB97XD) =  -1199.78027271     A.U. after   10 cycles
 SCF Done:  E(RwB97XD) =  -1199.78134100     A.U. after   10 cycles
 SCF Done:  E(RwB97XD) =  -1199.78238755     A.U. after   10 cycles
 SCF Done:  E(RwB97XD) =  -1199.78341253     A.U. after   10 cycles
 SCF Done:  E(RwB97XD) =  -1199.78441610     A.U. after   10 cycles
 SCF Done:  E(RwB97XD) =  -1199.78539843     A.U. after   10 cycles
 SCF Done:  E(RwB97XD) =  -1199.78635971     A.U. after   10 cycles
 SCF Done:  E(RwB97XD) =  -1199.78730010     A.U. after   10 cycles
 SCF Done:  E(RwB97XD) =  -1199.78821981     A.U. after   10 cycles
 SCF Done:  E(RwB97XD) =  -1199.78911903     A.U. after   10 cycles

                          Input orientation:
 ---------------------------------------------------------------------
 Center     Atomic      Atomic             Coordinates (Angstroms)
 Number     Number       Type             X           Y           Z
 ---------------------------------------------------------------------
      1          6           0       -1.473560   -0.589345    0.665598
      2          6           0       -0.379013    0.261290   -0.312060
      3          9           0       -0.504296   -0.481925   -1.397825
      4          9           0       -0.671471    1.540586   -0.640628
      5         16           0        1.575080    0.384039   -0.085791
      6          8           0        2.072586    1.598963    0.507395
      7          8           0        1.940232   -0.922138    0.360907
      8          8           0        1.918596    0.473874   -1.657937
      9          9           0       -1.875537   -1.725908    0.086542
     10          9           0       -0.955574   -0.949625    1.826786
     11          9           0       -2.577465    0.135028    0.812024
     12          1           0        2.075577    1.394557   -1.904478
 ---------------------------------------------------------------------

 Normal termination of Gaussian 16 at Fri May 23 03:56:37 2025.
