 Gaussian 16, Revision C.01,
 Gaussian 16:  ES64L-G16RevC.01  3-Jul-2019

 ----------------------------------------------------------------------
 #P wb97xd/6-311++G(d,p) Symm(None) scf(xqc) pop(None) opt(NoFreeze,TS,
 CalcAll,NoEigentest,MaxCycle=999)
 ----------------------------------------------------------------------

 ------------------------------
 Gaussian input prepared by ASE
 ------------------------------
 Symbolic Z-matrix:
 Charge =  0 Multiplicity = 1

 SCF Done:  E(RwB97XD) =  -1199.65165614     A.U. after   16 cycles
 SCF Done:  E(RwB97XD) =  -1199.65126921     A.U. after   15 cycles
 SCF Done:  E(RwB97XD) =  -1199.66039618     A.U. after   17 cycles
 SCF Done:  E(RwB97XD) =  -1199.66875584     A.U. after   18 cycles
 SCF Done:  E(RwB97XD) =  -1199.67155503     A.U. after   16 cycles
 SCF Done:  E(RwB97XD) =  -1199.67341107     A.U. after   16 cycles
 SCF Done:  E(RwB97XD) =  -1199.67694889     A.U. after   16 cycles
 SCF Done:  E(RwB97XD) =  -1199.68290999     A.U. after   16 cycles
 SCF Done:  E(RwB97XD) =  -1199.69063398     A.U. after   15 cycles
 SCF Done:  E(RwB97XD) =  -1199.69818052     A.U. after   14 cycles
 SCF Done:  E(RwB97XD) =  -1199.70290951     A.U. after   14 cycles
 SCF Done:  E(RwB97XD) =  -1199.70431348     A.U. after   16 cycles
 SCF Done:  E(RwB97XD) =  -1199.70498313     A.U. after   16 cycles
 SCF Done:  E(RwB97XD) =  -1199.70519605     A.U. after   14 cycles
 SCF Done:  E(RwB97XD) =  -1199.70526902     A.U. after   14 cycles
 SCF Done:  E(RwB97XD) =  -1199.70528522     A.U. after   13 cycles
 SCF Done:  E(RwB97XD) =  -1199.70528730     A.U. after   13 cycles
 SCF Done:  E(RwB97XD) =  -1199.70528774     A.U. after   12 cycles
 SCF Done:  E(RwB97XD) =  -1199.70528783     A.U. after   11 cycles
 SCF Done:  E(RwB97XD) =  -1199.70528784     A.U. after   10 cycles

 Isotropic polarizability for W=    0.000000       62.92 Bohr**3.
 End of Minotr F.D. properties file   721 does not exist.

 Optimization completed on the basis of negligible forces.
    -- Stationary point found.

                          Input orientation:
 ---------------------------------------------------------------------
 Center     Atomic      Atomic             Coordinates (Angstroms)
 Number     Number       Type             X           Y           Z
 ---------------------------------------------------------------------
      1          6           0       -0.951623    0.436973    1.282568
      2          6           0        0.064101   -0.073909    0.224435
      3          9           0        0.249110   -1.387555    0.457692
      4          9           0       -0.473100    0.080317   -0.996103
      5         16           0        2.382110    0.333573   -0.110826
      6          8           0        3.011228   -0.560922    0.800234
      7          8           0        2.465927    0.193075   -1.525107
      8          8           0        2.049778    1.710644    0.417128
      9          9           0       -2.092118   -0.235089    1.222125
     10          9           0       -0.428585    0.296125    2.499065
     11          9           0       -1.202251    1.731214    1.073793
     12          1           0        0.975845    1.073592    0.473290
 ---------------------------------------------------------------------

 ******    1 imaginary frequencies (negative Signs) ******

                      1                      2                      3
                      A                      A                      A
 Frequencies --  -1995.5669                 8.1997                52.1528
 Red. masses --      1.1116                15.0205                18.5771
 Frc consts  --      2.6081                 0.0006                 0.0298
 IR Inten    --    420.2633                 0.0464                 0.0036

                      4                      5                      6
                      A                      A                      A
 Frequencies --    100.5421               147.7206               156.5690
 Red. masses --     15.9352                15.6964                17.6867
 Frc consts  --      0.0949                 0.2018                 0.2555
 IR Inten    --      1.4621                 2.1992                 9.9531

                      7                      8                      9
                      A                      A                      A
 Frequencies --    210.2482               229.1287               279.9982
 Red. masses --     15.7710                17.2772                17.2837
 Frc consts  --      0.4107                 0.5344                 0.7984
 IR Inten    --      3.2338                 2.0586                 0.1656

                     10                     11                     12
                      A                      A                      A
 Frequencies --    336.5236               364.9281               427.6037
 Red. masses --     13.6855                17.9744                16.0538
 Frc consts  --      0.9132                 1.4103                 1.7295
 IR Inten    --      5.4608                 0.4941                 1.3471

                     13                     14                     15
                      A                      A                      A
 Frequencies --    467.9307               501.0028               538.3701
 Red. masses --     14.2761                16.6852                17.7238
 Frc consts  --      1.8417                 2.4675                 3.0267
 IR Inten    --     14.0713                45.6581                26.7044

                     16                     17                     18
                      A                      A                      A
 Frequencies --    548.8885               587.8390               618.7677
 Red. masses --     18.6597                16.2679                15.2231
 Frc consts  --      3.3122                 3.3121                 3.4341
 IR Inten    --    347.5445                 1.9611                12.1898

                     19                     20                     21
                      A                      A                      A
 Frequencies --    750.2632               914.5199              1002.9069
 Red. masses --     16.5766                11.6776                 1.8846
 Frc consts  --      5.4976                 5.7543                 1.1168
 IR Inten    --     11.9929                33.0054                76.1509

                     22                     23                     24
                      A                      A                      A
 Frequencies --   1014.3436              1127.5815              1184.6876
 Red. masses --      2.4287                12.5076                 7.7333
 Frc consts  --      1.4723                 9.3696                 6.3947
 IR Inten    --    121.9892                59.8467               129.7718

                     25                     26                     27
                      A                      A                      A
 Frequencies --   1220.9682              1234.0448              1270.9909
 Red. masses --     12.0945                 9.7194                13.8225
 Frc consts  --     10.6230                 8.7207                13.1559
 IR Inten    --    249.9035               178.0235               407.5073

                     28                     29                     30
                      A                      A                      A
 Frequencies --   1289.6142              1450.5948              1936.4981
 Red. masses --     12.4898                19.4752                 1.0555
 Frc consts  --     12.2384                24.1449                 2.3320
 IR Inten    --    366.5888               215.2616                13.8735

 - Thermochemistry -
 -------------------
 Temperature   298.150 Kelvin.  Pressure   1.00000 Atm.
 Atom     1 has atomic number  6 and mass  12.00000

 Molecular mass:   199.95666 amu.
 Principal axes and moments of inertia in atomic units:
                           1         2         3
     Eigenvalues --  1071.101652730.231342813.73003
           X            0.92643   0.33393  -0.17382
           Y           -0.02663   0.51870   0.85454
           Z           -0.37552   0.78705  -0.48944
 This molecule is an asymmetric top.
 Rotational symmetry number  1.
 Warning -- assumption of classical behavior for rotation
           may cause significant error
 Rotational temperatures (Kelvin)      0.08086     0.03172     0.03078
 Rotational constants (GHZ):           1.68494     0.66102     0.64141
    1 imaginary frequencies ignored.
 Zero-point vibrational energy     119467.6 (Joules/Mol)
                                   28.55345 (Kcal/Mol)
 Warning -- explicit consideration of  17 degrees of freedom as
           vibrations may cause significant error
 Vibrational temperatures:     11.80    75.04   144.66   212.54   225.27
          (Kelvin)            302.50   329.67   402.85   484.18   525.05
                              615.23   673.25   720.83   774.59   789.73
                              845.77   890.27  1079.46  1315.79  1442.96
                             1459.41  1622.34  1704.50  1756.70  1775.52
                             1828.67  1855.47  2087.08  2786.19

 Zero-point correction=                           0.045503 (Hartree/Particle)
 Thermal correction to Energy=                    0.056111
 Thermal correction to Enthalpy=                  0.057055
 Thermal correction to Gibbs Free Energy=         0.006206
 Sum of electronic and zero-point Energies=          -1199.659785
 Sum of electronic and thermal Energies=             -1199.649177
 Sum of electronic and thermal Enthalpies=           -1199.648233
 Sum of electronic and thermal Free Energies=        -1199.699082

                     E (Thermal)             CV                S
                      KCal/Mol        Cal/Mol-Kelvin    Cal/Mol-Kelvin
 Total                   35.210             35.710            107.021
 Electronic               0.000              0.000              0.000
 Translational            0.889              2.981             41.783
 Rotational               0.889              2.981             30.488
 Vibrational             33.432             29.749             34.750
 Vibration     1          0.593              1.987              8.405
 Vibration     2          0.596              1.977              4.734
 Vibration     3          0.604              1.949              3.444
 Vibration     4          0.617              1.905              2.701
 Vibration     5          0.620              1.895              2.591
 Vibration     6          0.642              1.825              2.042
 Vibration     7          0.652              1.797              1.886
 Vibration     8          0.680              1.711              1.534
 Vibration     9          0.717              1.603              1.229
 Vibration    10          0.738              1.544              1.101
 Vibration    11          0.789              1.410              0.867
 Vibration    12          0.825              1.321              0.743
 Vibration    13          0.856              1.248              0.656
 Vibration    14          0.893              1.165              0.569
 Vibration    15          0.904              1.142              0.546
 Vibration    16          0.945              1.058              0.471
 Vibration    17          0.979              0.992              0.418

 Normal termination of Gaussian 16 at Fri May 23 03:40:05 2025.
