 Gaussian 16, Revision C.01,
 Gaussian 16:  ES64L-G16RevC.01  3-Jul-2019

 ----------------------------------------------------------------------
 #P wb97xd/6-311++G(d,p) Symm(None) scf(xqc) pop(None) freq opt(CalcFC)
 ----------------------------------------------------------------------

 ------------------------------
 Gaussian input prepared by ASE
 ------------------------------
 Symbolic Z-matrix:
 Charge =  0 Multiplicity = 1

 SCF Done:  E(RwB97XD) =  -1199.82354074     A.U. after   14 cycles
 SCF Done:  E(RwB97XD) =  -1199.82589721     A.U. after   12 cycles
 SCF Done:  E(RwB97XD) =  -1199.82598318     A.U. after   11 cycles
 SCF Done:  E(RwB97XD) =  -1199.82598531     A.U. after   11 cycles
 SCF Done:  E(RwB97XD) =  -1199.82598570     A.U. after   10 cycles
 SCF Done:  E(RwB97XD) =  -1199.82598574     A.U. after    8 cycles
 Optimization completed.
    -- Stationary point found.
 Normal termination of Gaussian 16 at Fri May 23 04:10:08 2025.

 ----------------------------------------------------------------------
 #P Geom=AllCheck Guess=TCheck SCRF=Check GenChk RwB97XD/6-311++G(d,p)
 Freq
 ----------------------------------------------------------------------

 Structure from the checkpoint file:  "2003846667223680600001_r12_insertion_R_1_2_3_IRC_R_prod.chk"
 ------------------------------
 Gaussian input prepared by ASE
 ------------------------------
 Charge =  0 Multiplicity = 1

                          Input orientation:
 ---------------------------------------------------------------------
 Center     Atomic      Atomic             Coordinates (Angstroms)
 Number     Number       Type             X           Y           Z
 ---------------------------------------------------------------------
      1          6           0       -1.319261   -0.605098   -0.243741
      2          6           0       -0.348228    0.441166    0.374123
      3          9           0       -1.084700   -0.746496   -1.542800
      4          9           0       -0.634816    1.651049   -0.125056
      5         16           0        1.476017    0.132554    0.059036
      6          8           0        2.175424    1.094674    0.862646
      7          8           0        1.712363   -1.274565    0.114452
      8          8           0        1.571462    0.564652   -1.479954
      9          9           0       -1.187001   -1.774521    0.359655
     10          9           0       -0.514754    0.459618    1.694909
     11          9           0       -2.567772   -0.174633   -0.079000
     12          1           0        1.740074    1.513273   -1.552876
 ---------------------------------------------------------------------

 SCF Done:  E(RwB97XD) =  -1199.82598574     A.U. after    1 cycles

 Isotropic polarizability for W=    0.000000       55.75 Bohr**3.
 End of Minotr F.D. properties file   721 does not exist.

                      1                      2                      3
                      A                      A                      A
 Frequencies --     46.2967                67.9160               131.2405
 Red. masses --     13.1324                16.1648                16.6326
 Frc consts  --      0.0166                 0.0439                 0.1688
 IR Inten    --      2.0253                 0.4066                 0.7276

                      4                      5                      6
                      A                      A                      A
 Frequencies --    190.4762               223.7343               239.2906
 Red. masses --      5.5895                17.2137                14.5694
 Frc consts  --      0.1195                 0.5077                 0.4915
 IR Inten    --     14.1263                 1.2835                 7.5701

                      7                      8                      9
                      A                      A                      A
 Frequencies --    276.3073               310.9225               316.4740
 Red. masses --     12.2161                15.0933                 5.2185
 Frc consts  --      0.5495                 0.8597                 0.3079
 IR Inten    --      0.8035                 0.8755                13.5949

                     10                     11                     12
                      A                      A                      A
 Frequencies --    343.1104               374.0470               436.3637
 Red. masses --      2.0407                 7.7407                11.9692
 Frc consts  --      0.1415                 0.6381                 1.3428
 IR Inten    --     53.3462                 7.6709                16.2031

                     13                     14                     15
                      A                      A                      A
 Frequencies --    458.1261               510.4254               538.0408
 Red. masses --      4.3680                14.2536                17.9984
 Frc consts  --      0.5401                 2.1880                 3.0698
 IR Inten    --     35.8854                13.3353                23.5783

                     16                     17                     18
                      A                      A                      A
 Frequencies --    600.7332               609.2013               654.3576
 Red. masses --     17.4296                20.2421                17.1119
 Frc consts  --      3.7060                 4.4262                 4.3170
 IR Inten    --      4.0490               120.0256                24.8517

                     19                     20                     21
                      A                      A                      A
 Frequencies --    765.0264               834.5007              1005.9117
 Red. masses --     17.1745                17.4420                13.5029
 Frc consts  --      5.9222                 7.1565                 8.0500
 IR Inten    --     20.2029               196.1705               112.9784

                     22                     23                     24
                      A                      A                      A
 Frequencies --   1131.1309              1153.1125              1206.5765
 Red. masses --      1.1907                14.0600                13.8057
 Frc consts  --      0.8976                11.0148                11.8418
 IR Inten    --     90.3817               133.4892                47.6350

                     25                     26                     27
                      A                      A                      A
 Frequencies --   1224.6185              1235.0154              1260.6704
 Red. masses --     13.9915                13.3942                13.2918
 Frc consts  --     12.3628                12.0368                12.4462
 IR Inten    --    198.0715               213.7491               396.1012

                     28                     29                     30
                      A                      A                      A
 Frequencies --   1345.3748              1444.8855              3832.9986
 Red. masses --     12.6785                14.2005                 1.0663
 Frc consts  --     13.5209                17.4670                 9.2299
 IR Inten    --     96.4163               293.3153               163.9202

 - Thermochemistry -
 -------------------
 Temperature   298.150 Kelvin.  Pressure   1.00000 Atm.
 Atom     1 has atomic number  6 and mass  12.00000

 Molecular mass:   199.95666 amu.
 Principal axes and moments of inertia in atomic units:
                           1         2         3
     Eigenvalues --  1146.417632162.309302301.94490
           X            0.96440  -0.24122   0.10842
           Y            0.25932   0.78202  -0.56674
           Z            0.05193   0.57468   0.81673
 This molecule is an asymmetric top.
 Rotational symmetry number  1.
 Warning -- assumption of classical behavior for rotation
           may cause significant error
 Rotational temperatures (Kelvin)      0.07555     0.04006     0.03763
 Rotational constants (GHZ):           1.57424     0.83464     0.78401
 Zero-point vibrational energy     136176.2 (Joules/Mol)
                                   32.54690 (Kcal/Mol)
 Warning -- explicit consideration of  17 degrees of freedom as
           vibrations may cause significant error
 Vibrational temperatures:     66.61    97.72   188.83   274.05   321.90
          (Kelvin)            344.29   397.54   447.35   455.34   493.66
                              538.17   627.83   659.14   734.39   774.12
                              864.32   876.50   941.47  1100.70  1200.66
                             1447.28  1627.45  1659.07  1735.99  1761.95
                             1776.91  1813.82  1935.69  2078.87  5514.83

 Zero-point correction=                           0.051867 (Hartree/Particle)
 Thermal correction to Energy=                    0.062285
 Thermal correction to Enthalpy=                  0.063229
 Thermal correction to Gibbs Free Energy=         0.015080
 Sum of electronic and zero-point Energies=          -1199.774119
 Sum of electronic and thermal Energies=             -1199.763701
 Sum of electronic and thermal Enthalpies=           -1199.762757
 Sum of electronic and thermal Free Energies=        -1199.810906

                     E (Thermal)             CV                S
                      KCal/Mol        Cal/Mol-Kelvin    Cal/Mol-Kelvin
 Total                   39.084             36.614            101.338
 Electronic               0.000              0.000              0.000
 Translational            0.889              2.981             41.783
 Rotational               0.889              2.981             30.124
 Vibrational             37.307             30.652             29.431
 Vibration     1          0.595              1.979              4.970
 Vibration     2          0.598              1.970              4.213
 Vibration     3          0.612              1.922              2.928
 Vibration     4          0.634              1.853              2.223
 Vibration     5          0.649              1.805              1.929
 Vibration     6          0.657              1.780              1.808
 Vibration     7          0.678              1.717              1.556
 Vibration     8          0.700              1.653              1.357
 Vibration     9          0.703              1.642              1.328
 Vibration    10          0.722              1.589              1.198
 Vibration    11          0.745              1.525              1.063
 Vibration    12          0.797              1.391              0.838
 Vibration    13          0.816              1.343              0.772
 Vibration    14          0.866              1.227              0.633
 Vibration    15          0.893              1.166              0.570
 Vibration    16          0.959              1.030              0.448
 Vibration    17          0.968              1.012              0.434

 Optimization completed.
    -- Stationary point found.
 Normal termination of Gaussian 16 at Fri May 23 04:11:34 2025.
