 Gaussian 16, Revision C.01,
 Gaussian 16:  ES64L-G16RevC.01  3-Jul-2019

 ----------------------------------------------------------------------
 #P wb97xd/6-311++G(d,p) Symm(None) scf(xqc) pop(None) geom(AllCheck,No
 KeepConstants) guess(Read) irc(RCFC,forward,MaxPoints=100,StepSize=2)
 ----------------------------------------------------------------------

 Structure from the checkpoint file:  "2003846667223680600001_r13_insertion_RSR_9_1_2_5_IRC_F.chk"
 ------------------------------
 Gaussian input prepared by ASE
 ------------------------------
 Charge =  0 Multiplicity = 1

 SCF Done:  E(RwB97XD) =  -1199.67458161     A.U. after   13 cycles
 SCF Done:  E(RwB97XD) =  -1199.67471511     A.U. after   12 cycles
 SCF Done:  E(RwB97XD) =  -1199.67493835     A.U. after   12 cycles
 SCF Done:  E(RwB97XD) =  -1199.67525114     A.U. after   12 cycles
 SCF Done:  E(RwB97XD) =  -1199.67565294     A.U. after   12 cycles
 SCF Done:  E(RwB97XD) =  -1199.67614320     A.U. after   12 cycles
 SCF Done:  E(RwB97XD) =  -1199.67672146     A.U. after   12 cycles
 SCF Done:  E(RwB97XD) =  -1199.67738731     A.U. after   12 cycles
 SCF Done:  E(RwB97XD) =  -1199.67814011     A.U. after   12 cycles
 SCF Done:  E(RwB97XD) =  -1199.67897866     A.U. after   12 cycles
 SCF Done:  E(RwB97XD) =  -1199.78273113     A.U. after   10 cycles
 SCF Done:  E(RwB97XD) =  -1199.78344246     A.U. after   10 cycles
 SCF Done:  E(RwB97XD) =  -1199.78414570     A.U. after   10 cycles
 SCF Done:  E(RwB97XD) =  -1199.78484097     A.U. after   10 cycles
 SCF Done:  E(RwB97XD) =  -1199.78552800     A.U. after   10 cycles
 SCF Done:  E(RwB97XD) =  -1199.78620683     A.U. after   10 cycles
 SCF Done:  E(RwB97XD) =  -1199.78687626     A.U. after   10 cycles
 SCF Done:  E(RwB97XD) =  -1199.78754236     A.U. after   10 cycles
 SCF Done:  E(RwB97XD) =  -1199.78820001     A.U. after   10 cycles
 SCF Done:  E(RwB97XD) =  -1199.78884966     A.U. after   10 cycles

                          Input orientation:
 ---------------------------------------------------------------------
 Center     Atomic      Atomic             Coordinates (Angstroms)
 Number     Number       Type             X           Y           Z
 ---------------------------------------------------------------------
      1          6           0        0.164142   -1.411466   -0.306468
      2          6           0        0.861199   -0.035817   -0.130323
      3          9           0        1.720979   -0.015347    0.882700
      4          9           0        1.518740    0.337859   -1.212971
      5         16           0       -0.591630    1.245789    0.346053
      6          8           0       -0.627395    0.996557    1.769023
      7          8           0       -0.151510    2.387062   -0.398567
      8          8           0       -2.154629    1.163224   -0.094713
      9          9           0       -1.148355   -1.139199   -0.395917
     10          9           0        0.509644   -2.030441   -1.418791
     11          9           0        0.356402   -2.194888    0.736545
     12          1           0       -2.631863    0.595201    0.525172
 ---------------------------------------------------------------------

 Normal termination of Gaussian 16 at Fri May 23 04:44:32 2025.
