 Gaussian 16, Revision C.01,
 Gaussian 16:  ES64L-G16RevC.01  3-Jul-2019

 ----------------------------------------------------------------------
 #P wb97xd/6-311++G(d,p) Symm(None) scf(xqc) pop(None) freq opt(CalcFC)
 ----------------------------------------------------------------------

 ------------------------------
 Gaussian input prepared by ASE
 ------------------------------
 Symbolic Z-matrix:
 Charge =  0 Multiplicity = 1

 SCF Done:  E(RwB97XD) =  -1199.82201532     A.U. after   14 cycles
 SCF Done:  E(RwB97XD) =  -1199.82242621     A.U. after   13 cycles
 SCF Done:  E(RwB97XD) =  -1199.82377187     A.U. after   14 cycles
 SCF Done:  E(RwB97XD) =  -1199.82542261     A.U. after   14 cycles
 SCF Done:  E(RwB97XD) =  -1199.82549609     A.U. after   12 cycles
 SCF Done:  E(RwB97XD) =  -1199.82455816     A.U. after   14 cycles
 SCF Done:  E(RwB97XD) =  -1199.82570186     A.U. after   14 cycles
 SCF Done:  E(RwB97XD) =  -1199.82537459     A.U. after   11 cycles
 SCF Done:  E(RwB97XD) =  -1199.82578930     A.U. after   12 cycles
 SCF Done:  E(RwB97XD) =  -1199.82590492     A.U. after   12 cycles
 SCF Done:  E(RwB97XD) =  -1199.82598129     A.U. after   13 cycles
 SCF Done:  E(RwB97XD) =  -1199.82602773     A.U. after   12 cycles
 SCF Done:  E(RwB97XD) =  -1199.82568220     A.U. after   14 cycles
 SCF Done:  E(RwB97XD) =  -1199.82604559     A.U. after   13 cycles
 SCF Done:  E(RwB97XD) =  -1199.82603675     A.U. after   11 cycles
 SCF Done:  E(RwB97XD) =  -1199.82604654     A.U. after   11 cycles
 SCF Done:  E(RwB97XD) =  -1199.82604649     A.U. after    9 cycles
 SCF Done:  E(RwB97XD) =  -1199.82604657     A.U. after    9 cycles
 Optimization completed.
    -- Stationary point found.
 Normal termination of Gaussian 16 at Fri May 23 03:49:08 2025.

 ----------------------------------------------------------------------
 #P Geom=AllCheck Guess=TCheck SCRF=Check GenChk RwB97XD/6-311++G(d,p)
 Freq
 ----------------------------------------------------------------------

 Structure from the checkpoint file:  "2003846667223680600001_r12_insertion_R_6_5_8_IRC_F_prod.chk"
 ------------------------------
 Gaussian input prepared by ASE
 ------------------------------
 Charge =  0 Multiplicity = 1

                          Input orientation:
 ---------------------------------------------------------------------
 Center     Atomic      Atomic             Coordinates (Angstroms)
 Number     Number       Type             X           Y           Z
 ---------------------------------------------------------------------
      1          6           0       -1.213236   -0.244165    0.844033
      2          6           0       -0.405466    0.460136   -0.283191
      3          9           0       -1.071352    0.358269   -1.430072
      4          9           0       -0.261191    1.755058    0.032169
      5         16           0        1.313008   -0.246651   -0.541406
      6          8           0        2.007428   -0.141731    0.711419
      7          8           0        1.189517   -1.457096   -1.286211
      8          8           0        1.869938    0.865996   -1.552007
      9          9           0       -0.674572    0.002724    2.028291
     10          9           0       -2.458643    0.220459    0.832591
     11          9           0       -1.238973   -1.554755    0.637055
     12          1           0        2.254675    1.604439   -1.061696
 ---------------------------------------------------------------------

 SCF Done:  E(RwB97XD) =  -1199.82604657     A.U. after    1 cycles

 Isotropic polarizability for W=    0.000000       55.71 Bohr**3.
 End of Minotr F.D. properties file   721 does not exist.

                      1                      2                      3
                      A                      A                      A
 Frequencies --     28.6767                68.2963               132.1094
 Red. masses --     14.0301                14.6212                14.6777
 Frc consts  --      0.0068                 0.0402                 0.1509
 IR Inten    --      1.3204                 0.6992                 1.2843

                      4                      5                      6
                      A                      A                      A
 Frequencies --    193.2216               222.7161               234.5514
 Red. masses --      9.4531                18.0515                 8.0921
 Frc consts  --      0.2079                 0.5276                 0.2623
 IR Inten    --      8.0617                 1.1637                 9.5995

                      7                      8                      9
                      A                      A                      A
 Frequencies --    275.2593               311.5303               318.0828
 Red. masses --     15.3027                 5.3907                18.1669
 Frc consts  --      0.6831                 0.3082                 1.0830
 IR Inten    --      1.4537                15.0036                 0.3722

                     10                     11                     12
                      A                      A                      A
 Frequencies --    360.8416               371.4903               437.2599
 Red. masses --      1.8538                17.2896                 3.9898
 Frc consts  --      0.1422                 1.4058                 0.4495
 IR Inten    --     57.0981                 0.2852                31.9687

                     13                     14                     15
                      A                      A                      A
 Frequencies --    484.4925               489.6195               539.5181
 Red. masses --     13.2605                 8.2561                17.8413
 Frc consts  --      1.8339                 1.1661                 3.0598
 IR Inten    --     15.1789                20.3692                28.9605

                     16                     17                     18
                      A                      A                      A
 Frequencies --    600.3728               608.8247               653.7992
 Red. masses --     17.3807                20.1371                17.3445
 Frc consts  --      3.6911                 4.3978                 4.3682
 IR Inten    --      3.5508               118.7675                29.6418

                     19                     20                     21
                      A                      A                      A
 Frequencies --    764.7703               826.0081              1005.8326
 Red. masses --     17.1227                17.1192                13.8149
 Frc consts  --      5.9005                 6.8818                 8.2347
 IR Inten    --     40.7271               218.4492                52.8295

                     22                     23                     24
                      A                      A                      A
 Frequencies --   1130.7750              1157.7158              1201.4993
 Red. masses --      1.1953                12.2157                15.9976
 Frc consts  --      0.9005                 9.6465                13.6067
 IR Inten    --    107.5616               242.2403                 6.2291

                     25                     26                     27
                      A                      A                      A
 Frequencies --   1219.4349              1249.0685              1254.0354
 Red. masses --     13.1187                13.6914                13.1788
 Frc consts  --     11.4936                12.5855                12.2109
 IR Inten    --    109.5185               332.8767               260.6913

                     28                     29                     30
                      A                      A                      A
 Frequencies --   1344.8416              1442.8977              3832.3894
 Red. masses --     12.6424                14.2318                 1.0663
 Frc consts  --     13.4716                17.4574                 9.2268
 IR Inten    --    106.8934               313.4123               161.5969

 - Thermochemistry -
 -------------------
 Temperature   298.150 Kelvin.  Pressure   1.00000 Atm.
 Atom     1 has atomic number  6 and mass  12.00000

 Molecular mass:   199.95666 amu.
 Principal axes and moments of inertia in atomic units:
                           1         2         3
     Eigenvalues --  1133.426602197.889282320.55964
           X            0.87302  -0.32961   0.35944
           Y            0.02468   0.76594   0.64243
           Z           -0.48706  -0.55199   0.67682
 This molecule is an asymmetric top.
 Rotational symmetry number  1.
 Warning -- assumption of classical behavior for rotation
           may cause significant error
 Rotational temperatures (Kelvin)      0.07642     0.03941     0.03732
 Rotational constants (GHZ):           1.59229     0.82112     0.77772
 Zero-point vibrational energy     136134.6 (Joules/Mol)
                                   32.53696 (Kcal/Mol)
 Warning -- explicit consideration of  17 degrees of freedom as
           vibrations may cause significant error
 Vibrational temperatures:     41.26    98.26   190.08   278.00   320.44
          (Kelvin)            337.47   396.04   448.22   457.65   519.17
                              534.49   629.12   697.08   704.45   776.25
                              863.80   875.96   940.67  1100.33  1188.44
                             1447.17  1626.93  1665.69  1728.69  1754.49
                             1797.13  1804.28  1934.93  2076.01  5513.95

 Zero-point correction=                           0.051851 (Hartree/Particle)
 Thermal correction to Energy=                    0.062285
 Thermal correction to Enthalpy=                  0.063230
 Thermal correction to Gibbs Free Energy=         0.014671
 Sum of electronic and zero-point Energies=          -1199.774196
 Sum of electronic and thermal Energies=             -1199.763761
 Sum of electronic and thermal Enthalpies=           -1199.762817
 Sum of electronic and thermal Free Energies=        -1199.811376

                     E (Thermal)             CV                S
                      KCal/Mol        Cal/Mol-Kelvin    Cal/Mol-Kelvin
 Total                   39.085             36.588            102.201
 Electronic               0.000              0.000              0.000
 Translational            0.889              2.981             41.783
 Rotational               0.889              2.981             30.137
 Vibrational             37.307             30.627             30.281
 Vibration     1          0.593              1.984              5.919
 Vibration     2          0.598              1.969              4.202
 Vibration     3          0.612              1.921              2.915
 Vibration     4          0.635              1.849              2.197
 Vibration     5          0.648              1.806              1.937
 Vibration     6          0.654              1.788              1.844
 Vibration     7          0.677              1.719              1.563
 Vibration     8          0.700              1.652              1.354
 Vibration     9          0.704              1.639              1.320
 Vibration    10          0.735              1.553              1.118
 Vibration    11          0.743              1.531              1.074
 Vibration    12          0.798              1.389              0.835
 Vibration    13          0.841              1.284              0.698
 Vibration    14          0.845              1.273              0.685
 Vibration    15          0.895              1.163              0.566
 Vibration    16          0.959              1.031              0.449
 Vibration    17          0.968              1.013              0.435

 Optimization completed.
    -- Stationary point found.
 Normal termination of Gaussian 16 at Fri May 23 03:50:28 2025.
