 Gaussian 16, Revision C.01,
 Gaussian 16:  ES64L-G16RevC.01  3-Jul-2019

 ----------------------------------------------------------------------
 #P wb97xd/6-311++G(d,p) Symm(None) scf(xqc) pop(None) geom(AllCheck,No
 KeepConstants) guess(Read) irc(RCFC,reverse,MaxPoints=100,StepSize=2)
 ----------------------------------------------------------------------

 Structure from the checkpoint file:  "2003846667223680600001_r13_insertion_ROR_3_2_5_6_IRC_R.chk"
 ------------------------------
 Gaussian input prepared by ASE
 ------------------------------
 Charge =  0 Multiplicity = 1

 SCF Done:  E(RwB97XD) =  -1199.58434617     A.U. after   14 cycles
 SCF Done:  E(RwB97XD) =  -1199.58446063     A.U. after   15 cycles
 SCF Done:  E(RwB97XD) =  -1199.58465864     A.U. after   15 cycles
 SCF Done:  E(RwB97XD) =  -1199.58494512     A.U. after   15 cycles
 SCF Done:  E(RwB97XD) =  -1199.58532397     A.U. after   15 cycles
 SCF Done:  E(RwB97XD) =  -1199.58579881     A.U. after   15 cycles
 SCF Done:  E(RwB97XD) =  -1199.58637332     A.U. after   15 cycles
 SCF Done:  E(RwB97XD) =  -1199.58705061     A.U. after   15 cycles
 SCF Done:  E(RwB97XD) =  -1199.58783194     A.U. after   15 cycles
 SCF Done:  E(RwB97XD) =  -1199.58871526     A.U. after   15 cycles
 SCF Done:  E(RwB97XD) =  -1199.60853714     A.U. after   12 cycles
 SCF Done:  E(RwB97XD) =  -1199.60855040     A.U. after   12 cycles
 SCF Done:  E(RwB97XD) =  -1199.60856251     A.U. after   12 cycles
 SCF Done:  E(RwB97XD) =  -1199.60856328     A.U. after   10 cycles
 SCF Done:  E(RwB97XD) =  -1199.60856330     A.U. after   10 cycles
 SCF Done:  E(RwB97XD) =  -1199.60856347     A.U. after    9 cycles
 SCF Done:  E(RwB97XD) =  -1199.60857518     A.U. after   12 cycles
 SCF Done:  E(RwB97XD) =  -1199.60857554     A.U. after   10 cycles
 SCF Done:  E(RwB97XD) =  -1199.60858651     A.U. after   11 cycles
 SCF Done:  E(RwB97XD) =  -1199.60858696     A.U. after    9 cycles

                          Input orientation:
 ---------------------------------------------------------------------
 Center     Atomic      Atomic             Coordinates (Angstroms)
 Number     Number       Type             X           Y           Z
 ---------------------------------------------------------------------
      1          6           0        0.359362   -1.331646   -0.770265
      2          6           0        0.658395   -0.453802    0.400645
      3          9           0       -2.193070    0.827957   -0.149355
      4          9           0        0.699301   -1.135499    1.566339
      5         16           0        0.186244    1.106277    0.576686
      6          8           0       -1.467137    1.502008    0.858065
      7          8           0        0.739946    1.829879    1.674019
      8          8           0        0.380095    1.827381   -0.806950
      9          9           0        0.193663   -0.593820   -1.907165
     10          9           0        1.366608   -2.173130   -0.991309
     11          9           0       -0.743420   -2.067840   -0.624244
     12          1           0        0.259657    1.229507   -1.564213
 ---------------------------------------------------------------------

 Normal termination of Gaussian 16 at Fri May 23 04:52:55 2025.
