 Gaussian 16, Revision C.01,
 Gaussian 16:  ES64L-G16RevC.01  3-Jul-2019

 ----------------------------------------------------------------------
 #P wb97xd/6-311++G(d,p) Symm(None) scf(xqc) pop(None) geom(AllCheck,No
 KeepConstants) guess(Read) irc(RCFC,reverse,MaxPoints=100,StepSize=2)
 ----------------------------------------------------------------------

 Structure from the checkpoint file:  "2003846667223680600001_r12_insertion_R_6_5_2_IRC_R.chk"
 ------------------------------
 Gaussian input prepared by ASE
 ------------------------------
 Charge =  0 Multiplicity = 1

 SCF Done:  E(RwB97XD) =  -1199.82201981     A.U. after    9 cycles

                          Input orientation:
 ---------------------------------------------------------------------
 Center     Atomic      Atomic             Coordinates (Angstroms)
 Number     Number       Type             X           Y           Z
 ---------------------------------------------------------------------
      1          6           0       -1.230022   -0.336574    0.823989
      2          6           0       -0.433440    0.376917   -0.338747
      3          9           0       -0.964120    0.054767   -1.513844
      4          9           0       -0.497777    1.704073   -0.183236
      5         16           0        1.385664   -0.074166   -0.383480
      6          8           0        1.989279    0.460258    0.805227
      7          8           0        1.488734   -1.435962   -0.799048
      8          8           0        1.813323    0.830537   -1.637074
      9          9           0       -0.422640   -1.116897    1.534940
     10          9           0       -1.762513    0.570191    1.630237
     11          9           0       -2.199482   -1.081215    0.314749
     12          1           0        2.082987    1.708487   -1.336976
 ---------------------------------------------------------------------

 Normal termination of Gaussian 16 at Fri May 23 03:34:41 2025.
