 Gaussian 16, Revision C.01,
 Gaussian 16:  ES64L-G16RevC.01  3-Jul-2019

 ----------------------------------------------------------------------
 #P wb97xd/6-311++G(d,p) Symm(None) scf(xqc) pop(None) freq opt(CalcFC)
 ----------------------------------------------------------------------

 ------------------------------
 Gaussian input prepared by ASE
 ------------------------------
 Symbolic Z-matrix:
 Charge =  0 Multiplicity = 1

 SCF Done:  E(RwB97XD) =  -1199.76879312     A.U. after   14 cycles
 SCF Done:  E(RwB97XD) =  -1199.79934099     A.U. after   13 cycles
 SCF Done:  E(RwB97XD) =  -1199.81363740     A.U. after   14 cycles
 SCF Done:  E(RwB97XD) =  -1199.81743421     A.U. after   13 cycles
 SCF Done:  E(RwB97XD) =  -1199.81845992     A.U. after   12 cycles
 SCF Done:  E(RwB97XD) =  -1199.76147517     A.U. after   14 cycles
 SCF Done:  E(RwB97XD) =  -1199.82200818     A.U. after   13 cycles
 SCF Done:  E(RwB97XD) =  -1199.82277852     A.U. after   15 cycles
 SCF Done:  E(RwB97XD) =  -1199.82453902     A.U. after   12 cycles
 SCF Done:  E(RwB97XD) =  -1199.82497376     A.U. after   11 cycles
 SCF Done:  E(RwB97XD) =  -1199.82594321     A.U. after   12 cycles
 SCF Done:  E(RwB97XD) =  -1199.82596852     A.U. after   11 cycles
 SCF Done:  E(RwB97XD) =  -1199.82601409     A.U. after   13 cycles
 SCF Done:  E(RwB97XD) =  -1199.82602430     A.U. after   12 cycles
 SCF Done:  E(RwB97XD) =  -1199.82604700     A.U. after   12 cycles
 SCF Done:  E(RwB97XD) =  -1199.82604729     A.U. after   10 cycles
 SCF Done:  E(RwB97XD) =  -1199.82604745     A.U. after   10 cycles
 SCF Done:  E(RwB97XD) =  -1199.82604765     A.U. after   10 cycles
 SCF Done:  E(RwB97XD) =  -1199.82604773     A.U. after    9 cycles
 Optimization completed.
    -- Stationary point found.
 Normal termination of Gaussian 16 at Fri May 23 04:09:19 2025.

 ----------------------------------------------------------------------
 #P Geom=AllCheck Guess=TCheck SCRF=Check GenChk RwB97XD/6-311++G(d,p)
 Freq
 ----------------------------------------------------------------------

 Structure from the checkpoint file:  "2003846667223680600001_r12_insertion_R_5_2_1_IRC_F_prod.chk"
 ------------------------------
 Gaussian input prepared by ASE
 ------------------------------
 Charge =  0 Multiplicity = 1

                          Input orientation:
 ---------------------------------------------------------------------
 Center     Atomic      Atomic             Coordinates (Angstroms)
 Number     Number       Type             X           Y           Z
 ---------------------------------------------------------------------
      1          6           0       -1.190904   -0.557445    0.614328
      2          6           0       -0.336409    0.221267   -0.426240
      3          9           0       -0.350929   -0.449434   -1.586831
      4          9           0       -0.861402    1.429495   -0.609832
      5         16           0        1.459196    0.434809    0.073118
      6          8           0        1.531823    1.486231    1.034643
      7          8           0        2.002095   -0.879134    0.276940
      8          8           0        2.013052    1.029335   -1.308626
      9          9           0       -0.810127   -1.824251    0.676352
     10          9           0       -1.068660   -0.002203    1.813446
     11          9           0       -2.466360   -0.509181    0.242964
     12          1           0        2.273320    0.313554   -1.903296
 ---------------------------------------------------------------------

 SCF Done:  E(RwB97XD) =  -1199.82604773     A.U. after    1 cycles

 Isotropic polarizability for W=    0.000000       55.71 Bohr**3.
 End of Minotr F.D. properties file   721 does not exist.

                      1                      2                      3
                      A                      A                      A
 Frequencies --     29.5078                68.3967               132.0308
 Red. masses --     14.0309                14.6148                14.6351
 Frc consts  --      0.0072                 0.0403                 0.1503
 IR Inten    --      1.3112                 0.6921                 1.2865

                      4                      5                      6
                      A                      A                      A
 Frequencies --    194.0052               222.5589               234.1454
 Red. masses --      8.9934                17.8465                 8.0347
 Frc consts  --      0.1994                 0.5208                 0.2595
 IR Inten    --      8.6121                 1.2715                 9.6624

                      7                      8                      9
                      A                      A                      A
 Frequencies --    275.2186               310.5646               318.0053
 Red. masses --     15.1414                 4.8886                18.2112
 Frc consts  --      0.6757                 0.2778                 1.0851
 IR Inten    --      1.3589                17.5716                 0.3180

                     10                     11                     12
                      A                      A                      A
 Frequencies --    357.5576               371.4682               436.1318
 Red. masses --      1.8840                17.8509                 4.1989
 Frc consts  --      0.1419                 1.4513                 0.4706
 IR Inten    --     56.6683                 0.1166                30.6310

                     13                     14                     15
                      A                      A                      A
 Frequencies --    484.5312               489.4398               539.5069
 Red. masses --     13.4156                 8.4448                17.8534
 Frc consts  --      1.8557                 1.1919                 3.0617
 IR Inten    --     15.1150                19.9323                28.5254

                     16                     17                     18
                      A                      A                      A
 Frequencies --    600.3954               609.3997               653.7574
 Red. masses --     17.3829                20.1334                17.3493
 Frc consts  --      3.6919                 4.4053                 4.3688
 IR Inten    --      3.5601               118.2272                30.1213

                     19                     20                     21
                      A                      A                      A
 Frequencies --    764.7252               825.0763              1005.4914
 Red. masses --     17.1186                17.1382                13.8227
 Frc consts  --      5.8983                 6.8739                 8.2338
 IR Inten    --     41.3156               218.0265                52.6303

                     22                     23                     24
                      A                      A                      A
 Frequencies --   1130.6161              1157.9340              1202.1601
 Red. masses --      1.1944                12.2789                15.9727
 Frc consts  --      0.8996                 9.7002                13.6004
 IR Inten    --    106.4980               243.2343                 6.5690

                     25                     26                     27
                      A                      A                      A
 Frequencies --   1219.3243              1249.1880              1253.9532
 Red. masses --     13.1181                13.7187                13.1783
 Frc consts  --     11.4910                12.6130                12.2088
 IR Inten    --    109.4239               333.1986               260.5373

                     28                     29                     30
                      A                      A                      A
 Frequencies --   1344.7871              1444.3423              3831.9599
 Red. masses --     12.6431                14.2776                 1.0663
 Frc consts  --     13.4713                17.5487                 9.2247
 IR Inten    --    107.1597               312.9272               161.8748

 - Thermochemistry -
 -------------------
 Temperature   298.150 Kelvin.  Pressure   1.00000 Atm.
 Atom     1 has atomic number  6 and mass  12.00000

 Molecular mass:   199.95666 amu.
 Principal axes and moments of inertia in atomic units:
                           1         2         3
     Eigenvalues --  1133.452152197.820622320.48832
           X            0.91430   0.33912  -0.22147
           Y            0.34400  -0.36151   0.86659
           Z           -0.21382   0.86851   0.44719
 This molecule is an asymmetric top.
 Rotational symmetry number  1.
 Warning -- assumption of classical behavior for rotation
           may cause significant error
 Rotational temperatures (Kelvin)      0.07642     0.03941     0.03733
 Rotational constants (GHZ):           1.59225     0.82115     0.77774
 Zero-point vibrational energy     136112.2 (Joules/Mol)
                                   32.53159 (Kcal/Mol)
 Warning -- explicit consideration of  17 degrees of freedom as
           vibrations may cause significant error
 Vibrational temperatures:     42.46    98.41   189.96   279.13   320.21
          (Kelvin)            336.88   395.98   446.83   457.54   514.45
                              534.46   627.50   697.13   704.19   776.23
                              863.84   876.79   940.61  1100.27  1187.10
                             1446.68  1626.70  1666.01  1729.64  1754.34
                             1797.30  1804.16  1934.85  2078.09  5513.34

 Zero-point correction=                           0.051842 (Hartree/Particle)
 Thermal correction to Energy=                    0.062281
 Thermal correction to Enthalpy=                  0.063225
 Thermal correction to Gibbs Free Energy=         0.014684
 Sum of electronic and zero-point Energies=          -1199.774205
 Sum of electronic and thermal Energies=             -1199.763767
 Sum of electronic and thermal Enthalpies=           -1199.762823
 Sum of electronic and thermal Free Energies=        -1199.811364

                     E (Thermal)             CV                S
                      KCal/Mol        Cal/Mol-Kelvin    Cal/Mol-Kelvin
 Total                   39.082             36.600            102.163
 Electronic               0.000              0.000              0.000
 Translational            0.889              2.981             41.783
 Rotational               0.889              2.981             30.137
 Vibrational             37.304             30.638             30.243
 Vibration     1          0.593              1.984              5.862
 Vibration     2          0.598              1.969              4.199
 Vibration     3          0.612              1.921              2.916
 Vibration     4          0.635              1.848              2.189
 Vibration     5          0.648              1.807              1.938
 Vibration     6          0.654              1.789              1.847
 Vibration     7          0.677              1.719              1.563
 Vibration     8          0.699              1.654              1.359
 Vibration     9          0.704              1.639              1.320
 Vibration    10          0.733              1.560              1.133
 Vibration    11          0.743              1.531              1.074
 Vibration    12          0.797              1.391              0.839
 Vibration    13          0.841              1.284              0.698
 Vibration    14          0.845              1.273              0.685
 Vibration    15          0.895              1.163              0.566
 Vibration    16          0.959              1.031              0.449
 Vibration    17          0.968              1.012              0.434

 Optimization completed.
    -- Stationary point found.
 Normal termination of Gaussian 16 at Fri May 23 04:10:39 2025.
