 Gaussian 16, Revision C.01,
 Gaussian 16:  ES64L-G16RevC.01  3-Jul-2019

 ----------------------------------------------------------------------
 #P wb97xd/6-311++G(d,p) Symm(None) scf(xqc) pop(None) geom(AllCheck,No
 KeepConstants) guess(Read) irc(RCFC,forward,MaxPoints=100,StepSize=2)
 ----------------------------------------------------------------------

 Structure from the checkpoint file:  "2003846667223680600001_r13_insertion_ROR_3_2_5_6_IRC_F.chk"
 ------------------------------
 Gaussian input prepared by ASE
 ------------------------------
 Charge =  0 Multiplicity = 1

 SCF Done:  E(RwB97XD) =  -1199.58434436     A.U. after   14 cycles
 SCF Done:  E(RwB97XD) =  -1199.58444607     A.U. after   14 cycles
 SCF Done:  E(RwB97XD) =  -1199.58461039     A.U. after   14 cycles
 SCF Done:  E(RwB97XD) =  -1199.58483342     A.U. after   14 cycles
 SCF Done:  E(RwB97XD) =  -1199.58511075     A.U. after   14 cycles
 SCF Done:  E(RwB97XD) =  -1199.58543735     A.U. after   14 cycles
 SCF Done:  E(RwB97XD) =  -1199.58580839     A.U. after   14 cycles
 SCF Done:  E(RwB97XD) =  -1199.58622011     A.U. after   14 cycles
 SCF Done:  E(RwB97XD) =  -1199.58666978     A.U. after   14 cycles
 SCF Done:  E(RwB97XD) =  -1199.58715504     A.U. after   14 cycles
 SCF Done:  E(RwB97XD) =  -1199.68717728     A.U. after   13 cycles
 SCF Done:  E(RwB97XD) =  -1199.68860410     A.U. after   13 cycles
 SCF Done:  E(RwB97XD) =  -1199.69003716     A.U. after   13 cycles
 SCF Done:  E(RwB97XD) =  -1199.69147691     A.U. after   13 cycles
 SCF Done:  E(RwB97XD) =  -1199.69292423     A.U. after   13 cycles
 SCF Done:  E(RwB97XD) =  -1199.69438030     A.U. after   13 cycles
 SCF Done:  E(RwB97XD) =  -1199.69584628     A.U. after   13 cycles
 SCF Done:  E(RwB97XD) =  -1199.69732296     A.U. after   13 cycles
 SCF Done:  E(RwB97XD) =  -1199.69881066     A.U. after   13 cycles
 SCF Done:  E(RwB97XD) =  -1199.70030921     A.U. after   12 cycles

                          Input orientation:
 ---------------------------------------------------------------------
 Center     Atomic      Atomic             Coordinates (Angstroms)
 Number     Number       Type             X           Y           Z
 ---------------------------------------------------------------------
      1          6           0        0.249086   -1.323106   -0.843946
      2          6           0       -0.004040   -0.412183    0.398619
      3          9           0       -1.858864    0.113082   -0.320580
      4          9           0        0.259496   -1.075046    1.478124
      5         16           0        0.099771    1.400288    0.702831
      6          8           0       -1.163433    1.795274    1.219737
      7          8           0        1.298448    1.659420    1.435183
      8          8           0        0.342212    1.811529   -0.806508
      9          9           0        0.148306   -0.631967   -1.953616
     10          9           0        1.436556   -1.938794   -0.849421
     11          9           0       -0.683937   -2.250783   -0.743538
     12          1           0       -0.490683    1.684722   -1.294131
 ---------------------------------------------------------------------

 Normal termination of Gaussian 16 at Fri May 23 04:59:18 2025.
