 Gaussian 16, Revision C.01,
 Gaussian 16:  ES64L-G16RevC.01  3-Jul-2019

 ----------------------------------------------------------------------
 #P wb97xd/6-311++G(d,p) Symm(None) scf(xqc) pop(None) opt(NoFreeze,TS,
 CalcAll,NoEigentest,MaxCycle=999)
 ----------------------------------------------------------------------

 ------------------------------
 Gaussian input prepared by ASE
 ------------------------------
 Symbolic Z-matrix:
 Charge =  0 Multiplicity = 1

 SCF Done:  E(RwB97XD) =  -1199.48422664     A.U. after   15 cycles
 SCF Done:  E(RwB97XD) =  -1199.62072475     A.U. after   13 cycles
 SCF Done:  E(RwB97XD) =  -1199.69783240     A.U. after   13 cycles
 SCF Done:  E(RwB97XD) =  -1199.72850444     A.U. after   13 cycles
 SCF Done:  E(RwB97XD) =  -1199.75361710     A.U. after   12 cycles
 SCF Done:  E(RwB97XD) =  -1199.76396747     A.U. after   13 cycles
 SCF Done:  E(RwB97XD) =  -1199.76552867     A.U. after   13 cycles
 SCF Done:  E(RwB97XD) =  -1199.76588325     A.U. after   12 cycles
 SCF Done:  E(RwB97XD) =  -1199.76589757     A.U. after   11 cycles
 SCF Done:  E(RwB97XD) =  -1199.76589763     A.U. after    8 cycles

 Isotropic polarizability for W=    0.000000       56.20 Bohr**3.
 End of Minotr F.D. properties file   721 does not exist.

 Optimization completed.
    -- Stationary point found.

                          Input orientation:
 ---------------------------------------------------------------------
 Center     Atomic      Atomic             Coordinates (Angstroms)
 Number     Number       Type             X           Y           Z
 ---------------------------------------------------------------------
      1          6           0        2.420238   -1.608898   -1.471265
      2          6           0        2.158410   -0.265396   -0.727378
      3          9           0        2.377915   -0.440190    0.571508
      4          9           0        2.978817    0.671286   -1.199947
      5         16           0        0.413750    0.413066   -0.914910
      6          8           0       -0.532536   -0.763332   -1.121920
      7          8           0        0.217996    1.323874    0.165861
      8          8           0        0.278466    0.876821   -2.357422
      9          9           0        1.756329   -2.594209   -0.888701
     10          9           0        2.052140   -1.518184   -2.743858
     11          9           0        3.720854   -1.872803   -1.417681
     12          1           0       -0.488771   -0.153418   -2.252376
 ---------------------------------------------------------------------

 ******    1 imaginary frequencies (negative Signs) ******

                      1                      2                      3
                      A                      A                      A
 Frequencies --  -1922.3965                41.4679                67.4846
 Red. masses --      1.0894                13.5651                18.3151
 Frc consts  --      2.3720                 0.0137                 0.0491
 IR Inten    --    622.5093                 0.3181                 0.0238

                      4                      5                      6
                      A                      A                      A
 Frequencies --    135.9783               190.5716               221.7581
 Red. masses --     13.6760                16.3043                18.4628
 Frc consts  --      0.1490                 0.3489                 0.5349
 IR Inten    --      1.3478                 2.4243                 1.4573

                      7                      8                      9
                      A                      A                      A
 Frequencies --    238.6432               276.9685               305.1510
 Red. masses --     14.4776                16.5495                17.6807
 Frc consts  --      0.4858                 0.7480                 0.9700
 IR Inten    --      2.4192                 3.0565                 0.7809

                     10                     11                     12
                      A                      A                      A
 Frequencies --    318.1013               372.6406               425.7427
 Red. masses --     17.0247                18.0269                17.7773
 Frc consts  --      1.0150                 1.4749                 1.8985
 IR Inten    --      0.5783                 0.2527                 9.9887

                     13                     14                     15
                      A                      A                      A
 Frequencies --    491.5313               520.9611               556.7100
 Red. masses --     18.0204                11.3150                12.8241
 Frc consts  --      2.5652                 1.8093                 2.3417
 IR Inten    --      6.9490                45.4588                11.2317

                     16                     17                     18
                      A                      A                      A
 Frequencies --    600.2672               644.1763               709.7898
 Red. masses --     17.8435                16.8134                15.8629
 Frc consts  --      3.7881                 4.1107                 4.7086
 IR Inten    --      2.2549                17.8536                96.1912

                     19                     20                     21
                      A                      A                      A
 Frequencies --    770.5177               964.9481               980.0533
 Red. masses --     15.7759                12.3104                 1.2587
 Frc consts  --      5.5184                 6.7535                 0.7123
 IR Inten    --     17.5692               176.2811               109.2987

                     22                     23                     24
                      A                      A                      A
 Frequencies --   1056.2847              1112.8970              1168.6095
 Red. masses --      8.5285                11.3366                13.0229
 Frc consts  --      5.6064                 8.2726                10.4784
 IR Inten    --     65.6504               223.0621               134.4737

                     25                     26                     27
                      A                      A                      A
 Frequencies --   1226.8382              1239.3657              1259.7751
 Red. masses --     13.1965                12.7829                12.9291
 Frc consts  --     11.7027                11.5685                12.0894
 IR Inten    --    115.3247               225.2934               419.9294

                     28                     29                     30
                      A                      A                      A
 Frequencies --   1343.6457              1379.7389              2163.4299
 Red. masses --     12.6904                16.9766                 1.0280
 Frc consts  --     13.4988                19.0412                 2.8349
 IR Inten    --    134.9207               308.2671               132.0141

 - Thermochemistry -
 -------------------
 Temperature   298.150 Kelvin.  Pressure   1.00000 Atm.
 Atom     1 has atomic number  6 and mass  12.00000

 Molecular mass:   199.95666 amu.
 Principal axes and moments of inertia in atomic units:
                           1         2         3
     Eigenvalues --  1156.080082112.755972339.64924
           X            0.73416   0.57198  -0.36585
           Y           -0.66410   0.49271  -0.56233
           Z           -0.14138   0.65580   0.74158
 This molecule is an asymmetric top.
 Rotational symmetry number  1.
 Warning -- assumption of classical behavior for rotation
           may cause significant error
 Rotational temperatures (Kelvin)      0.07492     0.04100     0.03702
 Rotational constants (GHZ):           1.56109     0.85421     0.77137
    1 imaginary frequencies ignored.
 Zero-point vibrational energy     124316.2 (Joules/Mol)
                                   29.71229 (Kcal/Mol)
 Warning -- explicit consideration of  15 degrees of freedom as
           vibrations may cause significant error
 Vibrational temperatures:     59.66    97.10   195.64   274.19   319.06
          (Kelvin)            343.35   398.50   439.04   457.68   536.15
                              612.55   707.20   749.55   800.98   863.65
                              926.83  1021.23  1108.60  1388.35  1410.08
                             1519.76  1601.21  1681.37  1765.15  1783.17
                             1812.54  1933.21  1985.14  3112.69

 Zero-point correction=                           0.047350 (Hartree/Particle)
 Thermal correction to Energy=                    0.057324
 Thermal correction to Enthalpy=                  0.058268
 Thermal correction to Gibbs Free Energy=         0.010719
 Sum of electronic and zero-point Energies=          -1199.718548
 Sum of electronic and thermal Energies=             -1199.708574
 Sum of electronic and thermal Enthalpies=           -1199.707630
 Sum of electronic and thermal Free Energies=        -1199.755179

                     E (Thermal)             CV                S
                      KCal/Mol        Cal/Mol-Kelvin    Cal/Mol-Kelvin
 Total                   35.971             34.730            100.075
 Electronic               0.000              0.000              0.000
 Translational            0.889              2.981             41.783
 Rotational               0.889              2.981             30.125
 Vibrational             34.194             28.768             28.166
 Vibration     1          0.594              1.981              5.188
 Vibration     2          0.598              1.970              4.225
 Vibration     3          0.614              1.917              2.860
 Vibration     4          0.634              1.853              2.222
 Vibration     5          0.648              1.808              1.945
 Vibration     6          0.657              1.781              1.813
 Vibration     7          0.678              1.716              1.552
 Vibration     8          0.696              1.664              1.388
 Vibration     9          0.705              1.639              1.320
 Vibration    10          0.744              1.528              1.069
 Vibration    11          0.788              1.414              0.873
 Vibration    12          0.847              1.269              0.680
 Vibration    13          0.876              1.204              0.608
 Vibration    14          0.912              1.125              0.530
 Vibration    15          0.958              1.031              0.449

 Normal termination of Gaussian 16 at Fri May 23 03:42:40 2025.
