 Gaussian 16, Revision C.01,
 Gaussian 16:  ES64L-G16RevC.01  3-Jul-2019

 ----------------------------------------------------------------------
 #P wb97xd/6-311++G(d,p) Symm(None) scf(xqc) pop(None) geom(AllCheck,No
 KeepConstants) guess(Read) irc(RCFC,reverse,MaxPoints=100,StepSize=2)
 ----------------------------------------------------------------------

 Structure from the checkpoint file:  "2003846667223680600001_r12_insertion_R_6_5_7_IRC_R.chk"
 ------------------------------
 Gaussian input prepared by ASE
 ------------------------------
 Charge =  0 Multiplicity = 1

 SCF Done:  E(RwB97XD) =  -1199.64519180     A.U. after   16 cycles
 SCF Done:  E(RwB97XD) =  -1199.64550444     A.U. after   15 cycles
 SCF Done:  E(RwB97XD) =  -1199.64602354     A.U. after   15 cycles
 SCF Done:  E(RwB97XD) =  -1199.64674109     A.U. after   15 cycles
 SCF Done:  E(RwB97XD) =  -1199.64764338     A.U. after   15 cycles
 SCF Done:  E(RwB97XD) =  -1199.64871178     A.U. after   15 cycles
 SCF Done:  E(RwB97XD) =  -1199.64992418     A.U. after   15 cycles
 SCF Done:  E(RwB97XD) =  -1199.65125648     A.U. after   15 cycles
 SCF Done:  E(RwB97XD) =  -1199.65268424     A.U. after   15 cycles
 SCF Done:  E(RwB97XD) =  -1199.65418382     A.U. after   15 cycles
 SCF Done:  E(RwB97XD) =  -1199.68076263     A.U. after   11 cycles
 SCF Done:  E(RwB97XD) =  -1199.68079090     A.U. after   11 cycles
 SCF Done:  E(RwB97XD) =  -1199.68079234     A.U. after    9 cycles
 SCF Done:  E(RwB97XD) =  -1199.68081759     A.U. after   11 cycles
 SCF Done:  E(RwB97XD) =  -1199.68084054     A.U. after   10 cycles
 SCF Done:  E(RwB97XD) =  -1199.68086016     A.U. after   11 cycles
 SCF Done:  E(RwB97XD) =  -1199.68087721     A.U. after   10 cycles
 SCF Done:  E(RwB97XD) =  -1199.68089137     A.U. after   11 cycles
 SCF Done:  E(RwB97XD) =  -1199.68089233     A.U. after    9 cycles
 SCF Done:  E(RwB97XD) =  -1199.68090479     A.U. after   10 cycles

                          Input orientation:
 ---------------------------------------------------------------------
 Center     Atomic      Atomic             Coordinates (Angstroms)
 Number     Number       Type             X           Y           Z
 ---------------------------------------------------------------------
      1          6           0       -1.163871    0.076636    0.912160
      2          6           0       -0.633507    0.016835   -0.543871
      3          9           0       -1.094659   -1.114855   -1.108980
      4          9           0       -1.111170    1.065026   -1.230546
      5         16           0        1.254033   -0.044019   -0.906109
      6          8           0        1.655632   -1.154507    0.131194
      7          8           0        2.965107   -0.593960   -0.351679
      8          8           0        1.444154    1.411360   -0.229185
      9          9           0       -0.823871   -1.028237    1.566484
     10          9           0       -0.683465    1.129718    1.558998
     11          9           0       -2.493843    0.164663    0.889480
     12          1           0        2.394370    1.552057   -0.118890
 ---------------------------------------------------------------------

 Normal termination of Gaussian 16 at Fri May 23 03:54:55 2025.
