 Gaussian 16, Revision C.01,
 Gaussian 16:  ES64L-G16RevC.01  3-Jul-2019

 ----------------------------------------------------------------------
 #P wb97xd/6-311++G(d,p) Symm(None) scf(xqc) pop(None) geom(AllCheck,No
 KeepConstants) guess(Read) irc(RCFC,reverse,MaxPoints=100,StepSize=2)
 ----------------------------------------------------------------------

 Structure from the checkpoint file:  "2003846667223680600001_r12_insertion_R_9_1_2_IRC_R.chk"
 ------------------------------
 Gaussian input prepared by ASE
 ------------------------------
 Charge =  0 Multiplicity = 1

 SCF Done:  E(RwB97XD) =  -1199.64241363     A.U. after   11 cycles
 SCF Done:  E(RwB97XD) =  -1199.64252966     A.U. after   11 cycles
 SCF Done:  E(RwB97XD) =  -1199.64272505     A.U. after   11 cycles
 SCF Done:  E(RwB97XD) =  -1199.64300054     A.U. after   11 cycles
 SCF Done:  E(RwB97XD) =  -1199.64335643     A.U. after   11 cycles
 SCF Done:  E(RwB97XD) =  -1199.64379331     A.U. after   11 cycles
 SCF Done:  E(RwB97XD) =  -1199.64431260     A.U. after   11 cycles
 SCF Done:  E(RwB97XD) =  -1199.64491612     A.U. after   11 cycles
 SCF Done:  E(RwB97XD) =  -1199.64560547     A.U. after   11 cycles
 SCF Done:  E(RwB97XD) =  -1199.64638148     A.U. after   11 cycles
 SCF Done:  E(RwB97XD) =  -1199.79147927     A.U. after   10 cycles
 SCF Done:  E(RwB97XD) =  -1199.79252572     A.U. after   10 cycles
 SCF Done:  E(RwB97XD) =  -1199.79354963     A.U. after    9 cycles
 SCF Done:  E(RwB97XD) =  -1199.79455121     A.U. after    9 cycles
 SCF Done:  E(RwB97XD) =  -1199.79553067     A.U. after    9 cycles
 SCF Done:  E(RwB97XD) =  -1199.79648820     A.U. after    9 cycles
 SCF Done:  E(RwB97XD) =  -1199.79742401     A.U. after    9 cycles
 SCF Done:  E(RwB97XD) =  -1199.79833831     A.U. after    9 cycles
 SCF Done:  E(RwB97XD) =  -1199.79923128     A.U. after    9 cycles
 SCF Done:  E(RwB97XD) =  -1199.80010312     A.U. after    9 cycles

                          Input orientation:
 ---------------------------------------------------------------------
 Center     Atomic      Atomic             Coordinates (Angstroms)
 Number     Number       Type             X           Y           Z
 ---------------------------------------------------------------------
      1          6           0       -1.539960   -0.352286    0.562236
      2          6           0       -0.411670    0.344770   -0.364956
      3          9           0       -0.578940   -0.031114   -1.634698
      4          9           0       -0.465559    1.657914   -0.188364
      5         16           0        1.557143   -0.019466   -0.111785
      6          8           0        2.041655    0.616150    1.073947
      7          8           0        1.869496   -1.379883   -0.460813
      8          8           0        2.037808    0.920370   -1.334558
      9          9           0       -0.736129   -1.012735    1.387384
     10          9           0       -2.338652    0.462833    1.255402
     11          9           0       -2.387589   -1.192465   -0.034956
     12          1           0        2.085251    0.399613   -2.146759
 ---------------------------------------------------------------------

 Normal termination of Gaussian 16 at Fri May 23 04:06:19 2025.
