 Gaussian 16, Revision C.01,
 Gaussian 16:  ES64L-G16RevC.01  3-Jul-2019

 ----------------------------------------------------------------------
 #P wb97xd/6-311++G(d,p) Symm(None) scf(xqc) pop(None) freq opt(CalcFC)
 ----------------------------------------------------------------------

 ------------------------------
 Gaussian input prepared by ASE
 ------------------------------
 Symbolic Z-matrix:
 Charge =  0 Multiplicity = 1

 SCF Done:  E(RwB97XD) =  -1199.81805432     A.U. after   14 cycles
 SCF Done:  E(RwB97XD) =  -1199.82489743     A.U. after   13 cycles
 SCF Done:  E(RwB97XD) =  -1199.82575176     A.U. after   12 cycles
 SCF Done:  E(RwB97XD) =  -1199.82587469     A.U. after   11 cycles
 SCF Done:  E(RwB97XD) =  -1199.82587915     A.U. after   10 cycles
 SCF Done:  E(RwB97XD) =  -1199.82587955     A.U. after    9 cycles
 SCF Done:  E(RwB97XD) =  -1199.82587965     A.U. after    8 cycles
 Optimization completed.
    -- Stationary point found.
 Normal termination of Gaussian 16 at Fri May 23 04:15:08 2025.

 ----------------------------------------------------------------------
 #P Geom=AllCheck Guess=TCheck SCRF=Check GenChk RwB97XD/6-311++G(d,p)
 Freq
 ----------------------------------------------------------------------

 Structure from the checkpoint file:  "2003846667223680600001_intra_H_migration_6_12_IRC_R_prod.chk"
 ------------------------------
 Gaussian input prepared by ASE
 ------------------------------
 Charge =  0 Multiplicity = 1

                          Input orientation:
 ---------------------------------------------------------------------
 Center     Atomic      Atomic             Coordinates (Angstroms)
 Number     Number       Type             X           Y           Z
 ---------------------------------------------------------------------
      1          6           0        0.473572   -1.273656   -0.473780
      2          6           0        0.616410    0.067760    0.302284
      3          9           0        0.967196   -0.196709    1.560375
      4          9           0        1.560585    0.807166   -0.277860
      5         16           0       -0.959235    1.086722    0.378878
      6          8           0       -2.052665    0.176720    0.579862
      7          8           0       -0.675800    2.192960    1.234539
      8          8           0       -1.009707    1.659191   -1.115083
      9          9           0       -0.251872   -2.141064    0.207742
     10          9           0       -0.111697   -1.053093   -1.658972
     11          9           0        1.676624   -1.787573   -0.690371
     12          1           0       -1.488478    1.050827   -1.693554
 ---------------------------------------------------------------------

 SCF Done:  E(RwB97XD) =  -1199.82587965     A.U. after    1 cycles

 Isotropic polarizability for W=    0.000000       55.69 Bohr**3.
 End of Minotr F.D. properties file   721 does not exist.

                      1                      2                      3
                      A                      A                      A
 Frequencies --     55.3104                64.0828               133.4925
 Red. masses --     12.1546                16.9022                11.3135
 Frc consts  --      0.0219                 0.0409                 0.1188
 IR Inten    --      1.8799                 0.7161                 5.7937

                      4                      5                      6
                      A                      A                      A
 Frequencies --    197.9485               221.9788               238.1826
 Red. masses --     11.3799                12.2838                 9.8371
 Frc consts  --      0.2627                 0.3566                 0.3288
 IR Inten    --      5.7536                 4.7563                 2.7523

                      7                      8                      9
                      A                      A                      A
 Frequencies --    276.9783               306.0642               311.1391
 Red. masses --     16.8976                 3.3585                 7.4599
 Frc consts  --      0.7638                 0.1854                 0.4255
 IR Inten    --      6.8419                36.2432                13.4917

                     10                     11                     12
                      A                      A                      A
 Frequencies --    335.3713               378.5370               438.5242
 Red. masses --      2.9267                 6.4767                12.9177
 Frc consts  --      0.1939                 0.5468                 1.4636
 IR Inten    --     41.5736                18.0053                 8.5113

                     13                     14                     15
                      A                      A                      A
 Frequencies --    453.0496               510.3718               537.8183
 Red. masses --      4.6070                16.3364                17.8484
 Frc consts  --      0.5571                 2.5071                 3.0417
 IR Inten    --     33.8237                 9.4549                26.0272

                     16                     17                     18
                      A                      A                      A
 Frequencies --    599.2842               609.0094               656.1839
 Red. masses --     17.7955                20.4658                16.2142
 Frc consts  --      3.7655                 4.4723                 4.1134
 IR Inten    --      2.9915               119.4243                26.3099

                     19                     20                     21
                      A                      A                      A
 Frequencies --    763.5662               834.3163              1002.7131
 Red. masses --     17.2868                17.4097                12.7221
 Frc consts  --      5.9383                 7.1401                 7.5363
 IR Inten    --     18.7528               192.2474               100.8216

                     22                     23                     24
                      A                      A                      A
 Frequencies --   1134.4274              1155.6335              1208.6349
 Red. masses --      1.2127                13.2883                13.9561
 Frc consts  --      0.9195                10.4559                12.0117
 IR Inten    --    135.1835               154.9245                82.1788

                     25                     26                     27
                      A                      A                      A
 Frequencies --   1226.5373              1228.1141              1262.4463
 Red. masses --     12.4339                13.1110                13.3200
 Frc consts  --     11.0210                11.6510                12.5078
 IR Inten    --    122.9339               199.0308               371.3919

                     28                     29                     30
                      A                      A                      A
 Frequencies --   1348.6676              1443.1764              3828.0807
 Red. masses --     12.6941                14.0452                 1.0664
 Frc consts  --     13.6039                17.2352                 9.2069
 IR Inten    --    113.6247               294.5866               150.9094

 - Thermochemistry -
 -------------------
 Temperature   298.150 Kelvin.  Pressure   1.00000 Atm.
 Atom     1 has atomic number  6 and mass  12.00000

 Molecular mass:   199.95666 amu.
 Principal axes and moments of inertia in atomic units:
                           1         2         3
     Eigenvalues --  1152.572982137.734392288.84119
           X           -0.50709   0.79262  -0.33854
           Y            0.82555   0.33381  -0.45501
           Z            0.24764   0.51022   0.82362
 This molecule is an asymmetric top.
 Rotational symmetry number  1.
 Warning -- assumption of classical behavior for rotation
           may cause significant error
 Rotational temperatures (Kelvin)      0.07515     0.04052     0.03784
 Rotational constants (GHZ):           1.56584     0.84423     0.78850
 Zero-point vibrational energy     136132.9 (Joules/Mol)
                                   32.53654 (Kcal/Mol)
 Warning -- explicit consideration of  17 degrees of freedom as
           vibrations may cause significant error
 Vibrational temperatures:     79.58    92.20   192.07   284.80   319.38
          (Kelvin)            342.69   398.51   440.36   447.66   482.52
                              544.63   630.94   651.84   734.31   773.80
                              862.24   876.23   944.10  1098.60  1200.40
                             1442.68  1632.19  1662.70  1738.96  1764.71
                             1766.98  1816.38  1940.43  2076.41  5507.75

 Zero-point correction=                           0.051850 (Hartree/Particle)
 Thermal correction to Energy=                    0.062264
 Thermal correction to Enthalpy=                  0.063208
 Thermal correction to Gibbs Free Energy=         0.015179
 Sum of electronic and zero-point Energies=          -1199.774029
 Sum of electronic and thermal Energies=             -1199.763616
 Sum of electronic and thermal Enthalpies=           -1199.762671
 Sum of electronic and thermal Free Energies=        -1199.810701

                     E (Thermal)             CV                S
                      KCal/Mol        Cal/Mol-Kelvin    Cal/Mol-Kelvin
 Total                   39.071             36.637            101.086
 Electronic               0.000              0.000              0.000
 Translational            0.889              2.981             41.783
 Rotational               0.889              2.981             30.112
 Vibrational             37.294             30.675             29.191
 Vibration     1          0.596              1.975              4.618
 Vibration     2          0.597              1.971              4.327
 Vibration     3          0.613              1.920              2.895
 Vibration     4          0.637              1.843              2.152
 Vibration     5          0.648              1.808              1.943
 Vibration     6          0.656              1.782              1.816
 Vibration     7          0.678              1.716              1.552
 Vibration     8          0.696              1.662              1.384
 Vibration     9          0.700              1.652              1.356
 Vibration    10          0.716              1.605              1.234
 Vibration    11          0.749              1.516              1.045
 Vibration    12          0.799              1.386              0.831
 Vibration    13          0.812              1.354              0.787
 Vibration    14          0.865              1.227              0.633
 Vibration    15          0.893              1.166              0.570
 Vibration    16          0.957              1.033              0.451
 Vibration    17          0.968              1.013              0.434

 Optimization completed.
    -- Stationary point found.
 Normal termination of Gaussian 16 at Fri May 23 04:16:29 2025.
