 Gaussian 16, Revision C.01,
 Gaussian 16:  ES64L-G16RevC.01  3-Jul-2019

 ----------------------------------------------------------------------
 #P wb97xd/6-311++G(d,p) Symm(None) scf(xqc) pop(None) freq opt(CalcFC,
  Tight)
 ----------------------------------------------------------------------

 ------------------------------
 Gaussian input prepared by ASE
 ------------------------------
 Symbolic Z-matrix:
 Charge =  0 Multiplicity = 1

 SCF Done:  E(RwB97XD) =  -1199.82905941     A.U. after   14 cycles
 Optimization completed.
    -- Stationary point found.
 Normal termination of Gaussian 16 at Fri May 23 04:21:00 2025.

 ----------------------------------------------------------------------
 #P Geom=AllCheck Guess=TCheck SCRF=Check GenChk RwB97XD/6-311++G(d,p)
 Freq
 ----------------------------------------------------------------------

 Structure from the checkpoint file:  "2003846467324380000001_well.chk"
 ------------------------------
 Gaussian input prepared by ASE
 ------------------------------
 Charge =  0 Multiplicity = 1

                          Input orientation:
 ---------------------------------------------------------------------
 Center     Atomic      Atomic             Coordinates (Angstroms)
 Number     Number       Type             X           Y           Z
 ---------------------------------------------------------------------
      1          6           0       -1.002388    0.434994    0.972268
      2          6           0       -0.168282    0.588698   -0.334555
      3          9           0        0.254018   -1.949260   -0.736586
      4          9           0       -1.020757    0.400024   -1.372181
      5         16           0        1.202004   -0.675092   -0.524692
      6          8           0        1.876051   -0.862893    0.717934
      7          8           0        1.859959   -0.436444   -1.765177
      8          8           0        0.472215    1.771865   -0.401492
      9          9           0       -1.632233   -0.724752    1.031257
     10          9           0       -0.244713    0.583276    2.047206
     11          9           0       -1.915320    1.422055    0.969662
     12          1           0       -0.128522    2.497816   -0.197940
 ---------------------------------------------------------------------

 SCF Done:  E(RwB97XD) =  -1199.82905941     A.U. after    1 cycles

 Isotropic polarizability for W=    0.000000       55.81 Bohr**3.
 End of Minotr F.D. properties file   721 does not exist.

                      1                      2                      3
                      A                      A                      A
 Frequencies --     26.1135                71.1654               135.8208
 Red. masses --     17.4772                15.9813                17.0193
 Frc consts  --      0.0070                 0.0477                 0.1850
 IR Inten    --      0.2780                 0.2904                 1.0856

                      4                      5                      6
                      A                      A                      A
 Frequencies --    195.9885               227.0486               239.4765
 Red. masses --     12.3026                15.2352                11.8625
 Frc consts  --      0.2784                 0.4627                 0.4008
 IR Inten    --      0.6342                 2.7910                 1.9942

                      7                      8                      9
                      A                      A                      A
 Frequencies --    279.9182               299.3173               317.7624
 Red. masses --     10.0541                 2.7747                10.0300
 Frc consts  --      0.4641                 0.1465                 0.5967
 IR Inten    --     10.2369                45.8697                 3.6964

                     10                     11                     12
                      A                      A                      A
 Frequencies --    328.4391               381.7951               437.4383
 Red. masses --      1.9128                 8.9840                13.3331
 Frc consts  --      0.1216                 0.7716                 1.5032
 IR Inten    --     58.9462                 8.2856                23.6526

                     13                     14                     15
                      A                      A                      A
 Frequencies --    451.1611               496.8547               536.4836
 Red. masses --     17.0574                17.2379                14.3790
 Frc consts  --      2.0456                 2.5072                 2.4383
 IR Inten    --     24.6815                 4.8292                34.8293

                     16                     17                     18
                      A                      A                      A
 Frequencies --    598.8639               607.2333               663.0805
 Red. masses --     18.1060                16.3088                13.3885
 Frc consts  --      3.8259                 3.5431                 3.4683
 IR Inten    --     20.6245                98.7216                25.8911

                     19                     20                     21
                      A                      A                      A
 Frequencies --    747.4416               781.2104               932.7068
 Red. masses --     12.5952                19.0013                 4.5082
 Frc consts  --      4.1458                 6.8323                 2.3107
 IR Inten    --    123.4909                89.8093                55.6915

                     22                     23                     24
                      A                      A                      A
 Frequencies --   1103.1800              1201.8756              1214.8464
 Red. masses --     10.4981                12.6530                 5.4492
 Frc consts  --      7.5275                10.7687                 4.7383
 IR Inten    --    143.6755               171.8270               311.1064

                     25                     26                     27
                      A                      A                      A
 Frequencies --   1227.7888              1273.0353              1344.5301
 Red. masses --     14.4502                12.7761                 9.1806
 Frc consts  --     12.8343                12.1992                 9.7783
 IR Inten    --    142.0538               373.6628                61.6823

                     28                     29                     30
                      A                      A                      A
 Frequencies --   1355.3255              1459.0161              3847.9106
 Red. masses --      1.8577                20.1587                 1.0660
 Frc consts  --      2.0105                25.2832                 9.2997
 IR Inten    --     10.0454               284.2881               135.0495

 - Thermochemistry -
 -------------------
 Temperature   298.150 Kelvin.  Pressure   1.00000 Atm.
 Atom     1 has atomic number  6 and mass  12.00000

 Molecular mass:   199.95666 amu.
 Principal axes and moments of inertia in atomic units:
                           1         2         3
     Eigenvalues --  1142.905962167.451592292.42747
           X            0.73378   0.09338   0.67294
           Y           -0.44450  -0.68311   0.57947
           Z           -0.51380   0.72432   0.45975
 This molecule is an asymmetric top.
 Rotational symmetry number  1.
 Warning -- assumption of classical behavior for rotation
           may cause significant error
 Rotational temperatures (Kelvin)      0.07578     0.03996     0.03778
 Rotational constants (GHZ):           1.57908     0.83266     0.78726
 Zero-point vibrational energy     136271.6 (Joules/Mol)
                                   32.56969 (Kcal/Mol)
 Warning -- explicit consideration of  17 degrees of freedom as
           vibrations may cause significant error
 Vibrational temperatures:     37.57   102.39   195.42   281.98   326.67
          (Kelvin)            344.55   402.74   430.65   457.19   472.55
                              549.32   629.38   649.12   714.86   771.88
                              861.63   873.67   954.02  1075.40  1123.99
                             1341.96  1587.23  1729.23  1747.89  1766.51
                             1831.61  1934.48  1950.01  2099.20  5536.29

 Zero-point correction=                           0.051903 (Hartree/Particle)
 Thermal correction to Energy=                    0.062391
 Thermal correction to Enthalpy=                  0.063335
 Thermal correction to Gibbs Free Energy=         0.014671
 Sum of electronic and zero-point Energies=          -1199.777156
 Sum of electronic and thermal Energies=             -1199.766669
 Sum of electronic and thermal Enthalpies=           -1199.765725
 Sum of electronic and thermal Free Energies=        -1199.814388

                     E (Thermal)             CV                S
                      KCal/Mol        Cal/Mol-Kelvin    Cal/Mol-Kelvin
 Total                   39.151             36.778            102.421
 Electronic               0.000              0.000              0.000
 Translational            0.889              2.981             41.783
 Rotational               0.889              2.981             30.119
 Vibrational             37.373             30.817             30.519
 Vibration     1          0.593              1.985              6.105
 Vibration     2          0.598              1.968              4.121
 Vibration     3          0.614              1.918              2.862
 Vibration     4          0.636              1.845              2.170
 Vibration     5          0.651              1.800              1.902
 Vibration     6          0.657              1.780              1.807
 Vibration     7          0.680              1.711              1.534
 Vibration     8          0.692              1.675              1.421
 Vibration     9          0.704              1.640              1.322
 Vibration    10          0.712              1.619              1.268
 Vibration    11          0.751              1.509              1.032
 Vibration    12          0.798              1.389              0.835
 Vibration    13          0.810              1.358              0.792
 Vibration    14          0.852              1.257              0.666
 Vibration    15          0.891              1.169              0.573
 Vibration    16          0.957              1.034              0.452
 Vibration    17          0.966              1.016              0.437

 Optimization completed.
    -- Stationary point found.
 Normal termination of Gaussian 16 at Fri May 23 04:22:28 2025.
