 Gaussian 16, Revision C.01,
 Gaussian 16:  ES64L-G16RevC.01  3-Jul-2019

 ----------------------------------------------------------------------
 #P wb97xd/6-311++G(d,p) Symm(None) scf(xqc) pop(None) opt(NoFreeze,TS,
 CalcAll,NoEigentest,MaxCycle=999)
 ----------------------------------------------------------------------

 ------------------------------
 Gaussian input prepared by ASE
 ------------------------------
 Symbolic Z-matrix:
 Charge =  0 Multiplicity = 1

 SCF Done:  E(RwB97XD) =  -1199.50584393     A.U. after   25 cycles
 SCF Done:  E(RwB97XD) =  -1199.54461996     A.U. after   21 cycles
 SCF Done:  E(RwB97XD) =  -1199.57433504     A.U. after   21 cycles
 SCF Done:  E(RwB97XD) =  -1199.60170311     A.U. after   19 cycles
 SCF Done:  E(RwB97XD) =  -1199.62521475     A.U. after   19 cycles
 SCF Done:  E(RwB97XD) =  -1199.64021281     A.U. after   19 cycles
 SCF Done:  E(RwB97XD) =  -1199.64431935     A.U. after   17 cycles
 SCF Done:  E(RwB97XD) =  -1199.64503112     A.U. after   18 cycles
 SCF Done:  E(RwB97XD) =  -1199.64508682     A.U. after   17 cycles
 SCF Done:  E(RwB97XD) =  -1199.64508785     A.U. after   14 cycles

 Isotropic polarizability for W=    0.000000       68.85 Bohr**3.
 End of Minotr F.D. properties file   721 does not exist.

 Optimization completed.
    -- Stationary point found.

                          Input orientation:
 ---------------------------------------------------------------------
 Center     Atomic      Atomic             Coordinates (Angstroms)
 Number     Number       Type             X           Y           Z
 ---------------------------------------------------------------------
      1          6           0       -0.835097    0.224267    1.351756
      2          6           0       -0.257002    0.145150   -0.079460
      3          9           0       -0.707219   -0.965854   -0.678507
      4          9           0       -0.682392    1.208367   -0.775744
      5         16           0        1.754012    0.119127   -0.431990
      6          8           0        1.853070   -0.898812    0.727566
      7          8           0        3.293938   -0.362204   -0.258612
      8          8           0        1.889033    1.623679    0.156973
      9          9           0       -0.553761   -0.880660    2.032040
     10          9           0       -0.333209    1.270695    2.000460
     11          9           0       -2.162174    0.358217    1.298801
     12          1           0        2.791224    1.756056    0.475007
 ---------------------------------------------------------------------

 ******    1 imaginary frequencies (negative Signs) ******

                      1                      2                      3
                      A                      A                      A
 Frequencies --   -870.2940                40.6678                83.5591
 Red. masses --     18.0354                15.4755                13.8966
 Frc consts  --      8.0484                 0.0151                 0.0572
 IR Inten    --    395.6627                 0.2980                 0.6753

                      4                      5                      6
                      A                      A                      A
 Frequencies --    115.3482               161.6253               204.1820
 Red. masses --     13.5259                11.8393                 6.5607
 Frc consts  --      0.1060                 0.1822                 0.1612
 IR Inten    --      0.8268                 2.0294                10.0732

                      7                      8                      9
                      A                      A                      A
 Frequencies --    225.0494               231.9812               276.3075
 Red. masses --     18.0665                12.9507                 3.3002
 Frc consts  --      0.5391                 0.4106                 0.1484
 IR Inten    --      1.1054                 0.9577                33.6609

                     10                     11                     12
                      A                      A                      A
 Frequencies --    293.2362               321.1097               358.9387
 Red. masses --     17.8104                 1.8084                16.3193
 Frc consts  --      0.9023                 0.1099                 1.2388
 IR Inten    --      2.4263                68.6487                11.6054

                     13                     14                     15
                      A                      A                      A
 Frequencies --    382.6705               432.1264               445.1043
 Red. masses --     13.7291                 7.0972                15.1499
 Frc consts  --      1.1845                 0.7808                 1.7684
 IR Inten    --     18.9108                31.5173                 0.2691

                     16                     17                     18
                      A                      A                      A
 Frequencies --    540.4903               593.3468               633.3407
 Red. masses --     17.7592                17.7403                17.2012
 Frc consts  --      3.0567                 3.6798                 4.0652
 IR Inten    --      4.2257                 0.9898                 6.8179

                     19                     20                     21
                      A                      A                      A
 Frequencies --    689.5081               749.5767               805.8962
 Red. masses --     17.0188                16.6738                16.9941
 Frc consts  --      4.7671                 5.5197                 6.5029
 IR Inten    --    104.2969                28.0734               138.9393

                     22                     23                     24
                      A                      A                      A
 Frequencies --    922.1156              1013.8687              1126.6965
 Red. masses --     13.5301                13.8023                 3.6457
 Frc consts  --      6.7783                 8.3592                 2.7267
 IR Inten    --    123.9155                54.6851               193.0213

                     25                     26                     27
                      A                      A                      A
 Frequencies --   1138.4331              1192.7542              1214.3775
 Red. masses --      1.7978                 6.1984                13.0791
 Frc consts  --      1.3728                 5.1956                11.3641
 IR Inten    --    129.3666                84.5676               256.3003

                     28                     29                     30
                      A                      A                      A
 Frequencies --   1242.5205              1324.3486              3834.4274
 Red. masses --     13.1135                12.1136                 1.0662
 Frc consts  --     11.9283                12.5178                 9.2358
 IR Inten    --    306.8822               304.1234               149.9599

 - Thermochemistry -
 -------------------
 Temperature   298.150 Kelvin.  Pressure   1.00000 Atm.
 Atom     1 has atomic number  6 and mass  12.00000

 Molecular mass:   199.95666 amu.
 Principal axes and moments of inertia in atomic units:
                           1         2         3
     Eigenvalues --  1106.586602436.698172497.11421
           X            0.93501   0.32092   0.15088
           Y           -0.04114  -0.32445   0.94501
           Z           -0.35223   0.88980   0.29016
 This molecule is an asymmetric top.
 Rotational symmetry number  1.
 Warning -- assumption of classical behavior for rotation
           may cause significant error
 Rotational temperatures (Kelvin)      0.07827     0.03555     0.03469
 Rotational constants (GHZ):           1.63091     0.74065     0.72273
    1 imaginary frequencies ignored.
 Zero-point vibrational energy     123177.1 (Joules/Mol)
                                   29.44004 (Kcal/Mol)
 Warning -- explicit consideration of  16 degrees of freedom as
           vibrations may cause significant error
 Vibrational temperatures:     58.51   120.22   165.96   232.54   293.77
          (Kelvin)            323.80   333.77   397.54   421.90   462.01
                              516.43   550.58   621.73   640.41   777.64
                              853.69   911.24   992.05  1078.47  1159.50
                             1326.72  1458.73  1621.06  1637.95  1716.11
                             1747.22  1787.71  1905.44  5516.89

 Zero-point correction=                           0.046916 (Hartree/Particle)
 Thermal correction to Energy=                    0.057762
 Thermal correction to Enthalpy=                  0.058707
 Thermal correction to Gibbs Free Energy=         0.009538
 Sum of electronic and zero-point Energies=          -1199.598172
 Sum of electronic and thermal Energies=             -1199.587326
 Sum of electronic and thermal Enthalpies=           -1199.586381
 Sum of electronic and thermal Free Energies=        -1199.635550

                     E (Thermal)             CV                S
                      KCal/Mol        Cal/Mol-Kelvin    Cal/Mol-Kelvin
 Total                   36.246             37.487            103.483
 Electronic               0.000              0.000              0.000
 Translational            0.889              2.981             41.783
 Rotational               0.889              2.981             30.288
 Vibrational             34.469             31.525             31.411
 Vibration     1          0.594              1.981              5.226
 Vibration     2          0.600              1.960              3.805
 Vibration     3          0.608              1.937              3.177
 Vibration     4          0.622              1.889              2.531
 Vibration     5          0.640              1.834              2.095
 Vibration     6          0.650              1.803              1.918
 Vibration     7          0.653              1.792              1.864
 Vibration     8          0.678              1.717              1.556
 Vibration     9          0.688              1.686              1.455
 Vibration    10          0.707              1.633              1.304
 Vibration    11          0.734              1.557              1.127
 Vibration    12          0.752              1.507              1.029
 Vibration    13          0.793              1.400              0.852
 Vibration    14          0.804              1.372              0.811
 Vibration    15          0.896              1.161              0.564
 Vibration    16          0.951              1.046              0.461

 Normal termination of Gaussian 16 at Fri May 23 03:32:22 2025.
