 Gaussian 16, Revision C.01,
 Gaussian 16:  ES64L-G16RevC.01  3-Jul-2019

 ----------------------------------------------------------------------
 #P wb97xd/6-311++G(d,p) Symm(None) scf(xqc) pop(None) freq opt(CalcFC)
 ----------------------------------------------------------------------

 ------------------------------
 Gaussian input prepared by ASE
 ------------------------------
 Symbolic Z-matrix:
 Charge =  0 Multiplicity = 1

 SCF Done:  E(RwB97XD) =  -1199.82201872     A.U. after   14 cycles
 SCF Done:  E(RwB97XD) =  -1199.82243751     A.U. after   13 cycles
 SCF Done:  E(RwB97XD) =  -1199.82377491     A.U. after   14 cycles
 SCF Done:  E(RwB97XD) =  -1199.82542508     A.U. after   14 cycles
 SCF Done:  E(RwB97XD) =  -1199.82549384     A.U. after   12 cycles
 SCF Done:  E(RwB97XD) =  -1199.82452461     A.U. after   14 cycles
 SCF Done:  E(RwB97XD) =  -1199.82570658     A.U. after   14 cycles
 SCF Done:  E(RwB97XD) =  -1199.82452943     A.U. after   14 cycles
 SCF Done:  E(RwB97XD) =  -1199.82588556     A.U. after   12 cycles
 SCF Done:  E(RwB97XD) =  -1199.82598527     A.U. after   13 cycles
 SCF Done:  E(RwB97XD) =  -1199.82603962     A.U. after   11 cycles
 SCF Done:  E(RwB97XD) =  -1199.82605038     A.U. after   11 cycles
 SCF Done:  E(RwB97XD) =  -1199.82605048     A.U. after    9 cycles
 SCF Done:  E(RwB97XD) =  -1199.82605045     A.U. after   10 cycles
 SCF Done:  E(RwB97XD) =  -1199.82605057     A.U. after    9 cycles
 Optimization completed.
    -- Stationary point found.
 Normal termination of Gaussian 16 at Fri May 23 03:43:03 2025.

 ----------------------------------------------------------------------
 #P Geom=AllCheck Guess=TCheck SCRF=Check GenChk RwB97XD/6-311++G(d,p)
 Freq
 ----------------------------------------------------------------------

 Structure from the checkpoint file:  "2003846667223680600001_r12_insertion_R_6_5_2_IRC_F_prod.chk"
 ------------------------------
 Gaussian input prepared by ASE
 ------------------------------
 Charge =  0 Multiplicity = 1

                          Input orientation:
 ---------------------------------------------------------------------
 Center     Atomic      Atomic             Coordinates (Angstroms)
 Number     Number       Type             X           Y           Z
 ---------------------------------------------------------------------
      1          6           0       -1.174668   -0.273996    0.887713
      2          6           0       -0.421081    0.461852   -0.256793
      3          9           0       -1.132864    0.377184   -1.377168
      4          9           0       -0.275857    1.751313    0.079804
      5         16           0        1.291605   -0.222284   -0.600345
      6          8           0        2.035446   -0.138824    0.625406
      7          8           0        1.148434   -1.416852   -1.366986
      8          8           0        1.797282    0.917997   -1.607083
      9          9           0       -0.591336   -0.043518    2.053987
     10          9           0       -2.424744    0.175480    0.935579
     11          9           0       -1.193803   -1.580577    0.656013
     12          1           0        2.194545    1.649331   -1.116110
 ---------------------------------------------------------------------

 SCF Done:  E(RwB97XD) =  -1199.82605057     A.U. after    1 cycles

 Isotropic polarizability for W=    0.000000       55.71 Bohr**3.
 End of Minotr F.D. properties file   721 does not exist.

                      1                      2                      3
                      A                      A                      A
 Frequencies --     29.7528                67.6329               131.5935
 Red. masses --     14.0165                14.6220                14.5779
 Frc consts  --      0.0073                 0.0394                 0.1487
 IR Inten    --      1.3165                 0.6995                 1.3258

                      4                      5                      6
                      A                      A                      A
 Frequencies --    192.9952               222.6048               234.1839
 Red. masses --      9.0242                17.9442                 7.9517
 Frc consts  --      0.1980                 0.5239                 0.2569
 IR Inten    --      8.6267                 1.2194                 9.8690

                      7                      8                      9
                      A                      A                      A
 Frequencies --    275.2690               310.9973               318.0195
 Red. masses --     15.1830                 5.0864                18.1704
 Frc consts  --      0.6778                 0.2899                 1.0827
 IR Inten    --      1.3984                16.4889                 0.3833

                     10                     11                     12
                      A                      A                      A
 Frequencies --    358.3545               371.4919               436.1859
 Red. masses --      1.8673                17.6608                 4.1719
 Frc consts  --      0.1413                 1.4360                 0.4677
 IR Inten    --     56.9631                 0.1693                30.7923

                     13                     14                     15
                      A                      A                      A
 Frequencies --    484.3955               489.5681               539.4845
 Red. masses --     13.2843                 8.4849                17.8519
 Frc consts  --      1.8365                 1.1982                 3.0612
 IR Inten    --     14.4888                20.6485                28.7625

                     16                     17                     18
                      A                      A                      A
 Frequencies --    600.4134               608.9040               653.8174
 Red. masses --     17.3810                20.1446                17.3470
 Frc consts  --      3.6917                 4.4005                 4.3691
 IR Inten    --      3.5693               118.2795                29.7647

                     19                     20                     21
                      A                      A                      A
 Frequencies --    764.7172               825.3476              1005.5681
 Red. masses --     17.1186                17.1309                13.8149
 Frc consts  --      5.8982                 6.8755                 8.2304
 IR Inten    --     41.2412               217.9338                52.7805

                     22                     23                     24
                      A                      A                      A
 Frequencies --   1130.5666              1157.9322              1201.7646
 Red. masses --      1.1953                12.1926                15.9999
 Frc consts  --      0.9002                 9.6319                13.6146
 IR Inten    --    107.7150               242.3461                 5.9075

                     25                     26                     27
                      A                      A                      A
 Frequencies --   1219.3635              1249.2463              1253.7010
 Red. masses --     13.1213                13.7111                13.1799
 Frc consts  --     11.4946                12.6072                12.2053
 IR Inten    --    109.6739               331.7427               261.0794

                     28                     29                     30
                      A                      A                      A
 Frequencies --   1344.8757              1443.1843              3832.2300
 Red. masses --     12.6442                14.2541                 1.0662
 Frc consts  --     13.4743                17.4918                 9.2260
 IR Inten    --    106.8832               313.8647               161.5362

 - Thermochemistry -
 -------------------
 Temperature   298.150 Kelvin.  Pressure   1.00000 Atm.
 Atom     1 has atomic number  6 and mass  12.00000

 Molecular mass:   199.95666 amu.
 Principal axes and moments of inertia in atomic units:
                           1         2         3
     Eigenvalues --  1133.511012197.580042320.32917
           X            0.85184  -0.35930   0.38114
           Y            0.04362   0.77378   0.63196
           Z           -0.52199  -0.52170   0.67480
 This molecule is an asymmetric top.
 Rotational symmetry number  1.
 Warning -- assumption of classical behavior for rotation
           may cause significant error
 Rotational temperatures (Kelvin)      0.07641     0.03941     0.03733
 Rotational constants (GHZ):           1.59217     0.82124     0.77780
 Zero-point vibrational energy     136100.1 (Joules/Mol)
                                   32.52871 (Kcal/Mol)
 Warning -- explicit consideration of  17 degrees of freedom as
           vibrations may cause significant error
 Vibrational temperatures:     42.81    97.31   189.33   277.68   320.28
          (Kelvin)            336.94   396.05   447.46   457.56   515.59
                              534.49   627.57   696.94   704.38   776.20
                              863.86   876.08   940.70  1100.26  1187.49
                             1446.79  1626.63  1666.01  1729.07  1754.39
                             1797.39  1803.80  1934.98  2076.42  5513.72

 Zero-point correction=                           0.051838 (Hartree/Particle)
 Thermal correction to Energy=                    0.062278
 Thermal correction to Enthalpy=                  0.063222
 Thermal correction to Gibbs Free Energy=         0.014674
 Sum of electronic and zero-point Energies=          -1199.774213
 Sum of electronic and thermal Energies=             -1199.763773
 Sum of electronic and thermal Enthalpies=           -1199.762828
 Sum of electronic and thermal Free Energies=        -1199.811377

                     E (Thermal)             CV                S
                      KCal/Mol        Cal/Mol-Kelvin    Cal/Mol-Kelvin
 Total                   39.080             36.600            102.179
 Electronic               0.000              0.000              0.000
 Translational            0.889              2.981             41.783
 Rotational               0.889              2.981             30.137
 Vibrational             37.303             30.638             30.258
 Vibration     1          0.594              1.984              5.846
 Vibration     2          0.598              1.970              4.221
 Vibration     3          0.612              1.922              2.923
 Vibration     4          0.635              1.850              2.199
 Vibration     5          0.648              1.807              1.938
 Vibration     6          0.654              1.789              1.847
 Vibration     7          0.677              1.719              1.563
 Vibration     8          0.700              1.653              1.357
 Vibration     9          0.704              1.639              1.320
 Vibration    10          0.733              1.558              1.129
 Vibration    11          0.743              1.531              1.074
 Vibration    12          0.797              1.391              0.839
 Vibration    13          0.841              1.285              0.698
 Vibration    14          0.845              1.273              0.685
 Vibration    15          0.895              1.163              0.566
 Vibration    16          0.959              1.031              0.449
 Vibration    17          0.968              1.013              0.435

 Optimization completed.
    -- Stationary point found.
 Normal termination of Gaussian 16 at Fri May 23 03:44:22 2025.
