 Gaussian 16, Revision C.01,
 Gaussian 16:  ES64L-G16RevC.01  3-Jul-2019

 ----------------------------------------------------------------------
 #P wb97xd/6-311++G(d,p) Symm(None) scf(xqc) pop(None) freq opt(CalcFC)
 ----------------------------------------------------------------------

 ------------------------------
 Gaussian input prepared by ASE
 ------------------------------
 Symbolic Z-matrix:
 Charge =  0 Multiplicity = 1

 SCF Done:  E(RwB97XD) =  -1199.76326666     A.U. after   15 cycles
 SCF Done:  E(RwB97XD) =  -1199.76956021     A.U. after   14 cycles
 SCF Done:  E(RwB97XD) =  -1199.77089428     A.U. after   15 cycles
 SCF Done:  E(RwB97XD) =  -1199.77034350     A.U. after   15 cycles
 SCF Done:  E(RwB97XD) =  -1199.77181501     A.U. after   13 cycles
 SCF Done:  E(RwB97XD) =  -1199.74813109     A.U. after   15 cycles
 SCF Done:  E(RwB97XD) =  -1199.77269218     A.U. after   14 cycles
 SCF Done:  E(RwB97XD) =  -1199.77289466     A.U. after   12 cycles
 SCF Done:  E(RwB97XD) =  -1199.77290965     A.U. after   10 cycles
 SCF Done:  E(RwB97XD) =  -1199.77304817     A.U. after   12 cycles
 SCF Done:  E(RwB97XD) =  -1199.77305773     A.U. after   10 cycles
 SCF Done:  E(RwB97XD) =  -1199.77306092     A.U. after    9 cycles
 SCF Done:  E(RwB97XD) =  -1199.77309491     A.U. after   12 cycles
 SCF Done:  E(RwB97XD) =  -1199.77309639     A.U. after   11 cycles
 SCF Done:  E(RwB97XD) =  -1199.77310095     A.U. after   10 cycles
 SCF Done:  E(RwB97XD) =  -1199.77310343     A.U. after   11 cycles
 SCF Done:  E(RwB97XD) =  -1199.77310460     A.U. after   10 cycles
 SCF Done:  E(RwB97XD) =  -1199.77310485     A.U. after    9 cycles
 SCF Done:  E(RwB97XD) =  -1199.77310488     A.U. after    9 cycles
 Optimization completed.
    -- Stationary point found.
 Normal termination of Gaussian 16 at Fri May 23 05:21:48 2025.

 ----------------------------------------------------------------------
 #P Geom=AllCheck Guess=TCheck SCRF=Check GenChk RwB97XD/6-311++G(d,p)
 Freq
 ----------------------------------------------------------------------

 Structure from the checkpoint file:  "2003846667223680600001_r13_insertion_ROR_3_2_5_8_IRC_R_prod.chk"
 ------------------------------
 Gaussian input prepared by ASE
 ------------------------------
 Charge =  0 Multiplicity = 1

                          Input orientation:
 ---------------------------------------------------------------------
 Center     Atomic      Atomic             Coordinates (Angstroms)
 Number     Number       Type             X           Y           Z
 ---------------------------------------------------------------------
      1          6           0        0.204877   -1.371986   -0.800248
      2          6           0        0.209252   -0.280512    0.286569
      3          9           0       -3.055593    0.753249    1.959776
      4          9           0        0.398221   -0.807630    1.481044
      5         16           0        0.651386    1.404972    0.040127
      6          8           0        1.037489    2.118624    1.216970
      7          8           0        0.863937    1.878752   -1.291110
      8          8           0       -0.853749    0.669615    0.223532
      9          9           0        1.381869   -1.989825   -0.800682
     10          9           0       -0.750988   -2.250236   -0.519639
     11          9           0       -0.018521   -0.852232   -1.994075
     12          1           0       -2.331044    0.725768    1.388629
 ---------------------------------------------------------------------

 SCF Done:  E(RwB97XD) =  -1199.77310488     A.U. after    1 cycles

 Isotropic polarizability for W=    0.000000       56.95 Bohr**3.
 End of Minotr F.D. properties file   721 does not exist.

                      1                      2                      3
                      A                      A                      A
 Frequencies --     25.3533                28.5206                44.5284
 Red. masses --     17.3399                17.9643                17.6297
 Frc consts  --      0.0066                 0.0086                 0.0206
 IR Inten    --      2.1333                 1.5044                 1.6515

                      4                      5                      6
                      A                      A                      A
 Frequencies --    112.7822               137.0177               142.7236
 Red. masses --     13.1391                16.0712                13.3829
 Frc consts  --      0.0985                 0.1778                 0.1606
 IR Inten    --      1.8177                 2.1754                 0.3554

                      7                      8                      9
                      A                      A                      A
 Frequencies --    234.2836               256.3326               285.9255
 Red. masses --     17.4623                17.5481                17.1413
 Frc consts  --      0.5647                 0.6793                 0.8257
 IR Inten    --      2.0303                 2.6975                 1.4466

                     10                     11                     12
                      A                      A                      A
 Frequencies --    333.0740               406.7183               440.5170
 Red. masses --     18.6369                17.4636                 4.0182
 Frc consts  --      1.2182                 1.7020                 0.4594
 IR Inten    --      2.0118                19.7108                10.7195

                     13                     14                     15
                      A                      A                      A
 Frequencies --    452.3241               483.6051               497.4929
 Red. masses --     12.2462                 9.9719                 1.3978
 Frc consts  --      1.4762                 1.3741                 0.2038
 IR Inten    --     12.0557                22.8649               112.1723

                     16                     17                     18
                      A                      A                      A
 Frequencies --    528.8097               567.4107               594.9353
 Red. masses --      2.1689                 2.5599                12.6472
 Frc consts  --      0.3573                 0.4856                 2.6375
 IR Inten    --     29.3039                21.7296                29.0769

                     19                     20                     21
                      A                      A                      A
 Frequencies --    615.9212               636.4786               770.8277
 Red. masses --     13.4336                 5.5723                17.1667
 Frc consts  --      3.0026                 1.3300                 6.0097
 IR Inten    --    147.2878                63.4916                15.4775

                     22                     23                     24
                      A                      A                      A
 Frequencies --   1002.5710              1091.0065              1185.1245
 Red. masses --     13.7932                13.9381                15.5185
 Frc consts  --      8.1685                 9.7748                12.8418
 IR Inten    --    156.0137               216.6348               139.2305

                     25                     26                     27
                      A                      A                      A
 Frequencies --   1227.9646              1262.4632              1301.0595
 Red. masses --     13.0949                13.1932                14.7878
 Frc consts  --     11.6339                12.3891                14.7485
 IR Inten    --    260.5712               310.5998               102.5106

                     28                     29                     30
                      A                      A                      A
 Frequencies --   1349.0404              1428.5509              4042.9557
 Red. masses --     12.5422                20.5272                 1.0585
 Frc consts  --     13.4485                24.6815                10.1941
 IR Inten    --    142.8063               251.9686               689.9283

 - Thermochemistry -
 -------------------
 Temperature   298.150 Kelvin.  Pressure   1.00000 Atm.
 Atom     1 has atomic number  6 and mass  12.00000

 Molecular mass:   199.95666 amu.
 Principal axes and moments of inertia in atomic units:
                           1         2         3
     Eigenvalues --  1742.277782262.452393055.44473
           X           -0.27444   0.75822   0.59143
           Y            0.80562   0.51710  -0.28910
           Z            0.52503  -0.39713   0.75275
 This molecule is an asymmetric top.
 Rotational symmetry number  1.
 Warning -- assumption of classical behavior for rotation
           may cause significant error
 Rotational temperatures (Kelvin)      0.04971     0.03828     0.02835
 Rotational constants (GHZ):           1.03585     0.79769     0.59066
 Zero-point vibrational energy     128516.7 (Joules/Mol)
                                   30.71623 (Kcal/Mol)
 Warning -- explicit consideration of  19 degrees of freedom as
           vibrations may cause significant error
 Vibrational temperatures:     36.48    41.03    64.07   162.27   197.14
          (Kelvin)            205.35   337.08   368.81   411.38   479.22
                              585.18   633.81   650.79   695.80   715.78
                              760.84   816.38   855.98   886.17   915.75
                             1109.05  1442.48  1569.72  1705.13  1766.77
                             1816.40  1871.93  1940.97  2055.37  5816.91

 Zero-point correction=                           0.048949 (Hartree/Particle)
 Thermal correction to Energy=                    0.060593
 Thermal correction to Enthalpy=                  0.061538
 Thermal correction to Gibbs Free Energy=         0.008440
 Sum of electronic and zero-point Energies=          -1199.724155
 Sum of electronic and thermal Energies=             -1199.712511
 Sum of electronic and thermal Enthalpies=           -1199.711567
 Sum of electronic and thermal Free Energies=        -1199.764665

                     E (Thermal)             CV                S
                      KCal/Mol        Cal/Mol-Kelvin    Cal/Mol-Kelvin
 Total                   38.023             38.846            111.754
 Electronic               0.000              0.000              0.000
 Translational            0.889              2.981             41.783
 Rotational               0.889              2.981             30.866
 Vibrational             36.246             32.884             39.104
 Vibration     1          0.593              1.985              6.163
 Vibration     2          0.593              1.984              5.930
 Vibration     3          0.595              1.980              5.047
 Vibration     4          0.607              1.939              3.220
 Vibration     5          0.614              1.916              2.845
 Vibration     6          0.616              1.910              2.767
 Vibration     7          0.654              1.788              1.846
 Vibration     8          0.666              1.752              1.687
 Vibration     9          0.684              1.700              1.498
 Vibration    10          0.715              1.609              1.245
 Vibration    11          0.771              1.456              0.938
 Vibration    12          0.800              1.382              0.825
 Vibration    13          0.811              1.356              0.789
 Vibration    14          0.840              1.286              0.700
 Vibration    15          0.853              1.256              0.664
 Vibration    16          0.884              1.186              0.590
 Vibration    17          0.923              1.102              0.509
 Vibration    18          0.953              1.043              0.458
 Vibration    19          0.976              0.998              0.423

                           ! Non-Optimized Parameters !
 Normal termination of Gaussian 16 at Fri May 23 05:23:02 2025.
