 Gaussian 16, Revision C.01,
 Gaussian 16:  ES64L-G16RevC.01  3-Jul-2019

 ----------------------------------------------------------------------
 #P wb97xd/6-311++G(d,p) Symm(None) scf(xqc) pop(None) geom(AllCheck,No
 KeepConstants) guess(Read) irc(RCFC,reverse,MaxPoints=100,StepSize=2)
 ----------------------------------------------------------------------

 Structure from the checkpoint file:  "2003846667223680600001_r12_insertion_R_1_2_3_IRC_R.chk"
 ------------------------------
 Gaussian input prepared by ASE
 ------------------------------
 Charge =  0 Multiplicity = 1

 SCF Done:  E(RwB97XD) =  -1199.67751117     A.U. after   12 cycles
 SCF Done:  E(RwB97XD) =  -1199.67773585     A.U. after   12 cycles
 SCF Done:  E(RwB97XD) =  -1199.67810903     A.U. after   12 cycles
 SCF Done:  E(RwB97XD) =  -1199.67862931     A.U. after   12 cycles
 SCF Done:  E(RwB97XD) =  -1199.67929492     A.U. after   12 cycles
 SCF Done:  E(RwB97XD) =  -1199.68010343     A.U. after   12 cycles
 SCF Done:  E(RwB97XD) =  -1199.68105153     A.U. after   12 cycles
 SCF Done:  E(RwB97XD) =  -1199.68213516     A.U. after   12 cycles
 SCF Done:  E(RwB97XD) =  -1199.68334975     A.U. after   12 cycles
 SCF Done:  E(RwB97XD) =  -1199.68469038     A.U. after   12 cycles
 SCF Done:  E(RwB97XD) =  -1199.82072764     A.U. after    9 cycles
 SCF Done:  E(RwB97XD) =  -1199.82111688     A.U. after    9 cycles
 SCF Done:  E(RwB97XD) =  -1199.82148543     A.U. after    9 cycles
 SCF Done:  E(RwB97XD) =  -1199.82183394     A.U. after    9 cycles
 SCF Done:  E(RwB97XD) =  -1199.82216308     A.U. after    9 cycles
 SCF Done:  E(RwB97XD) =  -1199.82247349     A.U. after    9 cycles
 SCF Done:  E(RwB97XD) =  -1199.82276582     A.U. after    9 cycles
 SCF Done:  E(RwB97XD) =  -1199.82304072     A.U. after    9 cycles
 SCF Done:  E(RwB97XD) =  -1199.82329882     A.U. after    9 cycles
 SCF Done:  E(RwB97XD) =  -1199.82354075     A.U. after    9 cycles

                          Input orientation:
 ---------------------------------------------------------------------
 Center     Atomic      Atomic             Coordinates (Angstroms)
 Number     Number       Type             X           Y           Z
 ---------------------------------------------------------------------
      1          6           0       -1.328739   -0.598185   -0.223077
      2          6           0       -0.377461    0.449803    0.374611
      3          9           0       -1.130437   -0.584399   -1.538864
      4          9           0       -0.706305    1.643792   -0.132917
      5         16           0        1.449661    0.140293    0.042776
      6          8           0        2.092489    1.142366    0.845296
      7          8           0        1.672162   -1.265991    0.153268
      8          8           0        1.675230    0.507362   -1.499771
      9          9           0       -1.109748   -1.805935    0.263935
     10          9           0       -0.508156    0.465927    1.698571
     11          9           0       -2.586718   -0.261658    0.047908
     12          1           0        1.876831    1.448298   -1.590343
 ---------------------------------------------------------------------

 Normal termination of Gaussian 16 at Fri May 23 04:07:08 2025.
