 Gaussian 16, Revision C.01,
 Gaussian 16:  ES64L-G16RevC.01  3-Jul-2019

 ----------------------------------------------------------------------
 #P wb97xd/6-311++G(d,p) Symm(None) scf(xqc) pop(None) geom(AllCheck,No
 KeepConstants) guess(Read) irc(RCFC,reverse,MaxPoints=100,StepSize=2)
 ----------------------------------------------------------------------

 Structure from the checkpoint file:  "2003846667223680600001_r12_insertion_R_3_2_5_IRC_R.chk"
 ------------------------------
 Gaussian input prepared by ASE
 ------------------------------
 Charge =  0 Multiplicity = 1

 SCF Done:  E(RwB97XD) =  -1199.70532135     A.U. after   11 cycles
 SCF Done:  E(RwB97XD) =  -1199.70542170     A.U. after   11 cycles
 SCF Done:  E(RwB97XD) =  -1199.70558862     A.U. after   11 cycles
 SCF Done:  E(RwB97XD) =  -1199.70582154     A.U. after   11 cycles
 SCF Done:  E(RwB97XD) =  -1199.70611946     A.U. after   11 cycles
 SCF Done:  E(RwB97XD) =  -1199.70648087     A.U. after   11 cycles
 SCF Done:  E(RwB97XD) =  -1199.70690362     A.U. after   11 cycles
 SCF Done:  E(RwB97XD) =  -1199.70738495     A.U. after   11 cycles
 SCF Done:  E(RwB97XD) =  -1199.70792160     A.U. after   11 cycles
 SCF Done:  E(RwB97XD) =  -1199.70850999     A.U. after   11 cycles
 SCF Done:  E(RwB97XD) =  -1199.76471247     A.U. after    9 cycles
 SCF Done:  E(RwB97XD) =  -1199.76516571     A.U. after    9 cycles
 SCF Done:  E(RwB97XD) =  -1199.76561428     A.U. after    9 cycles
 SCF Done:  E(RwB97XD) =  -1199.76605822     A.U. after    9 cycles
 SCF Done:  E(RwB97XD) =  -1199.76649758     A.U. after    9 cycles
 SCF Done:  E(RwB97XD) =  -1199.76693240     A.U. after    9 cycles
 SCF Done:  E(RwB97XD) =  -1199.76736274     A.U. after    9 cycles
 SCF Done:  E(RwB97XD) =  -1199.76778862     A.U. after    9 cycles
 SCF Done:  E(RwB97XD) =  -1199.76821009     A.U. after    9 cycles
 SCF Done:  E(RwB97XD) =  -1199.76862719     A.U. after    9 cycles

                          Input orientation:
 ---------------------------------------------------------------------
 Center     Atomic      Atomic             Coordinates (Angstroms)
 Number     Number       Type             X           Y           Z
 ---------------------------------------------------------------------
      1          6           0       -1.486589    0.202533    0.823678
      2          6           0       -0.438481   -0.348963   -0.259038
      3          9           0       -0.323435   -1.642773    0.002880
      4          9           0       -1.027150   -0.154261   -1.448377
      5         16           0        1.742621    0.053690   -0.563514
      6          8           0        2.472876   -0.776873    0.349857
      7          8           0        1.929424   -0.019652   -1.983859
      8          8           0        1.518368    1.532850   -0.025594
      9          9           0       -2.638482   -0.466199    0.762144
     10          9           0       -0.986950    0.063378    2.044779
     11          9           0       -1.756333    1.497958    0.616930
     12          1           0        0.584394    1.585638    0.198963
 ---------------------------------------------------------------------

 Normal termination of Gaussian 16 at Fri May 23 04:16:13 2025.
