 Gaussian 16, Revision C.01,
 Gaussian 16:  ES64L-G16RevC.01  3-Jul-2019

 ----------------------------------------------------------------------
 #P wb97xd/6-311++G(d,p) Symm(None) scf(xqc) pop(None) freq opt(CalcFC,
  Tight)
 ----------------------------------------------------------------------

 ------------------------------
 Gaussian input prepared by ASE
 ------------------------------
 Symbolic Z-matrix:
 Charge =  0 Multiplicity = 1

 SCF Done:  E(RwB97XD) =  -1199.73080165     A.U. after   15 cycles
 SCF Done:  E(RwB97XD) =  -1199.73080169     A.U. after    8 cycles
 Optimization completed.
    -- Stationary point found.
 Normal termination of Gaussian 16 at Fri May 23 04:30:00 2025.

 ----------------------------------------------------------------------
 #P Geom=AllCheck Guess=TCheck SCRF=Check GenChk RwB97XD/6-311++G(d,p)
 Freq
 ----------------------------------------------------------------------

 Structure from the checkpoint file:  "2004328380979804780401_well.chk"
 ------------------------------
 Gaussian input prepared by ASE
 ------------------------------
 Charge =  0 Multiplicity = 1

                          Input orientation:
 ---------------------------------------------------------------------
 Center     Atomic      Atomic             Coordinates (Angstroms)
 Number     Number       Type             X           Y           Z
 ---------------------------------------------------------------------
      1          6           0       -0.807920    0.245152    0.898935
      2          6           0       -0.786007   -0.008240   -0.657375
      3          9           0       -1.386452   -1.089326   -1.067363
      4          9           0       -1.162317    1.009142   -1.385417
      5         16           0        1.156105   -0.156194   -0.319287
      6          8           0        0.538679    0.176271    1.197428
      7          8           0        2.577196   -0.424471   -0.332756
      8          8           0        1.232696    1.409083   -0.883485
      9          9           0        0.766553   -1.828785   -0.182423
     10          9           0       -1.300717    1.441719    1.200782
     11          9           0       -1.498332   -0.675453    1.556325
     12          1           0        2.143298    1.718066   -0.810267
 ---------------------------------------------------------------------

 SCF Done:  E(RwB97XD) =  -1199.73080169     A.U. after    1 cycles

 Isotropic polarizability for W=    0.000000       59.25 Bohr**3.
 End of Minotr F.D. properties file   721 does not exist.

                      1                      2                      3
                      A                      A                      A
 Frequencies --     56.9819                74.2988               205.8761
 Red. masses --     13.7904                13.8317                18.7204
 Frc consts  --      0.0264                 0.0450                 0.4675
 IR Inten    --      1.1044                 0.2038                 0.1458

                      4                      5                      6
                      A                      A                      A
 Frequencies --    231.8244               261.8334               275.3824
 Red. masses --     15.6097                15.5885                15.4584
 Frc consts  --      0.4943                 0.6297                 0.6907
 IR Inten    --      0.5166                 2.9221                 0.5628

                      7                      8                      9
                      A                      A                      A
 Frequencies --    287.5817               339.3970               350.9736
 Red. masses --     10.1221                16.1143                 8.8134
 Frc consts  --      0.4932                 1.0936                 0.6396
 IR Inten    --      5.0806                 5.3596                 6.2181

                     10                     11                     12
                      A                      A                      A
 Frequencies --    442.8367               451.8703               473.3028
 Red. masses --      4.6222                 4.1097                 8.7969
 Frc consts  --      0.5341                 0.4944                 1.1611
 IR Inten    --      9.2976                 3.7314                42.2024

                     13                     14                     15
                      A                      A                      A
 Frequencies --    516.3926               530.3195               571.9266
 Red. masses --     10.0513                 2.4989                 7.5616
 Frc consts  --      1.5792                 0.4141                 1.4573
 IR Inten    --     49.1541               126.3242                22.0366

                     16                     17                     18
                      A                      A                      A
 Frequencies --    605.2993               615.3337               623.7415
 Red. masses --     15.9860                13.4532                11.4588
 Frc consts  --      3.4509                 3.0012                 2.6266
 IR Inten    --      1.0524                23.3296                39.6693

                     19                     20                     21
                      A                      A                      A
 Frequencies --    723.3730               729.7091               818.8463
 Red. masses --     17.4208                18.2289                16.1080
 Frc consts  --      5.3709                 5.7189                 6.3635
 IR Inten    --    143.5430               272.1947               139.5847

                     22                     23                     24
                      A                      A                      A
 Frequencies --    875.6031              1099.5074              1147.8459
 Red. masses --     13.2207                 1.7922                 4.5904
 Frc consts  --      5.9720                 1.2765                 3.5634
 IR Inten    --    146.0629                96.2815               204.7002

                     25                     26                     27
                      A                      A                      A
 Frequencies --   1219.7031              1246.9574              1281.7499
 Red. masses --      8.2149                12.9295                 9.1189
 Frc consts  --      7.2005                11.8450                 8.8267
 IR Inten    --    226.1387               296.9413               289.6665

                     28                     29                     30
                      A                      A                      A
 Frequencies --   1329.9754              1360.7766              3852.0302
 Red. masses --     10.6732                12.0302                 1.0662
 Frc consts  --     11.1232                13.1250                 9.3213
 IR Inten    --    154.1585               203.9911               151.3908

 - Thermochemistry -
 -------------------
 Temperature   298.150 Kelvin.  Pressure   1.00000 Atm.
 Atom     1 has atomic number  6 and mass  12.00000

 Molecular mass:   199.95666 amu.
 Principal axes and moments of inertia in atomic units:
                           1         2         3
     Eigenvalues --  1282.841841917.823921991.67606
           X            0.94306   0.06848   0.32550
           Y           -0.16282   0.94836   0.27222
           Z           -0.29005  -0.30972   0.90551
 This molecule is an asymmetric top.
 Rotational symmetry number  1.
 Warning -- assumption of classical behavior for rotation
           may cause significant error
 Rotational temperatures (Kelvin)      0.06752     0.04516     0.04349
 Rotational constants (GHZ):           1.40683     0.94104     0.90614
 Zero-point vibrational energy     135185.5 (Joules/Mol)
                                   32.31011 (Kcal/Mol)
 Warning -- explicit consideration of  17 degrees of freedom as
           vibrations may cause significant error
 Vibrational temperatures:     81.98   106.90   296.21   333.54   376.72
          (Kelvin)            396.21   413.77   488.32   504.97   637.14
                              650.14   680.98   742.97   763.01   822.87
                              870.89   885.33   897.42  1040.77  1049.89
                             1178.14  1259.80  1581.95  1651.49  1754.88
                             1794.09  1844.15  1913.54  1957.85  5542.21

 Zero-point correction=                           0.051489 (Hartree/Particle)
 Thermal correction to Energy=                    0.061349
 Thermal correction to Enthalpy=                  0.062294
 Thermal correction to Gibbs Free Energy=         0.015802
 Sum of electronic and zero-point Energies=          -1199.679312
 Sum of electronic and thermal Energies=             -1199.669452
 Sum of electronic and thermal Enthalpies=           -1199.668508
 Sum of electronic and thermal Free Energies=        -1199.714999

                     E (Thermal)             CV                S
                      KCal/Mol        Cal/Mol-Kelvin    Cal/Mol-Kelvin
 Total                   38.497             36.403             97.849
 Electronic               0.000              0.000              0.000
 Translational            0.889              2.981             41.783
 Rotational               0.889              2.981             29.973
 Vibrational             36.720             30.442             26.093
 Vibration     1          0.596              1.975              4.559
 Vibration     2          0.599              1.966              4.036
 Vibration     3          0.640              1.832              2.080
 Vibration     4          0.653              1.792              1.865
 Vibration     5          0.669              1.743              1.650
 Vibration     6          0.677              1.719              1.562
 Vibration     7          0.685              1.697              1.488
 Vibration     8          0.719              1.597              1.215
 Vibration     9          0.728              1.573              1.162
 Vibration    10          0.802              1.377              0.818
 Vibration    11          0.811              1.357              0.790
 Vibration    12          0.830              1.309              0.728
 Vibration    13          0.871              1.214              0.618
 Vibration    14          0.885              1.183              0.586
 Vibration    15          0.928              1.092              0.501
 Vibration    16          0.964              1.021              0.441
 Vibration    17          0.975              0.999              0.424

 Optimization completed.
    -- Stationary point found.
 Normal termination of Gaussian 16 at Fri May 23 04:31:33 2025.
