 Gaussian 16, Revision C.01,
 Gaussian 16:  ES64L-G16RevC.01  3-Jul-2019

 ----------------------------------------------------------------------
 #P wb97xd/6-311++G(d,p) Symm(None) scf(xqc) pop(None) freq opt(CalcFC,
  Tight)
 ----------------------------------------------------------------------

 ------------------------------
 Gaussian input prepared by ASE
 ------------------------------
 Symbolic Z-matrix:
 Charge =  0 Multiplicity = 1

 SCF Done:  E(RwB97XD) =  -1199.68140026     A.U. after   15 cycles
 SCF Done:  E(RwB97XD) =  -1199.68140026     A.U. after    8 cycles
 Optimization completed.
    -- Stationary point found.
 Normal termination of Gaussian 16 at Fri May 23 04:32:13 2025.

 ----------------------------------------------------------------------
 #P Geom=AllCheck Guess=TCheck SCRF=Check GenChk RwB97XD/6-311++G(d,p)
 Freq
 ----------------------------------------------------------------------

 Structure from the checkpoint file:  "2004167628425982700001_well.chk"
 ------------------------------
 Gaussian input prepared by ASE
 ------------------------------
 Charge =  0 Multiplicity = 1

                          Input orientation:
 ---------------------------------------------------------------------
 Center     Atomic      Atomic             Coordinates (Angstroms)
 Number     Number       Type             X           Y           Z
 ---------------------------------------------------------------------
      1          6           0       -1.153215    0.175127    0.897988
      2          6           0       -0.636629    0.036205   -0.558947
      3          9           0       -1.066184   -1.136120   -1.056289
      4          9           0       -1.149719    1.031904   -1.301082
      5         16           0        1.247612    0.034479   -0.935352
      6          8           0        1.625451   -1.306498   -0.207323
      7          8           0        2.942853   -0.657139   -0.527286
      8          8           0        1.450194    1.277530    0.080017
      9          9           0       -0.495800   -0.656823    1.699471
     10          9           0       -1.007484    1.415565    1.340443
     11          9           0       -2.449324   -0.134892    0.936379
     12          1           0        2.401155    1.401381    0.201036
 ---------------------------------------------------------------------

 SCF Done:  E(RwB97XD) =  -1199.68140026     A.U. after    1 cycles

 Isotropic polarizability for W=    0.000000       60.68 Bohr**3.
 End of Minotr F.D. properties file   721 does not exist.

                      1                      2                      3
                      A                      A                      A
 Frequencies --     34.7507                68.6164               118.3596
 Red. masses --     13.0590                16.2909                13.2541
 Frc consts  --      0.0093                 0.0452                 0.1094
 IR Inten    --      0.9054                 1.0880                 0.1764

                      4                      5                      6
                      A                      A                      A
 Frequencies --    159.0775               209.2537               225.5567
 Red. masses --     14.8661                11.8761                17.8750
 Frc consts  --      0.2216                 0.3064                 0.5358
 IR Inten    --      3.4783                11.5910                 1.8498

                      7                      8                      9
                      A                      A                      A
 Frequencies --    260.2995               290.5707               315.5187
 Red. masses --      9.5587                15.9494                12.5930
 Frc consts  --      0.3816                 0.7934                 0.7386
 IR Inten    --      7.0616                 1.8915                 3.9225

                     10                     11                     12
                      A                      A                      A
 Frequencies --    344.5954               352.2499               384.0372
 Red. masses --      2.2875                16.1501                13.5173
 Frc consts  --      0.1600                 1.1807                 1.1746
 IR Inten    --     66.8471                22.9196               117.5328

                     13                     14                     15
                      A                      A                      A
 Frequencies --    430.7913               442.1474               474.4963
 Red. masses --     11.2046                 4.9450                 2.8365
 Frc consts  --      1.2251                 0.5696                 0.3763
 IR Inten    --     89.1058                40.7971                66.1820

                     16                     17                     18
                      A                      A                      A
 Frequencies --    542.9102               595.1314               642.0390
 Red. masses --     17.8780                17.7164                16.4532
 Frc consts  --      3.1047                 3.6970                 3.9960
 IR Inten    --      2.9442                 1.7848                 5.4239

                     19                     20                     21
                      A                      A                      A
 Frequencies --    759.7275               824.1656               847.3933
 Red. masses --     16.9851                17.2698                16.7070
 Frc consts  --      5.7761                 6.9114                 7.0683
 IR Inten    --     14.8044                74.5643                36.1015

                     22                     23                     24
                      A                      A                      A
 Frequencies --    992.3874               996.6259              1149.0819
 Red. masses --     15.5542                 9.1695                 9.1931
 Frc consts  --      9.0253                 5.3661                 7.1518
 IR Inten    --     71.6811                70.3727               140.0512

                     25                     26                     27
                      A                      A                      A
 Frequencies --   1162.6411              1188.3635              1223.3749
 Red. masses --      1.5956                 4.5470                11.5332
 Frc consts  --      1.2708                 3.7833                10.1700
 IR Inten    --    235.1532                68.9262               246.9582

                     28                     29                     30
                      A                      A                      A
 Frequencies --   1249.6002              1332.7807              3823.7156
 Red. masses --     13.1097                11.8589                 1.0653
 Frc consts  --     12.0610                12.4111                 9.1769
 IR Inten    --    303.1990               211.8463               158.5972

 - Thermochemistry -
 -------------------
 Temperature   298.150 Kelvin.  Pressure   1.00000 Atm.
 Atom     1 has atomic number  6 and mass  12.00000

 Molecular mass:   199.95666 amu.
 Principal axes and moments of inertia in atomic units:
                           1         2         3
     Eigenvalues --  1120.616232380.482332462.68396
           X            0.93300   0.35617   0.05153
           Y           -0.14040   0.22840   0.96339
           Z           -0.33136   0.90608  -0.26310
 This molecule is an asymmetric top.
 Rotational symmetry number  1.
 Warning -- assumption of classical behavior for rotation
           may cause significant error
 Rotational temperatures (Kelvin)      0.07729     0.03639     0.03517
 Rotational constants (GHZ):           1.61049     0.75814     0.73284
 Zero-point vibrational energy     128241.2 (Joules/Mol)
                                   30.65039 (Kcal/Mol)
 Warning -- explicit consideration of  17 degrees of freedom as
           vibrations may cause significant error
 Vibrational temperatures:     50.00    98.72   170.29   228.88   301.07
          (Kelvin)            324.53   374.51   418.07   453.96   495.80
                              506.81   552.54   619.81   636.15   682.69
                              781.13   856.26   923.75  1093.08  1185.79
                             1219.21  1427.82  1433.92  1653.27  1672.78
                             1709.79  1760.16  1797.90  1917.57  5501.47

 Zero-point correction=                           0.048845 (Hartree/Particle)
 Thermal correction to Energy=                    0.059783
 Thermal correction to Enthalpy=                  0.060727
 Thermal correction to Gibbs Free Energy=         0.011268
 Sum of electronic and zero-point Energies=          -1199.632556
 Sum of electronic and thermal Energies=             -1199.621617
 Sum of electronic and thermal Enthalpies=           -1199.620673
 Sum of electronic and thermal Free Energies=        -1199.670133

                     E (Thermal)             CV                S
                      KCal/Mol        Cal/Mol-Kelvin    Cal/Mol-Kelvin
 Total                   37.515             38.194            104.097
 Electronic               0.000              0.000              0.000
 Translational            0.889              2.981             41.783
 Rotational               0.889              2.981             30.264
 Vibrational             35.737             32.233             32.049
 Vibration     1          0.594              1.983              5.538
 Vibration     2          0.598              1.969              4.193
 Vibration     3          0.609              1.934              3.127
 Vibration     4          0.621              1.892              2.561
 Vibration     5          0.642              1.827              2.050
 Vibration     6          0.650              1.802              1.914
 Vibration     7          0.668              1.745              1.660
 Vibration     8          0.687              1.691              1.471
 Vibration     9          0.703              1.644              1.333
 Vibration    10          0.723              1.586              1.191
 Vibration    11          0.729              1.571              1.156
 Vibration    12          0.753              1.504              1.023
 Vibration    13          0.792              1.403              0.856
 Vibration    14          0.802              1.378              0.820
 Vibration    15          0.831              1.307              0.725
 Vibration    16          0.898              1.155              0.559
 Vibration    17          0.953              1.042              0.458

 Optimization completed.
    -- Stationary point found.
 Normal termination of Gaussian 16 at Fri May 23 04:33:29 2025.
