 Gaussian 16, Revision C.01,
 Gaussian 16:  ES64L-G16RevC.01  3-Jul-2019

 ----------------------------------------------------------------------
 #P wb97xd/6-311++G(d,p) Symm(None) scf(xqc) pop(None) freq opt(CalcFC,
  Tight)
 ----------------------------------------------------------------------

 ------------------------------
 Gaussian input prepared by ASE
 ------------------------------
 Symbolic Z-matrix:
 Charge =  0 Multiplicity = 1

 SCF Done:  E(RwB97XD) =  -237.702682160     A.U. after   11 cycles
 SCF Done:  E(RwB97XD) =  -237.702687385     A.U. after    9 cycles
 Optimization completed.
    -- Stationary point found.
 Normal termination of Gaussian 16 at Fri May 23 04:47:21 2025.

 ----------------------------------------------------------------------
 #P Geom=AllCheck Guess=TCheck SCRF=Check GenChk RwB97XD/6-311++G(d,p)
 Freq
 ----------------------------------------------------------------------

 Structure from the checkpoint file:  "500620380000000000001_well.chk"
 ------------------------------
 Gaussian input prepared by ASE
 ------------------------------
 Charge =  0 Multiplicity = 1

                          Input orientation:
 ---------------------------------------------------------------------
 Center     Atomic      Atomic             Coordinates (Angstroms)
 Number     Number       Type             X           Y           Z
 ---------------------------------------------------------------------
      1          6           0       -3.216963   -0.314727    0.468161
      2          9           0       -3.687268    0.783017    0.982975
      3          9           0       -4.173480   -1.182745    0.619480
 ---------------------------------------------------------------------

 SCF Done:  E(RwB97XD) =  -237.702687385     A.U. after    1 cycles

 Isotropic polarizability for W=    0.000000       14.56 Bohr**3.
 End of Minotr F.D. properties file   721 does not exist.

                      1                      2                      3
                      A                      A                      A
 Frequencies --    680.9767              1126.0044              1242.4016
 Red. masses --     17.8060                13.6918                13.8044
 Frc consts  --      4.8650                10.2280                12.5543
 IR Inten    --      4.1561               438.3476               148.5386

 - Thermochemistry -
 -------------------
 Temperature   298.150 Kelvin.  Pressure   1.00000 Atm.
 Atom     1 has atomic number  6 and mass  12.00000

 Molecular mass:    49.99681 amu.
 Principal axes and moments of inertia in atomic units:
                           1         2         3
     Eigenvalues --    20.61789 143.58451 164.20240
           X            0.23633   0.89662   0.37446
           Y            0.95548  -0.14437  -0.25734
           Z            0.17668  -0.41860   0.89082
 This molecule is an asymmetric top.
 Rotational symmetry number  1.
 Rotational temperatures (Kelvin)      4.20091     0.60323     0.52748
 Rotational constants (GHZ):          87.53279    12.56919    10.99096
 Zero-point vibrational energy      18239.4 (Joules/Mol)
                                    4.35931 (Kcal/Mol)
 Vibrational temperatures:    979.77  1620.07  1787.54
          (Kelvin)

 Zero-point correction=                           0.006947 (Hartree/Particle)
 Thermal correction to Energy=                    0.009937
 Thermal correction to Enthalpy=                  0.010881
 Thermal correction to Gibbs Free Energy=        -0.017097
 Sum of electronic and zero-point Energies=           -237.695740
 Sum of electronic and thermal Energies=              -237.692751
 Sum of electronic and thermal Enthalpies=            -237.691806
 Sum of electronic and thermal Free Energies=         -237.719785

                     E (Thermal)             CV                S
                      KCal/Mol        Cal/Mol-Kelvin    Cal/Mol-Kelvin
 Total                    6.235              7.265             58.885
 Electronic               0.000              0.000              0.000
 Translational            0.889              2.981             37.652
 Rotational               0.889              2.981             20.813
 Vibrational              4.458              1.303              0.420

 Optimization completed.
    -- Stationary point found.
 Normal termination of Gaussian 16 at Fri May 23 04:47:24 2025.
