 Gaussian 16, Revision C.01,
 Gaussian 16:  ES64L-G16RevC.01  3-Jul-2019

 ----------------------------------------------------------------------
 #P wb97xd/6-311++G(d,p) Symm(None) scf(xqc) pop(None) freq opt(CalcFC,
  Tight)
 ----------------------------------------------------------------------

 ------------------------------
 Gaussian input prepared by ASE
 ------------------------------
 Symbolic Z-matrix:
 Charge =  0 Multiplicity = 2

 SCF Done:  E(UwB97XD) =  -337.570059065     A.U. after   14 cycles
 SCF Done:  E(UwB97XD) =  -337.572139672     A.U. after   11 cycles
 SCF Done:  E(UwB97XD) =  -337.572152455     A.U. after   10 cycles
 SCF Done:  E(UwB97XD) =  -337.572152585     A.U. after    8 cycles
 Optimization completed.
    -- Stationary point found.
 Normal termination of Gaussian 16 at Fri May 23 02:05:07 2025.

 ----------------------------------------------------------------------
 #P Geom=AllCheck Guess=TCheck SCRF=Check GenChk UwB97XD/6-311++G(d,p)
 Freq
 ----------------------------------------------------------------------

 Structure from the checkpoint file:  "690931140000000000002_well.chk"
 ------------------------------
 Gaussian input prepared by ASE
 ------------------------------
 Charge =  0 Multiplicity = 2

                          Input orientation:
 ---------------------------------------------------------------------
 Center     Atomic      Atomic             Coordinates (Angstroms)
 Number     Number       Type             X           Y           Z
 ---------------------------------------------------------------------
      1          6           0       -0.726590    0.297601    1.374125
      2          9           0       -0.481904   -0.696605    2.201672
      3          9           0       -0.189662    1.420376    1.803229
      4          9           0       -2.018380    0.435849    1.161208
 ---------------------------------------------------------------------

 SCF Done:  E(UwB97XD) =  -337.572152585     A.U. after    1 cycles

 Isotropic polarizability for W=    0.000000       14.95 Bohr**3.
 End of Minotr F.D. properties file   721 does not exist.

                      1                      2                      3
                      A                      A                      A
 Frequencies --    513.1480               513.2463               703.7336
 Red. masses --     18.2755                18.2762                16.2540
 Frc consts  --      2.8353                 2.8365                 4.7427
 IR Inten    --      1.8090                 1.7992                15.7672

                      4                      5                      6
                      A                      A                      A
 Frequencies --   1088.1366              1261.7043              1261.7372
 Red. masses --     14.4703                13.3230                13.3227
 Frc consts  --     10.0947                12.4959                12.4962
 IR Inten    --     47.8836               417.3518               417.1016

 - Thermochemistry -
 -------------------
 Temperature   298.150 Kelvin.  Pressure   1.00000 Atm.
 Atom     1 has atomic number  6 and mass  12.00000

 Molecular mass:    68.99521 amu.
 Principal axes and moments of inertia in atomic units:
                           1         2         3
     Eigenvalues --   165.89499 165.89854 320.61629
           X           -0.34975   0.83339  -0.42794
           Y            0.85233   0.47267   0.22388
           Z           -0.38886   0.28645   0.87564
 This molecule is an asymmetric top.
 Rotational symmetry number  1.
 Rotational temperatures (Kelvin)      0.52210     0.52209     0.27015
 Rotational constants (GHZ):          10.87882    10.87858     5.62898
 Zero-point vibrational energy      31950.5 (Joules/Mol)
                                    7.63635 (Kcal/Mol)
 Warning -- explicit consideration of   2 degrees of freedom as
           vibrations may cause significant error
 Vibrational temperatures:    738.31   738.45  1012.52  1565.59  1815.31
          (Kelvin)           1815.36

 Zero-point correction=                           0.012169 (Hartree/Particle)
 Thermal correction to Energy=                    0.015594
 Thermal correction to Enthalpy=                  0.016539
 Thermal correction to Gibbs Free Energy=        -0.014519
 Sum of electronic and zero-point Energies=           -337.559983
 Sum of electronic and thermal Energies=              -337.556558
 Sum of electronic and thermal Enthalpies=            -337.555614
 Sum of electronic and thermal Free Energies=         -337.586671

                     E (Thermal)             CV                S
                      KCal/Mol        Cal/Mol-Kelvin    Cal/Mol-Kelvin
 Total                    9.786              9.851             65.366
 Electronic               0.000              0.000              1.377
 Translational            0.889              2.981             38.612
 Rotational               0.889              2.981             23.694
 Vibrational              8.008              3.890              1.683
 Vibration     1          0.868              1.221              0.626
 Vibration     2          0.868              1.221              0.626

 Optimization completed.
    -- Stationary point found.
 Normal termination of Gaussian 16 at Fri May 23 02:05:13 2025.
