 Gaussian 16, Revision C.01,
 Gaussian 16:  ES64L-G16RevC.01  3-Jul-2019

 ----------------------------------------------------------------------
 #P wb97xd/6-311++G(d,p) Symm(None) scf(xqc) pop(None) freq opt(CalcFC,
  Tight)
 ----------------------------------------------------------------------

 ------------------------------
 Gaussian input prepared by ASE
 ------------------------------
 Symbolic Z-matrix:
 Charge =  0 Multiplicity = 1

 SCF Done:  E(RwB97XD) =  -623.760853616     A.U. after   12 cycles
 SCF Done:  E(RwB97XD) =  -623.760932626     A.U. after   11 cycles
 SCF Done:  E(RwB97XD) =  -623.760932644     A.U. after    7 cycles
 Optimization completed.
    -- Stationary point found.
 Normal termination of Gaussian 16 at Fri May 23 04:34:11 2025.

 ----------------------------------------------------------------------
 #P Geom=AllCheck Guess=TCheck SCRF=Check GenChk RwB97XD/6-311++G(d,p)
 Freq
 ----------------------------------------------------------------------

 Structure from the checkpoint file:  "801440960000000000001_well.chk"
 ------------------------------
 Gaussian input prepared by ASE
 ------------------------------
 Charge =  0 Multiplicity = 1

                          Input orientation:
 ---------------------------------------------------------------------
 Center     Atomic      Atomic             Coordinates (Angstroms)
 Number     Number       Type             X           Y           Z
 ---------------------------------------------------------------------
      1         16           0        2.513140   -0.222698   -0.531055
      2          8           0        2.689301   -1.073242    0.608363
      3          8           0        2.814446   -0.711809   -1.843587
      4          8           0        2.035696    1.117086   -0.357934
 ---------------------------------------------------------------------

 SCF Done:  E(RwB97XD) =  -623.760932644     A.U. after    1 cycles

 Isotropic polarizability for W=    0.000000       25.40 Bohr**3.
 End of Minotr F.D. properties file   721 does not exist.

                      1                      2                      3
                      A                      A                      A
 Frequencies --    462.6879               514.9927               515.1239
 Red. masses --     22.8462                17.3575                17.3562
 Frc consts  --      2.8816                 2.7123                 2.7135
 IR Inten    --     43.1055                34.2308                34.1908

                      4                      5                      6
                      A                      A                      A
 Frequencies --   1073.4689              1390.7639              1392.0317
 Red. masses --     15.9949                20.5456                20.5428
 Frc consts  --     10.8596                23.4141                23.4535
 IR Inten    --      0.0020               244.5158               244.5294

 - Thermochemistry -
 -------------------
 Temperature   298.150 Kelvin.  Pressure   1.00000 Atm.
 Atom     1 has atomic number 16 and mass  31.97207

 Molecular mass:    79.95682 amu.
 Principal axes and moments of inertia in atomic units:
                           1         2         3
     Eigenvalues --   175.87926 175.88354 351.76280
           X           -0.33427  -0.04305   0.94149
           Y            0.93162  -0.16629   0.32316
           Z            0.14265   0.98514   0.09569
 This molecule is an asymmetric top.
 Rotational symmetry number  1.
 Rotational temperatures (Kelvin)      0.49246     0.49245     0.24623
 Rotational constants (GHZ):          10.26125    10.26100     5.13056
 Zero-point vibrational energy      31994.5 (Joules/Mol)
                                    7.64688 (Kcal/Mol)
 Warning -- explicit consideration of   3 degrees of freedom as
           vibrations may cause significant error
 Vibrational temperatures:    665.70   740.96   741.15  1544.48  2001.00
          (Kelvin)           2002.82

 Zero-point correction=                           0.012186 (Hartree/Particle)
 Thermal correction to Energy=                    0.015741
 Thermal correction to Enthalpy=                  0.016686
 Thermal correction to Gibbs Free Energy=        -0.014227
 Sum of electronic and zero-point Energies=           -623.748747
 Sum of electronic and thermal Energies=              -623.745191
 Sum of electronic and thermal Enthalpies=            -623.744247
 Sum of electronic and thermal Free Energies=         -623.775160

                     E (Thermal)             CV                S
                      KCal/Mol        Cal/Mol-Kelvin    Cal/Mol-Kelvin
 Total                    9.878             10.249             65.061
 Electronic               0.000              0.000              0.000
 Translational            0.889              2.981             39.051
 Rotational               0.889              2.981             23.902
 Vibrational              8.100              4.287              2.108
 Vibration     1          0.820              1.333              0.758
 Vibration     2          0.870              1.217              0.622
 Vibration     3          0.870              1.216              0.621

 Optimization completed.
    -- Stationary point found.
 Normal termination of Gaussian 16 at Fri May 23 04:34:17 2025.
