 Gaussian 16, Revision C.01,
 Gaussian 16:  ES64L-G16RevC.01  3-Jul-2019

 ----------------------------------------------------------------------
 #P wb97xd/6-311++G(d,p) Symm(None) scf(xqc) pop(None) freq opt(CalcFC,
  Tight)
 ----------------------------------------------------------------------

 ------------------------------
 Gaussian input prepared by ASE
 ------------------------------
 Symbolic Z-matrix:
 Charge =  0 Multiplicity = 2

 SCF Done:  E(UwB97XD) =  -624.359606630     A.U. after   17 cycles
 SCF Done:  E(UwB97XD) =  -624.362014247     A.U. after   16 cycles
 SCF Done:  E(UwB97XD) =  -624.362040213     A.U. after   14 cycles
 SCF Done:  E(UwB97XD) =  -624.362041686     A.U. after   12 cycles
 SCF Done:  E(UwB97XD) =  -624.362041698     A.U. after    9 cycles
 Optimization completed.
    -- Stationary point found.
 Normal termination of Gaussian 16 at Fri May 23 02:05:43 2025.

 ----------------------------------------------------------------------
 #P Geom=AllCheck Guess=TCheck SCRF=Check GenChk UwB97XD/6-311++G(d,p)
 Freq
 ----------------------------------------------------------------------

 Structure from the checkpoint file:  "811611290340000000002_well.chk"
 ------------------------------
 Gaussian input prepared by ASE
 ------------------------------
 Charge =  0 Multiplicity = 2

                          Input orientation:
 ---------------------------------------------------------------------
 Center     Atomic      Atomic             Coordinates (Angstroms)
 Number     Number       Type             X           Y           Z
 ---------------------------------------------------------------------
      1         16           0        1.786975    0.027870   -0.045476
      2          8           0        2.299924   -0.518023    1.205696
      3          8           0        2.233582   -0.428878   -1.346626
      4          8           0        2.065442    1.644034   -0.036891
      5          1           0        2.044747    1.964204    0.874592
 ---------------------------------------------------------------------

 SCF Done:  E(UwB97XD) =  -624.362041698     A.U. after    1 cycles

 Isotropic polarizability for W=    0.000000       30.79 Bohr**3.
 End of Minotr F.D. properties file   721 does not exist.

                      1                      2                      3
                      A                      A                      A
 Frequencies --    294.9494               414.5123               421.5342
 Red. masses --      1.3459                 3.1299                15.1771
 Frc consts  --      0.0690                 0.3169                 1.5889
 IR Inten    --    103.4092                42.0306                13.5981

                      4                      5                      6
                      A                      A                      A
 Frequencies --    522.4968               742.1817              1092.5174
 Red. masses --     20.5522                16.9370                 1.1963
 Frc consts  --      3.3058                 5.4968                 0.8413
 IR Inten    --     39.4365               177.2422                92.9071

                      7                      8                      9
                      A                      A                      A
 Frequencies --   1104.8486              1303.6930              3832.5433
 Red. masses --     15.0260                11.9808                 1.0666
 Frc consts  --     10.8069                11.9974                 9.2306
 IR Inten    --     64.3484               167.5391               149.8896

 - Thermochemistry -
 -------------------
 Temperature   298.150 Kelvin.  Pressure   1.00000 Atm.
 Atom     1 has atomic number 16 and mass  31.97207

 Molecular mass:    80.96464 amu.
 Principal axes and moments of inertia in atomic units:
                           1         2         3
     Eigenvalues --   197.97440 202.63682 375.43653
           X           -0.00263  -0.06587   0.99783
           Y            0.40905   0.91046   0.06118
           Z            0.91251  -0.40832  -0.02455
 This molecule is an asymmetric top.
 Rotational symmetry number  1.
 Rotational temperatures (Kelvin)      0.43750     0.42743     0.23070
 Rotational constants (GHZ):           9.11603     8.90628     4.80705
 Zero-point vibrational energy      58194.0 (Joules/Mol)
                                   13.90870 (Kcal/Mol)
 Warning -- explicit consideration of   4 degrees of freedom as
           vibrations may cause significant error
 Vibrational temperatures:    424.37   596.39   606.49   751.76  1067.83
          (Kelvin)           1571.89  1589.63  1875.72  5514.17

 Zero-point correction=                           0.022165 (Hartree/Particle)
 Thermal correction to Energy=                    0.026374
 Thermal correction to Enthalpy=                  0.027319
 Thermal correction to Gibbs Free Energy=        -0.005442
 Sum of electronic and zero-point Energies=           -624.339877
 Sum of electronic and thermal Energies=              -624.335667
 Sum of electronic and thermal Enthalpies=            -624.334723
 Sum of electronic and thermal Free Energies=         -624.367483

                     E (Thermal)             CV                S
                      KCal/Mol        Cal/Mol-Kelvin    Cal/Mol-Kelvin
 Total                   16.550             13.166             68.950
 Electronic               0.000              0.000              1.377
 Translational            0.889              2.981             39.089
 Rotational               0.889              2.981             24.225
 Vibrational             14.773              7.205              4.259
 Vibration     1          0.689              1.683              1.445
 Vibration     2          0.778              1.439              0.911
 Vibration     3          0.784              1.423              0.887
 Vibration     4          0.877              1.200              0.604

 Optimization completed.
    -- Stationary point found.
 Normal termination of Gaussian 16 at Fri May 23 02:05:51 2025.
