 Gaussian 16, Revision C.01,
 Gaussian 16:  ES64L-G16RevC.01  3-Jul-2019

 ----------------------------------------------------------------------
 #P wb97xd/6-311++G(d,p) Symm(None) scf(xqc) pop(None) freq opt(CalcFC,
  Tight)
 ----------------------------------------------------------------------

 ------------------------------
 Gaussian input prepared by ASE
 ------------------------------
 Symbolic Z-matrix:
 Charge =  0 Multiplicity = 1

 SCF Done:  E(RwB97XD) =  -437.505003004     A.U. after   10 cycles
 SCF Done:  E(RwB97XD) =  -437.505140249     A.U. after    9 cycles
 SCF Done:  E(RwB97XD) =  -437.505140327     A.U. after    6 cycles
 Optimization completed.
    -- Stationary point found.
 Normal termination of Gaussian 16 at Fri May 23 04:56:13 2025.

 ----------------------------------------------------------------------
 #P Geom=AllCheck Guess=TCheck SCRF=Check GenChk RwB97XD/6-311++G(d,p)
 Freq
 ----------------------------------------------------------------------

 Structure from the checkpoint file:  "881242280000000000001_well.chk"
 ------------------------------
 Gaussian input prepared by ASE
 ------------------------------
 Charge =  0 Multiplicity = 1

                          Input orientation:
 ---------------------------------------------------------------------
 Center     Atomic      Atomic             Coordinates (Angstroms)
 Number     Number       Type             X           Y           Z
 ---------------------------------------------------------------------
      1          6           0       -1.860379   -1.176059    0.411254
      2          9           0       -1.607868    0.064982    0.036610
      3          9           0       -1.161109   -2.012009   -0.334718
      4          9           0       -1.523818   -1.330303    1.679007
      5          9           0       -3.148678   -1.426856    0.264124
 ---------------------------------------------------------------------

 SCF Done:  E(RwB97XD) =  -437.505140327     A.U. after    1 cycles

 Isotropic polarizability for W=    0.000000       16.09 Bohr**3.
 End of Minotr F.D. properties file   721 does not exist.

                      1                      2                      3
                      A                      A                      A
 Frequencies --    436.6806               436.7361               630.5404
 Red. masses --     18.9984                18.9984                18.1906
 Frc consts  --      2.1345                 2.1350                 4.2611
 IR Inten    --      0.0000                 0.0000                 4.5872

                      4                      5                      6
                      A                      A                      A
 Frequencies --    630.5846               630.6684               915.2390
 Red. masses --     18.1903                18.1908                18.9984
 Frc consts  --      4.2616                 4.2629                 9.3764
 IR Inten    --      4.5911                 4.5800                 0.0000

                      7                      8                      9
                      A                      A                      A
 Frequencies --   1275.9047              1276.0511              1276.2634
 Red. masses --     13.0192                13.0192                13.0193
 Frc consts  --     12.4874                12.4902                12.4945
 IR Inten    --    481.0793               480.9074               480.8119

 - Thermochemistry -
 -------------------
 Temperature   298.150 Kelvin.  Pressure   1.00000 Atm.
 Atom     1 has atomic number  6 and mass  12.00000

 Molecular mass:    87.99361 amu.
 Principal axes and moments of inertia in atomic units:
                           1         2         3
     Eigenvalues --   315.56916 315.57239 315.57341
           X            0.95537  -0.06861   0.28734
           Y            0.19626   0.87438  -0.44377
           Z           -0.22080   0.48036   0.84882
 This molecule is an asymmetric top.
 Rotational symmetry number  1.
 Rotational temperatures (Kelvin)      0.27447     0.27447     0.27447
 Rotational constants (GHZ):           5.71900     5.71895     5.71893
 Zero-point vibrational energy      44911.8 (Joules/Mol)
                                   10.73418 (Kcal/Mol)
 Warning -- explicit consideration of   2 degrees of freedom as
           vibrations may cause significant error
 Vibrational temperatures:    628.29   628.37   907.21   907.27   907.39
          (Kelvin)           1316.82  1835.74  1835.95  1836.26

 Zero-point correction=                           0.017106 (Hartree/Particle)
 Thermal correction to Energy=                    0.021009
 Thermal correction to Enthalpy=                  0.021953
 Thermal correction to Gibbs Free Energy=        -0.010065
 Sum of electronic and zero-point Energies=           -437.488034
 Sum of electronic and thermal Energies=              -437.484132
 Sum of electronic and thermal Enthalpies=            -437.483187
 Sum of electronic and thermal Free Energies=         -437.515206

                     E (Thermal)             CV                S
                      KCal/Mol        Cal/Mol-Kelvin    Cal/Mol-Kelvin
 Total                   13.183             12.605             67.388
 Electronic               0.000              0.000              0.000
 Translational            0.889              2.981             39.337
 Rotational               0.889              2.981             24.956
 Vibrational             11.406              6.643              3.096
 Vibration     1          0.797              1.390              0.837
 Vibration     2          0.797              1.390              0.837

 Optimization completed.
    -- Stationary point found.
 Normal termination of Gaussian 16 at Fri May 23 04:56:25 2025.
