 Gaussian 16, Revision C.01,
 Gaussian 16:  ES64L-G16RevC.01  3-Jul-2019

 -----------------------------------------------------------------
 #P M062X/Def2TZVPP Symm(None) scf(xqc) pop(None) freq opt(CalcFC)
 -----------------------------------------------------------------

 ------------------------------
 Gaussian input prepared by ASE
 ------------------------------
 Symbolic Z-matrix:
 Charge =  0 Multiplicity = 1

 SCF Done:  E(RM062X) =  -724.319114410     A.U. after   13 cycles
 SCF Done:  E(RM062X) =  -724.321712282     A.U. after   13 cycles
 SCF Done:  E(RM062X) =  -724.303520085     A.U. after   14 cycles
 SCF Done:  E(RM062X) =  -724.322294907     A.U. after   11 cycles
 SCF Done:  E(RM062X) =  -724.323014376     A.U. after   13 cycles
 SCF Done:  E(RM062X) =  -724.323381588     A.U. after   11 cycles
 SCF Done:  E(RM062X) =  -724.323407519     A.U. after    8 cycles
 SCF Done:  E(RM062X) =  -724.323409576     A.U. after    8 cycles
 SCF Done:  E(RM062X) =  -724.323409930     A.U. after    7 cycles
 Optimization completed.
    -- Stationary point found.
 Normal termination of Gaussian 16 at Sun May 25 04:33:37 2025.

 ---------------------------------------------------------------------
 #P Geom=AllCheck Guess=TCheck SCRF=Check GenChk RM062X/def2TZVPP Freq
 ---------------------------------------------------------------------

 Structure from the checkpoint file:  "/tmp/Gau-199522.chk"
 ------------------------------
 Gaussian input prepared by ASE
 ------------------------------
 Charge =  0 Multiplicity = 1

                          Input orientation:
 ---------------------------------------------------------------------
 Center     Atomic      Atomic             Coordinates (Angstroms)
 Number     Number       Type             X           Y           Z
 ---------------------------------------------------------------------
      1          9           0        0.089886    0.185124    0.095369
      2         16           0        1.616344   -0.032043   -0.048475
      3          8           0        2.061443   -0.545805    1.187991
      4          8           0        1.823037   -0.664608   -1.284102
      5          8           0        2.057038    1.457861   -0.193102
      6          1           0        2.216673    1.844810    0.679205
 ---------------------------------------------------------------------

 SCF Done:  E(RM062X) =  -724.323409930     A.U. after    1 cycles

 Isotropic polarizability for W=    0.000000       27.38 Bohr**3.
 End of Minotr F.D. properties file   721 does not exist.

                      1                      2                      3
                      A                      A                      A
 Frequencies --    298.6894               385.0846               425.9972
 Red. masses --      1.3508                14.9128                 3.4608
 Frc consts  --      0.0710                 1.3029                 0.3700
 IR Inten    --     80.1532                 0.4560                27.7863

                      4                      5                      6
                      A                      A                      A
 Frequencies --    528.6861               554.8899               567.6879
 Red. masses --      7.5303                18.2558                15.3168
 Frc consts  --      1.2401                 3.3118                 2.9083
 IR Inten    --     31.1563                28.5446                45.7979

                      7                      8                      9
                      A                      A                      A
 Frequencies --    868.9974               945.1643              1161.4424
 Red. masses --     19.8731                18.1623                 1.1897
 Frc consts  --      8.8420                 9.5595                 0.9456
 IR Inten    --    172.7720               259.1318                83.6840

                     10                     11                     12
                      A                      A                      A
 Frequencies --   1287.7662              1529.9880              3814.5895
 Red. masses --     18.5388                14.8906                 1.0657
 Frc consts  --     18.1136                20.5371                 9.1366
 IR Inten    --    204.1316               320.5313               184.3943

 - Thermochemistry -
 -------------------
 Temperature   298.150 Kelvin.  Pressure   1.00000 Atm.
 Atom     1 has atomic number  9 and mass  18.99840

 Molecular mass:    99.96304 amu.
 Principal axes and moments of inertia in atomic units:
                           1         2         3
     Eigenvalues --   352.43375 355.78538 361.43218
           X            0.71460  -0.59214  -0.37245
           Y            0.51926   0.09224   0.84962
           Z            0.46874   0.80054  -0.37339
 This molecule is an asymmetric top.
 Rotational symmetry number  1.
 Rotational temperatures (Kelvin)      0.24576     0.24344     0.23964
 Rotational constants (GHZ):           5.12080     5.07256     4.99331
 Zero-point vibrational energy      73982.9 (Joules/Mol)
                                   17.68235 (Kcal/Mol)
 Warning -- explicit consideration of   6 degrees of freedom as
           vibrations may cause significant error
 Vibrational temperatures:    429.75   554.05   612.91   760.66   798.36
          (Kelvin)            816.78  1250.29  1359.88  1671.06  1852.81
                             2201.31  5488.34

 Zero-point correction=                           0.028179 (Hartree/Particle)
 Thermal correction to Energy=                    0.032753
 Thermal correction to Enthalpy=                  0.033697
 Thermal correction to Gibbs Free Energy=         0.000273
 Sum of electronic and zero-point Energies=           -724.295231
 Sum of electronic and thermal Energies=              -724.290657
 Sum of electronic and thermal Enthalpies=            -724.289713
 Sum of electronic and thermal Free Energies=         -724.323137

                     E (Thermal)             CV                S
                      KCal/Mol        Cal/Mol-Kelvin    Cal/Mol-Kelvin
 Total                   20.553             15.408             70.347
 Electronic               0.000              0.000              0.000
 Translational            0.889              2.981             39.717
 Rotational               0.889              2.981             25.319
 Vibrational             18.775              9.446              5.310
 Vibration     1          0.692              1.676              1.424
 Vibration     2          0.754              1.502              1.019
 Vibration     3          0.788              1.414              0.872
 Vibration     4          0.884              1.187              0.590
 Vibration     5          0.910              1.129              0.534
 Vibration     6          0.924              1.101              0.509

 Optimization completed.
    -- Stationary point found.
 Normal termination of Gaussian 16 at Sun May 25 04:34:12 2025.
