 Gaussian 16, Revision C.01,
 Gaussian 16:  ES64L-G16RevC.01  3-Jul-2019

 -----------------------------------------------------------------
 #P M062X/Def2TZVPP Symm(None) scf(xqc) pop(None) freq opt(CalcFC)
 -----------------------------------------------------------------

 ------------------------------
 Gaussian input prepared by ASE
 ------------------------------
 Symbolic Z-matrix:
 Charge =  0 Multiplicity = 1

 SCF Done:  E(RM062X) =  -724.318049787     A.U. after   13 cycles
 SCF Done:  E(RM062X) =  -724.322445134     A.U. after   13 cycles
 SCF Done:  E(RM062X) =  -724.322922861     A.U. after   11 cycles
 SCF Done:  E(RM062X) =  -724.323103705     A.U. after   11 cycles
 SCF Done:  E(RM062X) =  -724.323263592     A.U. after   11 cycles
 SCF Done:  E(RM062X) =  -724.323344425     A.U. after   10 cycles
 SCF Done:  E(RM062X) =  -724.323397141     A.U. after   10 cycles
 SCF Done:  E(RM062X) =  -724.323410874     A.U. after    9 cycles
 SCF Done:  E(RM062X) =  -724.323413462     A.U. after    8 cycles
 Optimization completed.
    -- Stationary point found.
 Normal termination of Gaussian 16 at Sun May 25 04:33:17 2025.

 ---------------------------------------------------------------------
 #P Geom=AllCheck Guess=TCheck SCRF=Check GenChk RM062X/def2TZVPP Freq
 ---------------------------------------------------------------------

 Structure from the checkpoint file:  "/tmp/Gau-263186.chk"
 ------------------------------
 Gaussian input prepared by ASE
 ------------------------------
 Charge =  0 Multiplicity = 1

                          Input orientation:
 ---------------------------------------------------------------------
 Center     Atomic      Atomic             Coordinates (Angstroms)
 Number     Number       Type             X           Y           Z
 ---------------------------------------------------------------------
      1          9           0       -0.049281   -0.188568   -0.094991
      2         16           0        1.484091    0.015775   -0.027891
      3          8           0        1.876815   -0.357974    1.274862
      4          8           0        2.020136   -0.537308   -1.201131
      5          8           0        1.524463    1.569315   -0.168111
      6          1           0        1.454324    1.984708    0.702917
 ---------------------------------------------------------------------

 SCF Done:  E(RM062X) =  -724.323413462     A.U. after    1 cycles

 Isotropic polarizability for W=    0.000000       27.38 Bohr**3.
 End of Minotr F.D. properties file   721 does not exist.

                      1                      2                      3
                      A                      A                      A
 Frequencies --    283.5760               385.2823               423.0463
 Red. masses --      1.2979                14.7664                 3.8761
 Frc consts  --      0.0615                 1.2915                 0.4087
 IR Inten    --     84.7165                 0.4310                24.0025

                      4                      5                      6
                      A                      A                      A
 Frequencies --    528.9916               554.9934               567.8513
 Red. masses --      7.5215                18.1601                15.4053
 Frc consts  --      1.2401                 3.2957                 2.9268
 IR Inten    --     31.3271                27.8559                45.9707

                      7                      8                      9
                      A                      A                      A
 Frequencies --    869.2936               943.5462              1161.4910
 Red. masses --     19.8668                18.1790                 1.1898
 Frc consts  --      8.8453                 9.5356                 0.9457
 IR Inten    --    171.4174               260.3531                83.9699

                     10                     11                     12
                      A                      A                      A
 Frequencies --   1287.3304              1529.3993              3818.6893
 Red. masses --     18.5363                14.8586                 1.0657
 Frc consts  --     18.0990                20.4772                 9.1562
 IR Inten    --    203.0665               320.4438               184.4377

 - Thermochemistry -
 -------------------
 Temperature   298.150 Kelvin.  Pressure   1.00000 Atm.
 Atom     1 has atomic number  9 and mass  18.99840

 Molecular mass:    99.96304 amu.
 Principal axes and moments of inertia in atomic units:
                           1         2         3
     Eigenvalues --   352.36003 355.79110 361.44942
           X            0.47080  -0.70407  -0.53162
           Y            0.69151  -0.07970   0.71796
           Z            0.54787   0.70564  -0.44935
 This molecule is an asymmetric top.
 Rotational symmetry number  1.
 Rotational temperatures (Kelvin)      0.24581     0.24344     0.23963
 Rotational constants (GHZ):           5.12187     5.07247     4.99307
 Zero-point vibrational energy      73890.3 (Joules/Mol)
                                   17.66020 (Kcal/Mol)
 Warning -- explicit consideration of   6 degrees of freedom as
           vibrations may cause significant error
 Vibrational temperatures:    408.00   554.34   608.67   761.10   798.51
          (Kelvin)            817.01  1250.72  1357.55  1671.13  1852.18
                             2200.46  5494.24

 Zero-point correction=                           0.028143 (Hartree/Particle)
 Thermal correction to Energy=                    0.032739
 Thermal correction to Enthalpy=                  0.033683
 Thermal correction to Gibbs Free Energy=         0.000214
 Sum of electronic and zero-point Energies=           -724.295270
 Sum of electronic and thermal Energies=              -724.290674
 Sum of electronic and thermal Enthalpies=            -724.289730
 Sum of electronic and thermal Free Energies=         -724.323200

                     E (Thermal)             CV                S
                      KCal/Mol        Cal/Mol-Kelvin    Cal/Mol-Kelvin
 Total                   20.544             15.443             70.443
 Electronic               0.000              0.000              0.000
 Translational            0.889              2.981             39.717
 Rotational               0.889              2.981             25.319
 Vibrational             18.767              9.481              5.407
 Vibration     1          0.682              1.704              1.512
 Vibration     2          0.754              1.502              1.018
 Vibration     3          0.785              1.420              0.882
 Vibration     4          0.884              1.186              0.589
 Vibration     5          0.910              1.129              0.534
 Vibration     6          0.924              1.101              0.508

 Optimization completed.
    -- Stationary point found.
 Normal termination of Gaussian 16 at Sun May 25 04:33:46 2025.
