 Gaussian 16, Revision C.01,
 Gaussian 16:  ES64L-G16RevC.01  3-Jul-2019

 -----------------------------------------------------------------
 #P M062X/Def2TZVPP Symm(None) scf(xqc) pop(None) freq opt(CalcFC)
 -----------------------------------------------------------------

 ------------------------------
 Gaussian input prepared by ASE
 ------------------------------
 Symbolic Z-matrix:
 Charge =  0 Multiplicity = 1

 SCF Done:  E(RM062X) =  -724.323407139     A.U. after   13 cycles
 SCF Done:  E(RM062X) =  -724.323407240     A.U. after    7 cycles
 Optimization completed.
    -- Stationary point found.
 Normal termination of Gaussian 16 at Sun May 25 04:32:42 2025.

 ---------------------------------------------------------------------
 #P Geom=AllCheck Guess=TCheck SCRF=Check GenChk RM062X/def2TZVPP Freq
 ---------------------------------------------------------------------

 Structure from the checkpoint file:  "/tmp/Gau-199521.chk"
 ------------------------------
 Gaussian input prepared by ASE
 ------------------------------
 Charge =  0 Multiplicity = 1

                          Input orientation:
 ---------------------------------------------------------------------
 Center     Atomic      Atomic             Coordinates (Angstroms)
 Number     Number       Type             X           Y           Z
 ---------------------------------------------------------------------
      1          9           0        0.000177    0.000629   -0.000427
      2         16           0        1.548744   -0.000150   -0.000033
      3          8           0        1.955234   -0.499626    1.246877
      4          8           0        1.944571   -0.546795   -1.239209
      5          8           0        1.788320    1.541737   -0.000015
      6          1           0        1.808701    1.876313   -0.907651
 ---------------------------------------------------------------------

 SCF Done:  E(RM062X) =  -724.323407240     A.U. after    1 cycles

 Isotropic polarizability for W=    0.000000       27.38 Bohr**3.
 End of Minotr F.D. properties file   721 does not exist.

                      1                      2                      3
                      A                      A                      A
 Frequencies --    289.9765               385.1779               424.9321
 Red. masses --      1.3173                14.9166                 3.7084
 Frc consts  --      0.0653                 1.3039                 0.3945
 IR Inten    --     82.9789                 0.4210                25.3207

                      4                      5                      6
                      A                      A                      A
 Frequencies --    529.1390               555.1007               568.1586
 Red. masses --      7.5221                18.2348                15.3267
 Frc consts  --      1.2409                 3.3105                 2.9150
 IR Inten    --     31.2523                28.2095                45.4879

                      7                      8                      9
                      A                      A                      A
 Frequencies --    869.1478               944.3017              1162.5431
 Red. masses --     19.8782                18.1605                 1.1892
 Frc consts  --      8.8474                 9.5411                 0.9469
 IR Inten    --    172.1192               259.8676                84.8195

                     10                     11                     12
                      A                      A                      A
 Frequencies --   1289.3138              1531.2710              3817.5095
 Red. masses --     18.5258                14.9032                 1.0657
 Frc consts  --     18.1445                20.5889                 9.1505
 IR Inten    --    202.7364               320.6974               184.2241

 - Thermochemistry -
 -------------------
 Temperature   298.150 Kelvin.  Pressure   1.00000 Atm.
 Atom     1 has atomic number  9 and mass  18.99840

 Molecular mass:    99.96304 amu.
 Principal axes and moments of inertia in atomic units:
                           1         2         3
     Eigenvalues --   352.43338 355.77461 361.42641
           X            0.58427   0.67402  -0.45202
           Y            0.56998   0.05568   0.81977
           Z           -0.57771   0.73661   0.35165
 This molecule is an asymmetric top.
 Rotational symmetry number  1.
 Rotational temperatures (Kelvin)      0.24576     0.24345     0.23964
 Rotational constants (GHZ):           5.12080     5.07271     4.99339
 Zero-point vibrational energy      73968.5 (Joules/Mol)
                                   17.67890 (Kcal/Mol)
 Warning -- explicit consideration of   6 degrees of freedom as
           vibrations may cause significant error
 Vibrational temperatures:    417.21   554.19   611.38   761.31   798.67
          (Kelvin)            817.45  1250.51  1358.64  1672.64  1855.03
                             2203.16  5492.54

 Zero-point correction=                           0.028173 (Hartree/Particle)
 Thermal correction to Energy=                    0.032758
 Thermal correction to Enthalpy=                  0.033703
 Thermal correction to Gibbs Free Energy=         0.000255
 Sum of electronic and zero-point Energies=           -724.295234
 Sum of electronic and thermal Energies=              -724.290649
 Sum of electronic and thermal Enthalpies=            -724.289705
 Sum of electronic and thermal Free Energies=         -724.323153

                     E (Thermal)             CV                S
                      KCal/Mol        Cal/Mol-Kelvin    Cal/Mol-Kelvin
 Total                   20.556             15.423             70.397
 Electronic               0.000              0.000              0.000
 Translational            0.889              2.981             39.717
 Rotational               0.889              2.981             25.319
 Vibrational             18.779              9.461              5.361
 Vibration     1          0.686              1.692              1.474
 Vibration     2          0.754              1.502              1.019
 Vibration     3          0.787              1.416              0.875
 Vibration     4          0.884              1.186              0.589
 Vibration     5          0.911              1.129              0.534
 Vibration     6          0.924              1.100              0.508

 Optimization completed.
    -- Stationary point found.
 Normal termination of Gaussian 16 at Sun May 25 04:33:16 2025.
