 Gaussian 16, Revision C.01,
 Gaussian 16:  ES64L-G16RevC.01  3-Jul-2019

 -----------------------------------------------------------------
 #P M062X/Def2TZVPP Symm(None) scf(xqc) pop(None) freq opt(CalcFC)
 -----------------------------------------------------------------

 ------------------------------
 Gaussian input prepared by ASE
 ------------------------------
 Symbolic Z-matrix:
 Charge =  0 Multiplicity = 2

 SCF Done:  E(UM062X) =  -862.192240671     A.U. after   16 cycles
 SCF Done:  E(UM062X) =  -862.192240759     A.U. after    8 cycles
 Optimization completed.
    -- Stationary point found.
 Normal termination of Gaussian 16 at Sun May 25 03:32:32 2025.

 ---------------------------------------------------------------------
 #P Geom=AllCheck Guess=TCheck SCRF=Check GenChk UM062X/def2TZVPP Freq
 ---------------------------------------------------------------------

 Structure from the checkpoint file:  "/tmp/Gau-229972.chk"
 ------------------------------
 Gaussian input prepared by ASE
 ------------------------------
 Charge =  0 Multiplicity = 2

                          Input orientation:
 ---------------------------------------------------------------------
 Center     Atomic      Atomic             Coordinates (Angstroms)
 Number     Number       Type             X           Y           Z
 ---------------------------------------------------------------------
      1          6           0        1.921830   -0.482994    1.656744
      2          9           0        3.213296   -0.449723    1.867062
      3          9           0        1.386494   -1.605449    2.062317
      4         16           0        1.419476    0.000083   -0.000074
      5          8           0        2.196679   -0.705156   -0.949591
      6          8           0        0.000071   -0.000331   -0.000205
      7          8           0        1.941325    1.484184    0.000035
      8          1           0        1.250517    2.076482    0.328946
 ---------------------------------------------------------------------

 SCF Done:  E(UM062X) =  -862.192240759     A.U. after    1 cycles

 Isotropic polarizability for W=    0.000000       40.19 Bohr**3.
 End of Minotr F.D. properties file   721 does not exist.

                      1                      2                      3
                      A                      A                      A
 Frequencies --     56.1971               187.8775               194.1170
 Red. masses --     15.0105                15.0594                 7.3304
 Frc consts  --      0.0279                 0.3132                 0.1627
 IR Inten    --      0.8050                 3.1580                13.9582

                      4                      5                      6
                      A                      A                      A
 Frequencies --    318.9742               345.9886               385.6896
 Red. masses --      3.0339                 3.1443                 3.6353
 Frc consts  --      0.1819                 0.2218                 0.3186
 IR Inten    --     26.5530                33.8670                23.5317

                      7                      8                      9
                      A                      A                      A
 Frequencies --    460.9336               523.9913               582.3002
 Red. masses --      4.4697                14.4513                17.7852
 Frc consts  --      0.5595                 2.3378                 3.5531
 IR Inten    --     30.8285                18.0013                55.4127

                     10                     11                     12
                      A                      A                      A
 Frequencies --    614.7705               732.5888               910.1212
 Red. masses --     12.1781                16.8738                17.4348
 Frc consts  --      2.7118                 5.3356                 8.5087
 IR Inten    --     60.1409                23.1725               230.6162

                     13                     14                     15
                      A                      A                      A
 Frequencies --   1144.1797              1232.6543              1323.4412
 Red. masses --      1.1831                16.9800                14.1719
 Frc consts  --      0.9126                15.2009                14.6247
 IR Inten    --     86.7210               188.0304                61.5894

                     16                     17                     18
                      A                      A                      A
 Frequencies --   1336.1130              1486.1431              3815.9622
 Red. masses --     13.6769                15.1269                 1.0657
 Frc consts  --     14.3855                19.6843                 9.1430
 IR Inten    --    238.8730               280.3687               179.3212

 - Thermochemistry -
 -------------------
 Temperature   298.150 Kelvin.  Pressure   1.00000 Atm.
 Atom     1 has atomic number  6 and mass  12.00000

 Molecular mass:   130.96145 amu.
 Principal axes and moments of inertia in atomic units:
                           1         2         3
     Eigenvalues --   516.94110 885.239811040.06077
           X            0.33861   0.86291  -0.37513
           Y           -0.48544   0.50174   0.71597
           Z            0.80603  -0.06033   0.58879
 This molecule is an asymmetric top.
 Rotational symmetry number  1.
 Warning -- assumption of classical behavior for rotation
           may cause significant error
 Rotational temperatures (Kelvin)      0.16755     0.09784     0.08328
 Rotational constants (GHZ):           3.49119     2.03870     1.73523
 Zero-point vibrational energy      93620.0 (Joules/Mol)
                                   22.37572 (Kcal/Mol)
 Warning -- explicit consideration of  10 degrees of freedom as
           vibrations may cause significant error
 Vibrational temperatures:     80.86   270.31   279.29   458.93   497.80
          (Kelvin)            554.92   663.18   753.91   837.80   884.52
                             1054.03  1309.46  1646.22  1773.51  1904.14
                             1922.37  2138.23  5490.32

 Zero-point correction=                           0.035658 (Hartree/Particle)
 Thermal correction to Energy=                    0.042545
 Thermal correction to Enthalpy=                  0.043489
 Thermal correction to Gibbs Free Energy=         0.003142
 Sum of electronic and zero-point Energies=           -862.156583
 Sum of electronic and thermal Energies=              -862.149696
 Sum of electronic and thermal Enthalpies=            -862.148751
 Sum of electronic and thermal Free Energies=         -862.189099

                     E (Thermal)             CV                S
                      KCal/Mol        Cal/Mol-Kelvin    Cal/Mol-Kelvin
 Total                   26.697             22.997             84.918
 Electronic               0.000              0.000              1.377
 Translational            0.889              2.981             40.522
 Rotational               0.889              2.981             27.656
 Vibrational             24.920             17.035             15.363
 Vibration     1          0.596              1.975              4.586
 Vibration     2          0.633              1.856              2.249
 Vibration     3          0.635              1.848              2.188
 Vibration     4          0.705              1.637              1.315
 Vibration     5          0.724              1.583              1.184
 Vibration     6          0.754              1.501              1.017
 Vibration     7          0.819              1.337              0.763
 Vibration     8          0.879              1.197              0.601
 Vibration     9          0.939              1.070              0.481
 Vibration    10          0.974              1.001              0.425

 Optimization completed.
    -- Stationary point found.
 Normal termination of Gaussian 16 at Sun May 25 03:34:36 2025.
