 Gaussian 16, Revision C.01,
 Gaussian 16:  ES64L-G16RevC.01  3-Jul-2019

 -----------------------------------------------------------------
 #P M062X/Def2TZVPP Symm(None) scf(xqc) pop(None) freq opt(CalcFC)
 -----------------------------------------------------------------

 ------------------------------
 Gaussian input prepared by ASE
 ------------------------------
 Symbolic Z-matrix:
 Charge =  0 Multiplicity = 2

 SCF Done:  E(UM062X) =  -862.184389219     A.U. after   17 cycles
 SCF Done:  E(UM062X) =  -862.190326016     A.U. after   15 cycles
 SCF Done:  E(UM062X) =  -862.191708205     A.U. after   13 cycles
 SCF Done:  E(UM062X) =  -862.192257804     A.U. after   13 cycles
 SCF Done:  E(UM062X) =  -862.192554209     A.U. after   13 cycles
 SCF Done:  E(UM062X) =  -862.192660841     A.U. after   12 cycles
 SCF Done:  E(UM062X) =  -862.192676741     A.U. after   11 cycles
 SCF Done:  E(UM062X) =  -862.192680194     A.U. after   11 cycles
 SCF Done:  E(UM062X) =  -862.192681868     A.U. after    8 cycles
 SCF Done:  E(UM062X) =  -862.192682190     A.U. after    8 cycles
 Optimization completed.
    -- Stationary point found.
 Normal termination of Gaussian 16 at Sun May 25 03:35:45 2025.

 ---------------------------------------------------------------------
 #P Geom=AllCheck Guess=TCheck SCRF=Check GenChk UM062X/def2TZVPP Freq
 ---------------------------------------------------------------------

 Structure from the checkpoint file:  "/tmp/Gau-4555.chk"
 ------------------------------
 Gaussian input prepared by ASE
 ------------------------------
 Charge =  0 Multiplicity = 2

                          Input orientation:
 ---------------------------------------------------------------------
 Center     Atomic      Atomic             Coordinates (Angstroms)
 Number     Number       Type             X           Y           Z
 ---------------------------------------------------------------------
      1          6           0        1.845767   -0.583409    1.739374
      2          9           0        3.119767   -0.498704    2.045816
      3          9           0        1.359345   -1.769840    1.991402
      4         16           0        1.445751    0.034601    0.101949
      5          8           0        2.301058   -0.577149   -0.857773
      6          8           0        0.037549    0.016495    0.000554
      7          8           0        1.908657    1.526418    0.292994
      8          1           0        2.780425    1.651857   -0.107567
 ---------------------------------------------------------------------

 SCF Done:  E(UM062X) =  -862.192682190     A.U. after    1 cycles

 Isotropic polarizability for W=    0.000000       40.04 Bohr**3.
 End of Minotr F.D. properties file   721 does not exist.

                      1                      2                      3
                      A                      A                      A
 Frequencies --     58.2857               182.4683               191.7740
 Red. masses --     13.7580                 6.3002                17.0382
 Frc consts  --      0.0275                 0.1236                 0.3692
 IR Inten    --      1.2117                 9.7112                 3.4629

                      4                      5                      6
                      A                      A                      A
 Frequencies --    296.5201               336.5149               378.8881
 Red. masses --      1.8701                 3.4609                12.8428
 Frc consts  --      0.0969                 0.2309                 1.0863
 IR Inten    --     60.9445                21.6617                 4.4449

                      7                      8                      9
                      A                      A                      A
 Frequencies --    462.8291               522.5272               580.7656
 Red. masses --      4.5353                11.6213                16.7983
 Frc consts  --      0.5724                 1.8695                 3.3382
 IR Inten    --     18.4957                35.5829                53.2835

                     10                     11                     12
                      A                      A                      A
 Frequencies --    614.5139               733.0003               910.9215
 Red. masses --     14.8617                15.7944                17.8158
 Frc consts  --      3.3066                 4.9999                 8.7100
 IR Inten    --     49.4733                24.5813               235.2597

                     13                     14                     15
                      A                      A                      A
 Frequencies --   1142.4531              1230.6962              1312.2989
 Red. masses --      1.2051                14.0074                14.0315
 Frc consts  --      0.9267                12.5000                14.2370
 IR Inten    --     70.5023               212.4990                82.0240

                     16                     17                     18
                      A                      A                      A
 Frequencies --   1338.9046              1486.4222              3817.9512
 Red. masses --     13.8440                14.8389                 1.0657
 Frc consts  --     14.6221                19.3168                 9.1528
 IR Inten    --    219.0291               275.9612               188.1173

 - Thermochemistry -
 -------------------
 Temperature   298.150 Kelvin.  Pressure   1.00000 Atm.
 Atom     1 has atomic number  6 and mass  12.00000

 Molecular mass:   130.96145 amu.
 Principal axes and moments of inertia in atomic units:
                           1         2         3
     Eigenvalues --   518.39506 875.233691042.16132
           X            0.29108   0.84051  -0.45696
           Y           -0.54261   0.53842   0.64472
           Z            0.78794   0.06029   0.61280
 This molecule is an asymmetric top.
 Rotational symmetry number  1.
 Warning -- assumption of classical behavior for rotation
           may cause significant error
 Rotational temperatures (Kelvin)      0.16708     0.09896     0.08311
 Rotational constants (GHZ):           3.48140     2.06201     1.73173
 Zero-point vibrational energy      93295.2 (Joules/Mol)
                                   22.29808 (Kcal/Mol)
 Warning -- explicit consideration of  10 degrees of freedom as
           vibrations may cause significant error
 Vibrational temperatures:     83.86   262.53   275.92   426.63   484.17
          (Kelvin)            545.14   665.91   751.80   835.59   884.15
                             1054.62  1310.61  1643.74  1770.70  1888.11
                             1926.39  2138.63  5493.18

 Zero-point correction=                           0.035534 (Hartree/Particle)
 Thermal correction to Energy=                    0.042476
 Thermal correction to Enthalpy=                  0.043420
 Thermal correction to Gibbs Free Energy=         0.002981
 Sum of electronic and zero-point Energies=           -862.157148
 Sum of electronic and thermal Energies=              -862.150207
 Sum of electronic and thermal Enthalpies=            -862.149262
 Sum of electronic and thermal Free Energies=         -862.189701

                     E (Thermal)             CV                S
                      KCal/Mol        Cal/Mol-Kelvin    Cal/Mol-Kelvin
 Total                   26.654             23.090             85.110
 Electronic               0.000              0.000              1.377
 Translational            0.889              2.981             40.522
 Rotational               0.889              2.981             27.649
 Vibrational             24.876             17.128             15.562
 Vibration     1          0.596              1.974              4.514
 Vibration     2          0.630              1.864              2.303
 Vibration     3          0.634              1.851              2.211
 Vibration     4          0.690              1.680              1.436
 Vibration     5          0.717              1.603              1.229
 Vibration     6          0.749              1.515              1.044
 Vibration     7          0.820              1.333              0.758
 Vibration     8          0.877              1.200              0.604
 Vibration     9          0.937              1.073              0.484
 Vibration    10          0.974              1.001              0.425

 Optimization completed.
    -- Stationary point found.
 Normal termination of Gaussian 16 at Sun May 25 03:37:59 2025.
