 Gaussian 16, Revision C.01,
 Gaussian 16:  ES64L-G16RevC.01  3-Jul-2019

 -----------------------------------------------------------------
 #P M062X/Def2TZVPP Symm(None) scf(xqc) pop(None) freq opt(CalcFC)
 -----------------------------------------------------------------

 ------------------------------
 Gaussian input prepared by ASE
 ------------------------------
 Symbolic Z-matrix:
 Charge =  0 Multiplicity = 2

 SCF Done:  E(UM062X) =  -862.189158954     A.U. after   16 cycles
 SCF Done:  E(UM062X) =  -862.192273224     A.U. after   15 cycles
 SCF Done:  E(UM062X) =  -862.154697181     A.U. after   16 cycles
 SCF Done:  E(UM062X) =  -862.192456697     A.U. after   12 cycles
 SCF Done:  E(UM062X) =  -862.192624994     A.U. after   13 cycles
 SCF Done:  E(UM062X) =  -862.192678409     A.U. after   12 cycles
 SCF Done:  E(UM062X) =  -862.192681668     A.U. after    9 cycles
 SCF Done:  E(UM062X) =  -862.192682004     A.U. after    7 cycles
 Optimization completed.
    -- Stationary point found.
 Normal termination of Gaussian 16 at Sun May 25 03:34:26 2025.

 ---------------------------------------------------------------------
 #P Geom=AllCheck Guess=TCheck SCRF=Check GenChk UM062X/def2TZVPP Freq
 ---------------------------------------------------------------------

 Structure from the checkpoint file:  "/tmp/Gau-280744.chk"
 ------------------------------
 Gaussian input prepared by ASE
 ------------------------------
 Charge =  0 Multiplicity = 2

                          Input orientation:
 ---------------------------------------------------------------------
 Center     Atomic      Atomic             Coordinates (Angstroms)
 Number     Number       Type             X           Y           Z
 ---------------------------------------------------------------------
      1          6           0        1.912509   -0.424996    1.607317
      2          9           0        3.208222   -0.278175    1.761300
      3          9           0        1.495079   -1.582063    2.048464
      4         16           0        1.321777   -0.017035   -0.038220
      5          8           0        2.094189   -0.719588   -1.006084
      6          8           0       -0.087744   -0.079983    0.015686
      7          8           0        1.748118    1.497418   -0.073980
      8          1           0        2.569151    1.593673   -0.576820
 ---------------------------------------------------------------------

 SCF Done:  E(UM062X) =  -862.192682004     A.U. after    1 cycles

 Isotropic polarizability for W=    0.000000       40.03 Bohr**3.
 End of Minotr F.D. properties file   721 does not exist.

                      1                      2                      3
                      A                      A                      A
 Frequencies --     59.4016               183.3375               192.2962
 Red. masses --     13.7528                 6.8473                17.0077
 Frc consts  --      0.0286                 0.1356                 0.3705
 IR Inten    --      1.1893                 8.7455                 3.3720

                      4                      5                      6
                      A                      A                      A
 Frequencies --    303.5606               338.4075               378.9138
 Red. masses --      2.1143                 2.7836                12.7068
 Frc consts  --      0.1148                 0.1878                 1.0749
 IR Inten    --     53.6245                29.1045                 4.6327

                      7                      8                      9
                      A                      A                      A
 Frequencies --    463.3032               522.7376               580.6001
 Red. masses --      4.4777                11.6786                16.8224
 Frc consts  --      0.5663                 1.8802                 3.3411
 IR Inten    --     18.9775                35.5932                53.1678

                     10                     11                     12
                      A                      A                      A
 Frequencies --    614.4614               732.8516               910.2886
 Red. masses --     14.8596                15.8218                17.8071
 Frc consts  --      3.3056                 5.0066                 8.6936
 IR Inten    --     49.6839                24.6680               234.5096

                     13                     14                     15
                      A                      A                      A
 Frequencies --   1145.6039              1230.0731              1312.0798
 Red. masses --      1.2072                13.6262                14.0353
 Frc consts  --      0.9335                12.1475                14.2362
 IR Inten    --     70.0333               212.9213                82.1041

                     16                     17                     18
                      A                      A                      A
 Frequencies --   1339.1633              1487.3734              3813.8787
 Red. masses --     13.8207                14.7813                 1.0657
 Frc consts  --     14.6032                19.2665                 9.1331
 IR Inten    --    219.3505               275.7304               188.6893

 - Thermochemistry -
 -------------------
 Temperature   298.150 Kelvin.  Pressure   1.00000 Atm.
 Atom     1 has atomic number  6 and mass  12.00000

 Molecular mass:   130.96145 amu.
 Principal axes and moments of inertia in atomic units:
                           1         2         3
     Eigenvalues --   518.39194 875.218861042.18826
           X            0.39051   0.82387  -0.41077
           Y           -0.43790   0.55873   0.70432
           Z            0.80978  -0.09516   0.57897
 This molecule is an asymmetric top.
 Rotational symmetry number  1.
 Warning -- assumption of classical behavior for rotation
           may cause significant error
 Rotational temperatures (Kelvin)      0.16708     0.09896     0.08311
 Rotational constants (GHZ):           3.48142     2.06205     1.73168
 Zero-point vibrational energy      93358.6 (Joules/Mol)
                                   22.31323 (Kcal/Mol)
 Warning -- explicit consideration of  10 degrees of freedom as
           vibrations may cause significant error
 Vibrational temperatures:     85.47   263.78   276.67   436.76   486.89
          (Kelvin)            545.17   666.59   752.10   835.35   884.07
                             1054.41  1309.70  1648.27  1769.80  1887.79
                             1926.76  2140.00  5487.32

 Zero-point correction=                           0.035558 (Hartree/Particle)
 Thermal correction to Energy=                    0.042484
 Thermal correction to Enthalpy=                  0.043428
 Thermal correction to Gibbs Free Energy=         0.003037
 Sum of electronic and zero-point Energies=           -862.157124
 Sum of electronic and thermal Energies=              -862.150198
 Sum of electronic and thermal Enthalpies=            -862.149254
 Sum of electronic and thermal Free Energies=         -862.189645

                     E (Thermal)             CV                S
                      KCal/Mol        Cal/Mol-Kelvin    Cal/Mol-Kelvin
 Total                   26.659             23.068             85.009
 Electronic               0.000              0.000              1.377
 Translational            0.889              2.981             40.522
 Rotational               0.889              2.981             27.649
 Vibrational             24.881             17.107             15.460
 Vibration     1          0.597              1.974              4.477
 Vibration     2          0.631              1.863              2.294
 Vibration     3          0.634              1.851              2.206
 Vibration     4          0.695              1.667              1.397
 Vibration     5          0.719              1.599              1.220
 Vibration     6          0.749              1.515              1.043
 Vibration     7          0.821              1.331              0.757
 Vibration     8          0.878              1.200              0.604
 Vibration     9          0.937              1.073              0.484
 Vibration    10          0.974              1.001              0.425

 Optimization completed.
    -- Stationary point found.
 Normal termination of Gaussian 16 at Sun May 25 03:36:24 2025.
