 Gaussian 16, Revision C.01,
 Gaussian 16:  ES64L-G16RevC.01  3-Jul-2019

 -----------------------------------------------------------------
 #P M062X/Def2TZVPP Symm(None) scf(xqc) pop(None) freq opt(CalcFC)
 -----------------------------------------------------------------

 ------------------------------
 Gaussian input prepared by ASE
 ------------------------------
 Symbolic Z-matrix:
 Charge =  0 Multiplicity = 2

 SCF Done:  E(UM062X) =  -886.242318943     A.U. after   18 cycles
 Optimization completed.
    -- Stationary point found.
 Normal termination of Gaussian 16 at Sun May 25 03:28:41 2025.

 ---------------------------------------------------------------------
 #P Geom=AllCheck Guess=TCheck SCRF=Check GenChk UM062X/def2TZVPP Freq
 ---------------------------------------------------------------------

 Structure from the checkpoint file:  "/tmp/Gau-203774.chk"
 ------------------------------
 Gaussian input prepared by ASE
 ------------------------------
 Charge =  0 Multiplicity = 2

                          Input orientation:
 ---------------------------------------------------------------------
 Center     Atomic      Atomic             Coordinates (Angstroms)
 Number     Number       Type             X           Y           Z
 ---------------------------------------------------------------------
      1          6           0       -0.094818   -0.059122    0.059934
      2          9           0       -0.583329    0.589588   -0.974207
      3          9           0       -0.548694    0.461028    1.179151
      4          9           0       -0.414759   -1.332515   -0.010831
      5         16           0        1.805013    0.108223    0.039220
      6          8           0        2.237790   -0.524953    1.257934
      7          8           0        2.196748   -0.361437   -1.264361
 ---------------------------------------------------------------------

 SCF Done:  E(UM062X) =  -886.242318943     A.U. after    1 cycles

 Isotropic polarizability for W=    0.000000       39.59 Bohr**3.
 End of Minotr F.D. properties file   721 does not exist.

                      1                      2                      3
                      A                      A                      A
 Frequencies --     54.0963               177.0275               208.4469
 Red. masses --     17.1903                17.2827                17.5096
 Frc consts  --      0.0296                 0.3191                 0.4482
 IR Inten    --      0.4391                 1.8490                 6.1499

                      4                      5                      6
                      A                      A                      A
 Frequencies --    281.3978               339.5539               452.9205
 Red. masses --     18.2491                18.7796                23.2723
 Frc consts  --      0.8514                 1.2757                 2.8128
 IR Inten    --      1.9150                 0.3137                23.7221

                      7                      8                      9
                      A                      A                      A
 Frequencies --    505.2039               555.2820               567.2024
 Red. masses --     19.7281                17.9879                18.7187
 Frc consts  --      2.9667                 3.2678                 3.5481
 IR Inten    --     44.2795                 1.6484                 2.5909

                     10                     11                     12
                      A                      A                      A
 Frequencies --    762.8187              1103.5192              1162.4115
 Red. masses --     16.6984                14.8172                16.6960
 Frc consts  --      5.7249                10.6310                13.2918
 IR Inten    --     31.5906               379.1560                20.6921

                     13                     14                     15
                      A                      A                      A
 Frequencies --   1303.5954              1303.7153              1372.6840
 Red. masses --     13.5971                13.5321                19.2115
 Frc consts  --     13.6139                13.5513                21.3281
 IR Inten    --    205.2230               226.2080               264.9824

 - Thermochemistry -
 -------------------
 Temperature   298.150 Kelvin.  Pressure   1.00000 Atm.
 Atom     1 has atomic number  6 and mass  12.00000

 Molecular mass:   132.95711 amu.
 Principal axes and moments of inertia in atomic units:
                           1         2         3
     Eigenvalues --   511.08335 905.780271075.50350
           X            0.99602   0.01672   0.08752
           Y           -0.08627  -0.06479   0.99416
           Z           -0.02229   0.99776   0.06309
 This molecule is an asymmetric top.
 Rotational symmetry number  1.
 Warning -- assumption of classical behavior for rotation
           may cause significant error
 Rotational temperatures (Kelvin)      0.16947     0.09562     0.08053
 Rotational constants (GHZ):           3.53121     1.99247     1.67804
 Zero-point vibrational energy      60709.7 (Joules/Mol)
                                   14.50997 (Kcal/Mol)
 Warning -- explicit consideration of   9 degrees of freedom as
           vibrations may cause significant error
 Vibrational temperatures:     77.83   254.70   299.91   404.87   488.54
          (Kelvin)            651.65   726.88   798.93   816.08  1097.53
                             1587.72  1672.45  1875.58  1875.76  1974.99

 Zero-point correction=                           0.023123 (Hartree/Particle)
 Thermal correction to Energy=                    0.029755
 Thermal correction to Enthalpy=                  0.030699
 Thermal correction to Gibbs Free Energy=        -0.009384
 Sum of electronic and zero-point Energies=           -886.219196
 Sum of electronic and thermal Energies=              -886.212564
 Sum of electronic and thermal Enthalpies=            -886.211619
 Sum of electronic and thermal Free Energies=         -886.251702

                     E (Thermal)             CV                S
                      KCal/Mol        Cal/Mol-Kelvin    Cal/Mol-Kelvin
 Total                   18.672             21.394             84.362
 Electronic               0.000              0.000              1.377
 Translational            0.889              2.981             40.567
 Rotational               0.889              2.981             27.701
 Vibrational             16.894             15.432             14.717
 Vibration     1          0.596              1.976              4.662
 Vibration     2          0.628              1.871              2.360
 Vibration     3          0.642              1.828              2.057
 Vibration     4          0.681              1.708              1.525
 Vibration     5          0.719              1.596              1.214
 Vibration     6          0.811              1.354              0.787
 Vibration     7          0.860              1.238              0.645
 Vibration     8          0.911              1.128              0.533
 Vibration     9          0.923              1.102              0.510

 Optimization completed.
    -- Stationary point found.
 Normal termination of Gaussian 16 at Sun May 25 03:30:12 2025.
