 Gaussian 16, Revision C.01,
 Gaussian 16:  ES64L-G16RevC.01  3-Jul-2019

 -----------------------------------------------------------------
 #P M062X/Def2TZVPP Symm(None) scf(xqc) pop(None) freq opt(CalcFC)
 -----------------------------------------------------------------

 ------------------------------
 Gaussian input prepared by ASE
 ------------------------------
 Symbolic Z-matrix:
 Charge =  0 Multiplicity = 1

 SCF Done:  E(RM062X) =  -886.887940740     A.U. after   14 cycles
 Optimization completed.
    -- Stationary point found.
 Normal termination of Gaussian 16 at Sun May 25 03:28:23 2025.

 ---------------------------------------------------------------------
 #P Geom=AllCheck Guess=TCheck SCRF=Check GenChk RM062X/def2TZVPP Freq
 ---------------------------------------------------------------------

 Structure from the checkpoint file:  "/tmp/Gau-254174.chk"
 ------------------------------
 Gaussian input prepared by ASE
 ------------------------------
 Charge =  0 Multiplicity = 1

                          Input orientation:
 ---------------------------------------------------------------------
 Center     Atomic      Atomic             Coordinates (Angstroms)
 Number     Number       Type             X           Y           Z
 ---------------------------------------------------------------------
      1          6           0        0.000000    0.000000    0.000000
      2          9           0       -0.455246    0.756340   -0.994294
      3          9           0       -0.459745    0.477981    1.147952
      4          9           0       -0.437506   -1.236416   -0.163111
      5         16           0        1.872672    0.000000    0.000000
      6          8           0        2.196796   -0.512837   -1.317441
      7          8           0        1.985058    1.603323    0.000000
      8          1           0        1.620220    1.966552   -0.823403
 ---------------------------------------------------------------------

 SCF Done:  E(RM062X) =  -886.887940740     A.U. after    1 cycles

 Isotropic polarizability for W=    0.000000       39.84 Bohr**3.
 End of Minotr F.D. properties file   721 does not exist.

                      1                      2                      3
                      A                      A                      A
 Frequencies --     71.2473               187.6113               223.0286
 Red. masses --     12.5138                13.2001                 6.3014
 Frc consts  --      0.0374                 0.2737                 0.1847
 IR Inten    --      0.9690                 4.8360                 7.5289

                      4                      5                      6
                      A                      A                      A
 Frequencies --    292.4848               340.0854               375.1924
 Red. masses --      6.0427                 3.9268                 3.7058
 Frc consts  --      0.3046                 0.2676                 0.3074
 IR Inten    --     10.3711                 9.1604                19.5235

                      7                      8                      9
                      A                      A                      A
 Frequencies --    485.1299               504.4113               556.5464
 Red. masses --     10.0588                 2.7748                17.4331
 Frc consts  --      1.3948                 0.4160                 3.1815
 IR Inten    --     25.8340               131.6728                 1.1680

                     10                     11                     12
                      A                      A                      A
 Frequencies --    593.8748               772.1287               839.0270
 Red. masses --     12.8850                17.5161                16.5800
 Frc consts  --      2.6775                 6.1527                 6.8768
 IR Inten    --     26.0498                 2.8010               165.7113

                     13                     14                     15
                      A                      A                      A
 Frequencies --   1143.5292              1200.3596              1252.2275
 Red. masses --      1.3366                 8.7213                12.5854
 Frc consts  --      1.0298                 7.4038                11.6275
 IR Inten    --     86.7900               219.4815                45.7285

                     16                     17                     18
                      A                      A                      A
 Frequencies --   1265.4697              1293.5306              3751.2904
 Red. masses --      9.1854                12.3114                 1.0648
 Frc consts  --      8.6666                12.1370                 8.8286
 IR Inten    --    207.5124               395.5968               104.6660

 - Thermochemistry -
 -------------------
 Temperature   298.150 Kelvin.  Pressure   1.00000 Atm.
 Atom     1 has atomic number  6 and mass  12.00000

 Molecular mass:   133.96494 amu.
 Principal axes and moments of inertia in atomic units:
                           1         2         3
     Eigenvalues --   533.72469 898.673911050.50644
           X            0.96329  -0.04643   0.26443
           Y            0.16175   0.88648  -0.43359
           Z           -0.21428   0.46044   0.86144
 This molecule is an asymmetric top.
 Rotational symmetry number  1.
 Warning -- assumption of classical behavior for rotation
           may cause significant error
 Rotational temperatures (Kelvin)      0.16228     0.09638     0.08245
 Rotational constants (GHZ):           3.38141     2.00823     1.71797
 Zero-point vibrational energy      90600.2 (Joules/Mol)
                                   21.65397 (Kcal/Mol)
 Warning -- explicit consideration of  10 degrees of freedom as
           vibrations may cause significant error
 Vibrational temperatures:    102.51   269.93   320.89   420.82   489.31
          (Kelvin)            539.82   697.99   725.74   800.75   854.45
                             1110.92  1207.17  1645.28  1727.05  1801.68
                             1820.73  1861.10  5397.27

 Zero-point correction=                           0.034508 (Hartree/Particle)
 Thermal correction to Energy=                    0.041409
 Thermal correction to Enthalpy=                  0.042353
 Thermal correction to Gibbs Free Energy=         0.002791
 Sum of electronic and zero-point Energies=           -886.853433
 Sum of electronic and thermal Energies=              -886.846532
 Sum of electronic and thermal Enthalpies=            -886.845587
 Sum of electronic and thermal Free Energies=         -886.885150

                     E (Thermal)             CV                S
                      KCal/Mol        Cal/Mol-Kelvin    Cal/Mol-Kelvin
 Total                   25.985             23.318             83.266
 Electronic               0.000              0.000              0.000
 Translational            0.889              2.981             40.590
 Rotational               0.889              2.981             27.713
 Vibrational             24.207             17.356             14.964
 Vibration     1          0.598              1.968              4.119
 Vibration     2          0.632              1.857              2.251
 Vibration     3          0.649              1.806              1.934
 Vibration     4          0.688              1.688              1.460
 Vibration     5          0.720              1.595              1.212
 Vibration     6          0.746              1.523              1.058
 Vibration     7          0.841              1.283              0.696
 Vibration     8          0.860              1.240              0.647
 Vibration     9          0.912              1.125              0.531
 Vibration    10          0.951              1.045              0.460

 Optimization completed.
    -- Stationary point found.
 Normal termination of Gaussian 16 at Sun May 25 03:29:40 2025.
