 Gaussian 16, Revision C.01,
 Gaussian 16:  ES64L-G16RevC.01  3-Jul-2019

 -----------------------------------------------------------------
 #P M062X/Def2TZVPP Symm(None) scf(xqc) pop(None) freq opt(CalcFC)
 -----------------------------------------------------------------

 ------------------------------
 Gaussian input prepared by ASE
 ------------------------------
 Symbolic Z-matrix:
 Charge =  0 Multiplicity = 1

 SCF Done:  E(RM062X) =  -886.881660722     A.U. after   14 cycles
 SCF Done:  E(RM062X) =  -886.883329508     A.U. after   15 cycles
 SCF Done:  E(RM062X) =  -886.882093942     A.U. after   15 cycles
 SCF Done:  E(RM062X) =  -886.868320188     A.U. after   14 cycles
 SCF Done:  E(RM062X) =  -886.869327834     A.U. after   14 cycles
 SCF Done:  E(RM062X) =  -886.883549016     A.U. after   11 cycles
 SCF Done:  E(RM062X) =  -886.883992041     A.U. after   13 cycles
 SCF Done:  E(RM062X) =  -886.884032944     A.U. after   10 cycles
 SCF Done:  E(RM062X) =  -886.884034433     A.U. after    8 cycles
 SCF Done:  E(RM062X) =  -886.884034497     A.U. after    8 cycles
 Optimization completed.
    -- Stationary point found.
 Normal termination of Gaussian 16 at Sun May 25 03:30:18 2025.

 ---------------------------------------------------------------------
 #P Geom=AllCheck Guess=TCheck SCRF=Check GenChk RM062X/def2TZVPP Freq
 ---------------------------------------------------------------------

 Structure from the checkpoint file:  "/tmp/Gau-254175.chk"
 ------------------------------
 Gaussian input prepared by ASE
 ------------------------------
 Charge =  0 Multiplicity = 1

                          Input orientation:
 ---------------------------------------------------------------------
 Center     Atomic      Atomic             Coordinates (Angstroms)
 Number     Number       Type             X           Y           Z
 ---------------------------------------------------------------------
      1          6           0        0.031295    0.031383   -0.011272
      2          9           0       -0.460215    0.743056   -1.004768
      3          9           0       -0.357489    0.553400    1.144766
      4          9           0       -0.424695   -1.210772   -0.096365
      5         16           0        1.893682   -0.047312   -0.080280
      6          8           0        2.185083   -0.551622   -1.404366
      7          8           0        1.952146    1.576920   -0.081365
      8          1           0        2.796373    1.869191    0.281276
 ---------------------------------------------------------------------

 SCF Done:  E(RM062X) =  -886.884034497     A.U. after    1 cycles

 Isotropic polarizability for W=    0.000000       40.21 Bohr**3.
 End of Minotr F.D. properties file   721 does not exist.

                      1                      2                      3
                      A                      A                      A
 Frequencies --     68.1051               191.4138               206.9047
 Red. masses --     11.8007                13.9300                 1.7234
 Frc consts  --      0.0322                 0.3007                 0.0435
 IR Inten    --      3.6692                 4.3589                64.5718

                      4                      5                      6
                      A                      A                      A
 Frequencies --    235.0121               305.0616               368.4316
 Red. masses --      3.1741                13.7872                 6.1629
 Frc consts  --      0.1033                 0.7560                 0.4929
 IR Inten    --     34.0119                 0.9928                 6.2269

                      7                      8                      9
                      A                      A                      A
 Frequencies --    437.6095               489.7520               561.3239
 Red. masses --     16.2111                15.9659                15.4812
 Frc consts  --      1.8291                 2.2563                 2.8740
 IR Inten    --     19.9023                21.7763                 2.1616

                     10                     11                     12
                      A                      A                      A
 Frequencies --    593.3947               778.2032               817.9876
 Red. masses --     14.5035                16.7463                15.8269
 Frc consts  --      3.0089                 5.9752                 6.2393
 IR Inten    --     21.2155                 3.7871               133.0448

                     13                     14                     15
                      A                      A                      A
 Frequencies --   1131.1640              1193.4015              1256.8330
 Red. masses --      1.1852                11.0858                14.8443
 Frc consts  --      0.8935                 9.3023                13.8155
 IR Inten    --    177.9643               301.0901                29.9911

                     16                     17                     18
                      A                      A                      A
 Frequencies --   1290.1606              1298.3603              3854.5266
 Red. masses --     11.7064                12.8819                 1.0670
 Frc consts  --     11.4805                12.7944                 9.3401
 IR Inten    --    272.9324               282.3700               173.4326

 - Thermochemistry -
 -------------------
 Temperature   298.150 Kelvin.  Pressure   1.00000 Atm.
 Atom     1 has atomic number  6 and mass  12.00000

 Molecular mass:   133.96494 amu.
 Principal axes and moments of inertia in atomic units:
                           1         2         3
     Eigenvalues --   537.06927 888.220751049.82884
           X            0.96173   0.01136   0.27375
           Y            0.11974   0.88125  -0.45724
           Z           -0.24644   0.47252   0.84616
 This molecule is an asymmetric top.
 Rotational symmetry number  1.
 Warning -- assumption of classical behavior for rotation
           may cause significant error
 Rotational temperatures (Kelvin)      0.16127     0.09751     0.08250
 Rotational constants (GHZ):           3.36035     2.03186     1.71908
 Zero-point vibrational energy      90184.3 (Joules/Mol)
                                   21.55458 (Kcal/Mol)
 Warning -- explicit consideration of  10 degrees of freedom as
           vibrations may cause significant error
 Vibrational temperatures:     97.99   275.40   297.69   338.13   438.92
          (Kelvin)            530.09   629.62   704.64   807.62   853.76
                             1119.66  1176.90  1627.49  1717.04  1808.30
                             1856.25  1868.05  5545.80

 Zero-point correction=                           0.034349 (Hartree/Particle)
 Thermal correction to Energy=                    0.041453
 Thermal correction to Enthalpy=                  0.042397
 Thermal correction to Gibbs Free Energy=         0.002387
 Sum of electronic and zero-point Energies=           -886.849685
 Sum of electronic and thermal Energies=              -886.842581
 Sum of electronic and thermal Enthalpies=            -886.841637
 Sum of electronic and thermal Free Energies=         -886.881648

                     E (Thermal)             CV                S
                      KCal/Mol        Cal/Mol-Kelvin    Cal/Mol-Kelvin
 Total                   26.012             23.668             84.210
 Electronic               0.000              0.000              0.000
 Translational            0.889              2.981             40.590
 Rotational               0.889              2.981             27.706
 Vibrational             24.235             17.706             15.914
 Vibration     1          0.598              1.969              4.207
 Vibration     2          0.634              1.852              2.214
 Vibration     3          0.641              1.830              2.071
 Vibration     4          0.655              1.787              1.840
 Vibration     5          0.696              1.664              1.389
 Vibration     6          0.741              1.537              1.086
 Vibration     7          0.798              1.388              0.834
 Vibration     8          0.846              1.273              0.684
 Vibration     9          0.917              1.115              0.521
 Vibration    10          0.951              1.046              0.461

 Optimization completed.
    -- Stationary point found.
 Normal termination of Gaussian 16 at Sun May 25 03:31:32 2025.
