 Gaussian 16, Revision C.01,
 Gaussian 16:  ES64L-G16RevC.01  3-Jul-2019

 -----------------------------------------------------------------
 #P M062X/Def2TZVPP Symm(None) scf(xqc) pop(None) freq opt(CalcFC)
 -----------------------------------------------------------------

 ------------------------------
 Gaussian input prepared by ASE
 ------------------------------
 Symbolic Z-matrix:
 Charge =  0 Multiplicity = 1

 SCF Done:  E(RM062X) =  -886.877869474     A.U. after   15 cycles
 SCF Done:  E(RM062X) =  -886.881817955     A.U. after   15 cycles
 SCF Done:  E(RM062X) =  -886.844089039     A.U. after   14 cycles
 SCF Done:  E(RM062X) =  -886.882436980     A.U. after   13 cycles
 SCF Done:  E(RM062X) =  -886.883006420     A.U. after   12 cycles
 SCF Done:  E(RM062X) =  -886.883865025     A.U. after   15 cycles
 SCF Done:  E(RM062X) =  -886.884010712     A.U. after   11 cycles
 SCF Done:  E(RM062X) =  -886.884030818     A.U. after   12 cycles
 SCF Done:  E(RM062X) =  -886.884032125     A.U. after   11 cycles
 SCF Done:  E(RM062X) =  -886.884033050     A.U. after    8 cycles
 Optimization completed.
    -- Stationary point found.
 Normal termination of Gaussian 16 at Sun May 25 03:32:10 2025.

 ---------------------------------------------------------------------
 #P Geom=AllCheck Guess=TCheck SCRF=Check GenChk RM062X/def2TZVPP Freq
 ---------------------------------------------------------------------

 Structure from the checkpoint file:  "/tmp/Gau-254179.chk"
 ------------------------------
 Gaussian input prepared by ASE
 ------------------------------
 Charge =  0 Multiplicity = 1

                          Input orientation:
 ---------------------------------------------------------------------
 Center     Atomic      Atomic             Coordinates (Angstroms)
 Number     Number       Type             X           Y           Z
 ---------------------------------------------------------------------
      1          6           0       -0.115996   -0.053532   -0.054478
      2          9           0       -0.549170    0.633266   -1.091682
      3          9           0       -0.702606    0.390515    1.049488
      4          9           0       -0.422933   -1.332960   -0.218649
      5         16           0        1.737663    0.062330    0.118240
      6          8           0        2.247363   -0.368124   -1.165260
      7          8           0        1.623380    1.683208    0.152621
      8          1           0        2.375793    2.049265    0.631709
 ---------------------------------------------------------------------

 SCF Done:  E(RM062X) =  -886.884033050     A.U. after    1 cycles

 Isotropic polarizability for W=    0.000000       40.21 Bohr**3.
 End of Minotr F.D. properties file   721 does not exist.

                      1                      2                      3
                      A                      A                      A
 Frequencies --     67.4019               189.7545               191.4045
 Red. masses --     11.6534                 2.3005                 2.8863
 Frc consts  --      0.0312                 0.0488                 0.0623
 IR Inten    --      3.7243                55.4852                31.3114

                      4                      5                      6
                      A                      A                      A
 Frequencies --    231.0092               304.9984               367.5450
 Red. masses --      5.0863                13.7780                 6.6578
 Frc consts  --      0.1599                 0.7551                 0.5299
 IR Inten    --     17.4478                 0.9984                 5.1575

                      7                      8                      9
                      A                      A                      A
 Frequencies --    437.4027               489.3895               561.4641
 Red. masses --     16.0840                16.0005                15.5468
 Frc consts  --      1.8130                 2.2578                 2.8876
 IR Inten    --     19.6591                21.4793                 2.1337

                     10                     11                     12
                      A                      A                      A
 Frequencies --    593.3496               778.1930               817.5651
 Red. masses --     14.5140                16.7551                15.8311
 Frc consts  --      3.0106                 5.9782                 6.2346
 IR Inten    --     21.0636                 3.7786               133.1017

                     13                     14                     15
                      A                      A                      A
 Frequencies --   1131.3578              1193.5213              1256.9970
 Red. masses --      1.1841                11.1452                14.8373
 Frc consts  --      0.8930                 9.3540                13.8125
 IR Inten    --    177.6470               300.9150                30.4851

                     16                     17                     18
                      A                      A                      A
 Frequencies --   1290.3554              1298.8810              3855.0524
 Red. masses --     11.7863                12.7987                 1.0670
 Frc consts  --     11.5624                12.7219                 9.3427
 IR Inten    --    275.4060               279.3759               173.4754

 - Thermochemistry -
 -------------------
 Temperature   298.150 Kelvin.  Pressure   1.00000 Atm.
 Atom     1 has atomic number  6 and mass  12.00000

 Molecular mass:   133.96494 amu.
 Principal axes and moments of inertia in atomic units:
                           1         2         3
     Eigenvalues --   537.07508 888.207231049.79160
           X            0.96710  -0.14278   0.21054
           Y            0.22589   0.86264  -0.45258
           Z           -0.11700   0.48525   0.86651
 This molecule is an asymmetric top.
 Rotational symmetry number  1.
 Warning -- assumption of classical behavior for rotation
           may cause significant error
 Rotational temperatures (Kelvin)      0.16127     0.09752     0.08251
 Rotational constants (GHZ):           3.36031     2.03189     1.71914
 Zero-point vibrational energy      90052.7 (Joules/Mol)
                                   21.52312 (Kcal/Mol)
 Warning -- explicit consideration of  10 degrees of freedom as
           vibrations may cause significant error
 Vibrational temperatures:     96.98   273.01   275.39   332.37   438.82
          (Kelvin)            528.82   629.32   704.12   807.82   853.70
                             1119.65  1176.29  1627.77  1717.21  1808.54
                             1856.53  1868.80  5546.56

 Zero-point correction=                           0.034299 (Hartree/Particle)
 Thermal correction to Energy=                    0.041439
 Thermal correction to Enthalpy=                  0.042383
 Thermal correction to Gibbs Free Energy=         0.002269
 Sum of electronic and zero-point Energies=           -886.849734
 Sum of electronic and thermal Energies=              -886.842594
 Sum of electronic and thermal Enthalpies=            -886.841650
 Sum of electronic and thermal Free Energies=         -886.881764

                     E (Thermal)             CV                S
                      KCal/Mol        Cal/Mol-Kelvin    Cal/Mol-Kelvin
 Total                   26.003             23.702             84.426
 Electronic               0.000              0.000              0.000
 Translational            0.889              2.981             40.590
 Rotational               0.889              2.981             27.706
 Vibrational             24.226             17.740             16.130
 Vibration     1          0.598              1.970              4.228
 Vibration     2          0.633              1.854              2.230
 Vibration     3          0.634              1.852              2.214
 Vibration     4          0.653              1.794              1.871
 Vibration     5          0.696              1.664              1.389
 Vibration     6          0.740              1.539              1.090
 Vibration     7          0.798              1.389              0.835
 Vibration     8          0.845              1.274              0.685
 Vibration     9          0.917              1.115              0.521
 Vibration    10          0.951              1.046              0.461

 Optimization completed.
    -- Stationary point found.
 Normal termination of Gaussian 16 at Sun May 25 03:34:13 2025.
