 Gaussian 16, Revision C.01,
 Gaussian 16:  ES64L-G16RevC.01  3-Jul-2019

 -----------------------------------------------------------------
 #P M062X/Def2TZVPP Symm(None) scf(xqc) pop(None) freq opt(CalcFC)
 -----------------------------------------------------------------

 ------------------------------
 Gaussian input prepared by ASE
 ------------------------------
 Symbolic Z-matrix:
 Charge =  0 Multiplicity = 2

 SCF Done:  E(UM062X) =  -961.377281051     A.U. after   33 cycles
 SCF Done:  E(UM062X) =  -961.434646488     a.u. after   21 cycles
 SCF Done:  E(UM062X) =  -961.434646502     A.U. after   16 cycles
 SCF Done:  E(UM062X) =  -961.434646536     A.U. after   15 cycles
 Optimization completed.
    -- Stationary point found.
 Normal termination of Gaussian 16 at Sun May 25 03:41:25 2025.

 ---------------------------------------------------------------------
 #P Geom=AllCheck Guess=TCheck SCRF=Check GenChk UM062X/def2TZVPP Freq
 ---------------------------------------------------------------------

 Structure from the checkpoint file:  "/tmp/Gau-6879.chk"
 ------------------------------
 Gaussian input prepared by ASE
 ------------------------------
 Charge =  0 Multiplicity = 2

                          Input orientation:
 ---------------------------------------------------------------------
 Center     Atomic      Atomic             Coordinates (Angstroms)
 Number     Number       Type             X           Y           Z
 ---------------------------------------------------------------------
      1          6           0       -0.083681   -0.060170    0.058013
      2          9           0       -0.593779    0.579952   -0.976388
      3          9           0       -0.555262    0.457012    1.176143
      4          9           0       -0.398887   -1.339592   -0.009361
      5         16           0        1.749575    0.096531    0.033925
      6          8           0        2.231284   -0.481735    1.239780
      7          8           0        2.185240   -0.333021   -1.249651
      8          8           0        1.976095    1.592982    0.116129
 ---------------------------------------------------------------------

 SCF Done:  E(UM062X) =  -961.434646536     A.U. after    1 cycles

 Isotropic polarizability for W=    0.000000       44.38 Bohr**3.
 End of Minotr F.D. properties file   721 does not exist.

                      1                      2                      3
                      A                      A                      A
 Frequencies --     51.5620                64.4694               183.0568
 Red. masses --     17.2042                17.3406                17.5163
 Frc consts  --      0.0269                 0.0425                 0.3458
 IR Inten    --      0.0302                 0.0219                 1.0442

                      4                      5                      6
                      A                      A                      A
 Frequencies --    197.5330               310.1105               331.1670
 Red. masses --     17.4078                17.6463                16.8395
 Frc consts  --      0.4002                 0.9999                 1.0881
 IR Inten    --      3.0382                 0.8697                 1.0173

                      7                      8                      9
                      A                      A                      A
 Frequencies --    366.3856               397.3121               560.7301
 Red. masses --     18.9735                21.8039                18.2924
 Frc consts  --      1.5006                 2.0279                 3.3887
 IR Inten    --      1.6192                 2.8873                12.5768

                     10                     11                     12
                      A                      A                      A
 Frequencies --    566.2780               610.6549               709.7795
 Red. masses --     17.9653                19.3194                17.7303
 Frc consts  --      3.3942                 4.2446                 5.2628
 IR Inten    --      0.5718               104.2663               127.2660

                     13                     14                     15
                      A                      A                      A
 Frequencies --    807.9189              1136.8706              1278.0283
 Red. masses --     18.7608                15.5911                14.9206
 Frc consts  --      7.2150                11.8727                14.3587
 IR Inten    --      8.8445               223.9100                37.6717

                     16                     17                     18
                      A                      A                      A
 Frequencies --   1293.5659              1296.1576              1362.5760
 Red. masses --     13.5767                13.2548                19.0183
 Frc consts  --     13.3851                13.1201                20.8039
 IR Inten    --    172.6993               231.1827               130.0294

 - Thermochemistry -
 -------------------
 Temperature   298.150 Kelvin.  Pressure   1.00000 Atm.
 Atom     1 has atomic number  6 and mass  12.00000

 Molecular mass:   148.95203 amu.
 Principal axes and moments of inertia in atomic units:
                           1         2         3
     Eigenvalues --   649.238041116.646571138.25499
           X            0.99111   0.02009  -0.13153
           Y            0.13263  -0.06958   0.98872
           Z           -0.01071   0.99737   0.07163
 This molecule is an asymmetric top.
 Rotational symmetry number  1.
 Warning -- assumption of classical behavior for rotation
           may cause significant error
 Rotational temperatures (Kelvin)      0.13341     0.07757     0.07609
 Rotational constants (GHZ):           2.77978     1.61622     1.58553
 Zero-point vibrational energy      68929.8 (Joules/Mol)
                                   16.47461 (Kcal/Mol)
 Warning -- explicit consideration of  11 degrees of freedom as
           vibrations may cause significant error
 Vibrational temperatures:     74.19    92.76   263.38   284.21   446.18
          (Kelvin)            476.48   527.15   571.64   806.77   814.75
                              878.60  1021.21  1162.42  1635.70  1838.80
                             1861.15  1864.88  1960.44

 Zero-point correction=                           0.026254 (Hartree/Particle)
 Thermal correction to Energy=                    0.034088
 Thermal correction to Enthalpy=                  0.035032
 Thermal correction to Gibbs Free Energy=        -0.008117
 Sum of electronic and zero-point Energies=           -961.408393
 Sum of electronic and thermal Energies=              -961.400559
 Sum of electronic and thermal Enthalpies=            -961.399614
 Sum of electronic and thermal Free Energies=         -961.442764

                     E (Thermal)             CV                S
                      KCal/Mol        Cal/Mol-Kelvin    Cal/Mol-Kelvin
 Total                   21.391             25.410             90.816
 Electronic               0.000              0.000              1.377
 Translational            0.889              2.981             40.906
 Rotational               0.889              2.981             28.203
 Vibrational             19.613             19.448             20.330
 Vibration     1          0.596              1.977              4.757
 Vibration     2          0.597              1.971              4.315
 Vibration     3          0.631              1.863              2.297
 Vibration     4          0.637              1.843              2.156
 Vibration     5          0.699              1.654              1.362
 Vibration     6          0.714              1.613              1.254
 Vibration     7          0.739              1.541              1.095
 Vibration     8          0.764              1.476              0.973
 Vibration     9          0.916              1.116              0.522
 Vibration    10          0.922              1.104              0.511
 Vibration    11          0.970              1.009              0.432

 Optimization completed.
    -- Stationary point found.
 Normal termination of Gaussian 16 at Sun May 25 03:43:40 2025.
