 Gaussian 16, Revision C.01,
 Gaussian 16:  ES64L-G16RevC.01  3-Jul-2019

 ----------------------------------------------------------------------
 #P M062X/Def2TZVPP Symm(None) scf(xqc) pop(None) opt(NoFreeze,TS,CalcA
 ll,NoEigentest,MaxCycle=999)
 ----------------------------------------------------------------------

 ------------------------------
 Gaussian input prepared by ASE
 ------------------------------
 Symbolic Z-matrix:
 Charge =  0 Multiplicity = 1

 SCF Done:  E(RM062X) =  -962.036747825     A.U. after   14 cycles
 SCF Done:  E(RM062X) =  -962.043646160     A.U. after   14 cycles
 SCF Done:  E(RM062X) =  -962.046123437     A.U. after   14 cycles
 SCF Done:  E(RM062X) =  -962.046716925     A.U. after   12 cycles
 SCF Done:  E(RM062X) =  -962.047023785     A.U. after   12 cycles
 SCF Done:  E(RM062X) =  -962.046812331     A.U. after   11 cycles
 SCF Done:  E(RM062X) =  -962.046731875     A.U. after   14 cycles
 SCF Done:  E(RM062X) =  -962.046962316     A.U. after   12 cycles
 SCF Done:  E(RM062X) =  -962.047696220     A.U. after   13 cycles
 SCF Done:  E(RM062X) =  -962.047270971     A.U. after   13 cycles
 SCF Done:  E(RM062X) =  -962.047367393     A.U. after   12 cycles
 SCF Done:  E(RM062X) =  -962.047377528     A.U. after   11 cycles
 SCF Done:  E(RM062X) =  -962.047377396     A.U. after    8 cycles

 Isotropic polarizability for W=    0.000000       44.40 Bohr**3.
 End of Minotr F.D. properties file   721 does not exist.

 Optimization completed.
    -- Stationary point found.

                          Input orientation:
 ---------------------------------------------------------------------
 Center     Atomic      Atomic             Coordinates (Angstroms)
 Number     Number       Type             X           Y           Z
 ---------------------------------------------------------------------
      1          6           0        1.589449    0.083151   -0.078820
      2          9           0       -0.476087    0.560930    0.089449
      3          9           0        1.618613   -0.672094    0.926064
      4          9           0        1.518638   -0.554694   -1.156772
      5         16           0        2.087123    1.961836    0.021966
      6          8           0        3.316070    1.798766    0.718415
      7          8           0        2.097026    2.286340   -1.359089
      8          8           0        0.960570    2.431499    0.797833
      9          1           0       -0.231056    1.431961    0.418531
 ---------------------------------------------------------------------

 ******    1 imaginary frequencies (negative Signs) ******

                      1                      2                      3
                      A                      A                      A
 Frequencies --   -112.2899                53.2327               156.4676
 Red. masses --      9.7939                16.5350                16.6799
 Frc consts  --      0.0728                 0.0276                 0.2406
 IR Inten    --      9.4314                 1.0383                 1.5844

                      4                      5                      6
                      A                      A                      A
 Frequencies --    171.4928               203.8257               242.6483
 Red. masses --     16.4560                16.6038                11.8398
 Frc consts  --      0.2851                 0.4064                 0.4107
 IR Inten    --      1.4608                 1.0228                23.3751

                      7                      8                      9
                      A                      A                      A
 Frequencies --    281.6198               366.6915               513.9381
 Red. masses --     13.8473                15.4456                14.3611
 Frc consts  --      0.6471                 1.2236                 2.2349
 IR Inten    --     31.5316                 7.7105                65.2168

                     10                     11                     12
                      A                      A                      A
 Frequencies --    549.8709               593.2410               615.7584
 Red. masses --     14.2101                12.7940                16.8865
 Frc consts  --      2.5314                 2.6529                 3.7723
 IR Inten    --     15.8587                 7.8239               219.0047

                     13                     14                     15
                      A                      A                      A
 Frequencies --    715.4223               782.0604               944.3710
 Red. masses --     13.6773                 1.0752                 1.1735
 Frc consts  --      4.1245                 0.3874                 0.6166
 IR Inten    --      8.1954               101.6184               500.6991

                     16                     17                     18
                      A                      A                      A
 Frequencies --   1102.3011              1361.2055              1425.7241
 Red. masses --     13.2784                14.0310                13.1102
 Frc consts  --      9.5060                15.3174                15.7011
 IR Inten    --     48.9316               193.5084               200.2502

                     19                     20                     21
                      A                      A                      A
 Frequencies --   1438.9573              1483.7379              3227.8591
 Red. masses --     18.4600                13.7887                 1.0670
 Frc consts  --     22.5205                17.8849                 6.5497
 IR Inten    --     66.3574               490.0480               651.7401

 - Thermochemistry -
 -------------------
 Temperature   298.150 Kelvin.  Pressure   1.00000 Atm.
 Atom     1 has atomic number  6 and mass  12.00000

 Molecular mass:   149.95985 amu.
 Principal axes and moments of inertia in atomic units:
                           1         2         3
     Eigenvalues --   755.831501179.654991295.37417
           X            0.49212   0.86668   0.08169
           Y            0.87012  -0.48686  -0.07656
           Z            0.02658  -0.10876   0.99371
 This molecule is an asymmetric top.
 Rotational symmetry number  1.
 Warning -- assumption of classical behavior for rotation
           may cause significant error
 Rotational temperatures (Kelvin)      0.11459     0.07342     0.06686
 Rotational constants (GHZ):           2.38776     1.52989     1.39322
    1 imaginary frequencies ignored.
 Zero-point vibrational energy      97079.5 (Joules/Mol)
                                   23.20256 (Kcal/Mol)
 Warning -- explicit consideration of  11 degrees of freedom as
           vibrations may cause significant error
 Vibrational temperatures:     76.59   225.12   246.74   293.26   349.12
          (Kelvin)            405.19   527.59   739.44   791.14   853.54
                              885.94  1029.33  1125.21  1358.74  1585.97
                             1958.47  2051.30  2070.34  2134.77  4644.17

 Zero-point correction=                           0.036976 (Hartree/Particle)
 Thermal correction to Energy=                    0.044720
 Thermal correction to Enthalpy=                  0.045665
 Thermal correction to Gibbs Free Energy=         0.003628
 Sum of electronic and zero-point Energies=           -962.010402
 Sum of electronic and thermal Energies=              -962.002657
 Sum of electronic and thermal Enthalpies=            -962.001713
 Sum of electronic and thermal Free Energies=         -962.043750

                     E (Thermal)             CV                S
                      KCal/Mol        Cal/Mol-Kelvin    Cal/Mol-Kelvin
 Total                   28.062             25.563             88.474
 Electronic               0.000              0.000              0.000
 Translational            0.889              2.981             40.926
 Rotational               0.889              2.981             28.537
 Vibrational             26.285             19.601             19.012
 Vibration     1          0.596              1.976              4.694
 Vibration     2          0.620              1.895              2.592
 Vibration     3          0.626              1.878              2.419
 Vibration     4          0.639              1.834              2.098
 Vibration     5          0.659              1.775              1.783
 Vibration     6          0.681              1.708              1.524
 Vibration     7          0.740              1.541              1.094
 Vibration     8          0.869              1.219              0.624
 Vibration     9          0.905              1.140              0.544
 Vibration    10          0.951              1.046              0.461
 Vibration    11          0.975              0.999              0.423

 Normal termination of Gaussian 16 at Sun May 25 06:01:40 2025.
