 Gaussian 16, Revision C.01,
 Gaussian 16:  ES64L-G16RevC.01  3-Jul-2019

 -----------------------------------------------------------------
 #P M062X/Def2TZVPP Symm(None) scf(xqc) pop(None) freq opt(CalcFC)
 -----------------------------------------------------------------

 ------------------------------
 Gaussian input prepared by ASE
 ------------------------------
 Symbolic Z-matrix:
 Charge =  0 Multiplicity = 1

 SCF Done:  E(RM062X) =  -962.125889038     A.U. after   13 cycles
 SCF Done:  E(RM062X) =  -962.125889281     A.U. after    7 cycles
 Optimization completed.
    -- Stationary point found.
 Normal termination of Gaussian 16 at Sun May 25 03:16:27 2025.

 ---------------------------------------------------------------------
 #P Geom=AllCheck Guess=TCheck SCRF=Check GenChk RM062X/def2TZVPP Freq
 ---------------------------------------------------------------------

 Structure from the checkpoint file:  "/tmp/Gau-195913.chk"
 ------------------------------
 Gaussian input prepared by ASE
 ------------------------------
 Charge =  0 Multiplicity = 1

                          Input orientation:
 ---------------------------------------------------------------------
 Center     Atomic      Atomic             Coordinates (Angstroms)
 Number     Number       Type             X           Y           Z
 ---------------------------------------------------------------------
      1          6           0        0.000071    0.000037   -0.000272
      2          9           0       -0.457821    0.579574   -1.092739
      3          9           0       -0.436548    0.663313    1.061954
      4          9           0       -0.426640   -1.246662    0.054591
      5         16           0        1.840156    0.000162   -0.000544
      6          8           0        2.249124   -0.542847    1.244883
      7          8           0        2.256656   -0.502406   -1.251822
      8          8           0        2.093232    1.552241    0.001098
      9          1           0        2.183615    1.873546    0.909837
 ---------------------------------------------------------------------

 SCF Done:  E(RM062X) =  -962.125889281     A.U. after    1 cycles

 Isotropic polarizability for W=    0.000000       41.21 Bohr**3.
 End of Minotr F.D. properties file   721 does not exist.

                      1                      2                      3
                      A                      A                      A
 Frequencies --     60.7249               187.7751               195.0712
 Red. masses --     13.4360                 6.9397                16.4562
 Frc consts  --      0.0292                 0.1442                 0.3689
 IR Inten    --      1.4428                10.3912                 3.1972

                      4                      5                      6
                      A                      A                      A
 Frequencies --    309.7356               320.9060               342.3871
 Red. masses --     10.2941                 2.8273                13.2028
 Frc consts  --      0.5819                 0.1715                 0.9119
 IR Inten    --      1.0887                34.5671                 1.9331

                      7                      8                      9
                      A                      A                      A
 Frequencies --    372.4659               470.7587               506.9717
 Red. masses --      2.2073                 4.5039                15.0555
 Frc consts  --      0.1804                 0.5881                 2.2799
 IR Inten    --     46.4968                26.6020                26.8621

                     10                     11                     12
                      A                      A                      A
 Frequencies --    571.1565               577.0452               631.9788
 Red. masses --     15.6854                16.3892                19.9469
 Frc consts  --      3.0148                 3.2153                 4.6939
 IR Inten    --      0.8765                 2.7951               159.5045

                     13                     14                     15
                      A                      A                      A
 Frequencies --    794.6481               908.0974              1141.7204
 Red. masses --     17.7079                17.5752                 1.1840
 Frc consts  --      6.5882                 8.5392                 0.9094
 IR Inten    --      3.6337               217.5489                87.5570

                     16                     17                     18
                      A                      A                      A
 Frequencies --   1198.1656              1275.8862              1296.8328
 Red. masses --     14.7542                13.3698                13.3799
 Frc consts  --     12.4796                12.8233                13.2577
 IR Inten    --    265.6375               163.4300               131.3782

                     19                     20                     21
                      A                      A                      A
 Frequencies --   1308.8366              1503.8803              3809.8415
 Red. masses --     15.2584                15.3503                 1.0657
 Frc consts  --     15.4004                20.4548                 9.1138
 IR Inten    --    238.8263               293.1262               186.3810

 - Thermochemistry -
 -------------------
 Temperature   298.150 Kelvin.  Pressure   1.00000 Atm.
 Atom     1 has atomic number  6 and mass  12.00000

 Molecular mass:   149.95985 amu.
 Principal axes and moments of inertia in atomic units:
                           1         2         3
     Eigenvalues --   673.861031131.914271139.37630
           X            0.99776  -0.03928  -0.05420
           Y            0.06669   0.51387   0.85527
           Z            0.00574   0.85697  -0.51533
 This molecule is an asymmetric top.
 Rotational symmetry number  1.
 Warning -- assumption of classical behavior for rotation
           may cause significant error
 Rotational temperatures (Kelvin)      0.12853     0.07652     0.07602
 Rotational constants (GHZ):           2.67821     1.59442     1.58397
 Zero-point vibrational energy     106377.2 (Joules/Mol)
                                   25.42477 (Kcal/Mol)
 Warning -- explicit consideration of  11 degrees of freedom as
           vibrations may cause significant error
 Vibrational temperatures:     87.37   270.17   280.66   445.64   461.71
          (Kelvin)            492.62   535.90   677.32   729.42   821.77
                              830.24   909.28  1143.32  1306.55  1642.68
                             1723.89  1835.72  1865.85  1883.12  2163.75
                             5481.51

 Zero-point correction=                           0.040517 (Hartree/Particle)
 Thermal correction to Energy=                    0.047989
 Thermal correction to Enthalpy=                  0.048933
 Thermal correction to Gibbs Free Energy=         0.007935
 Sum of electronic and zero-point Energies=           -962.085372
 Sum of electronic and thermal Energies=              -962.077901
 Sum of electronic and thermal Enthalpies=            -962.076957
 Sum of electronic and thermal Free Energies=         -962.117954

                     E (Thermal)             CV                S
                      KCal/Mol        Cal/Mol-Kelvin    Cal/Mol-Kelvin
 Total                   30.113             25.863             86.286
 Electronic               0.000              0.000              0.000
 Translational            0.889              2.981             40.926
 Rotational               0.889              2.981             28.254
 Vibrational             28.336             19.902             17.106
 Vibration     1          0.597              1.973              4.433
 Vibration     2          0.632              1.857              2.250
 Vibration     3          0.636              1.847              2.179
 Vibration     4          0.699              1.655              1.364
 Vibration     5          0.706              1.634              1.305
 Vibration     6          0.722              1.591              1.201
 Vibration     7          0.744              1.529              1.070
 Vibration     8          0.828              1.315              0.735
 Vibration     9          0.862              1.235              0.641
 Vibration    10          0.927              1.094              0.502
 Vibration    11          0.934              1.081              0.491

 Optimization completed.
    -- Stationary point found.
 Normal termination of Gaussian 16 at Sun May 25 03:18:14 2025.
