 Gaussian 16, Revision C.01,
 Gaussian 16:  ES64L-G16RevC.01  3-Jul-2019

 ----------------------------------------------------------------------
 #P M062X/Def2TZVPP Symm(None) scf(xqc) pop(None) opt(NoFreeze,TS,CalcA
 ll,NoEigentest,MaxCycle=999)
 ----------------------------------------------------------------------

 ------------------------------
 Gaussian input prepared by ASE
 ------------------------------
 Symbolic Z-matrix:
 Charge =  0 Multiplicity = 1

 SCF Done:  E(RM062X) =  -961.983495557     A.U. after   15 cycles
 SCF Done:  E(RM062X) =  -961.989673288     A.U. after   14 cycles
 SCF Done:  E(RM062X) =  -961.990022033     A.U. after   12 cycles
 SCF Done:  E(RM062X) =  -961.990023592     A.U. after    9 cycles

 Isotropic polarizability for W=    0.000000       44.76 Bohr**3.
 End of Minotr F.D. properties file   721 does not exist.

 Optimization completed.
    -- Stationary point found.

                          Input orientation:
 ---------------------------------------------------------------------
 Center     Atomic      Atomic             Coordinates (Angstroms)
 Number     Number       Type             X           Y           Z
 ---------------------------------------------------------------------
      1          6           0        0.727712   -1.655928    0.074949
      2          9           0        0.209825   -2.215778   -0.945485
      3          9           0        0.071309    0.050249   -0.006429
      4          9           0        0.211871   -2.115604    1.144313
      5         16           0        1.888573   -0.047907    0.004501
      6          8           0        2.455786   -0.290525    1.282711
      7          8           0        2.384893   -0.362657   -1.295806
      8          8           0        1.847646    1.542997    0.006400
      9          1           0        1.646703    1.853390   -0.886054
 ---------------------------------------------------------------------

 ******    1 imaginary frequencies (negative Signs) ******

                      1                      2                      3
                      A                      A                      A
 Frequencies --   -419.3670               106.3075               142.6997
 Red. masses --     15.3510                 9.1544                15.6118
 Frc consts  --      1.5906                 0.0610                 0.1873
 IR Inten    --     11.2137                 5.2232                 0.8614

                      4                      5                      6
                      A                      A                      A
 Frequencies --    179.2908               260.4330               321.5467
 Red. masses --     12.7291                 3.9742                 2.8982
 Frc consts  --      0.2411                 0.1588                 0.1765
 IR Inten    --     27.9399                29.0627                41.3997

                      7                      8                      9
                      A                      A                      A
 Frequencies --    374.5824               396.7275               438.8834
 Red. masses --      5.7057                 5.0962                 8.1952
 Frc consts  --      0.4717                 0.4726                 0.9301
 IR Inten    --     31.6165                15.0998                 4.3919

                     10                     11                     12
                      A                      A                      A
 Frequencies --    524.5637               544.4179               620.4393
 Red. masses --      5.5153                15.2712                17.2709
 Frc consts  --      0.8942                 2.6668                 3.9171
 IR Inten    --     19.8114                15.5990               302.8532

                     13                     14                     15
                      A                      A                      A
 Frequencies --    665.2110               709.4319               864.4093
 Red. masses --     12.9129                16.6205                16.6516
 Frc consts  --      3.3666                 4.9285                 7.3307
 IR Inten    --    146.1574                 7.1677               383.0274

                     16                     17                     18
                      A                      A                      A
 Frequencies --   1176.6860              1202.1402              1374.5030
 Red. masses --     16.4436                 1.2115                13.7198
 Frc consts  --     13.4143                 1.0315                15.2717
 IR Inten    --    134.8800                91.7207               145.4078

                     19                     20                     21
                      A                      A                      A
 Frequencies --   1389.4462              1472.4072              3834.0648
 Red. masses --     13.0489                12.5407                 1.0656
 Frc consts  --     14.8425                16.0187                 9.2293
 IR Inten    --    161.1034               405.9344               135.9023

 - Thermochemistry -
 -------------------
 Temperature   298.150 Kelvin.  Pressure   1.00000 Atm.
 Atom     1 has atomic number  6 and mass  12.00000

 Molecular mass:   149.95985 amu.
 Principal axes and moments of inertia in atomic units:
                           1         2         3
     Eigenvalues --   578.279241214.015161318.43893
           X            0.56890   0.03463   0.82168
           Y            0.82163   0.01932  -0.56969
           Z           -0.03561   0.99921  -0.01746
 This molecule is an asymmetric top.
 Rotational symmetry number  1.
 Warning -- assumption of classical behavior for rotation
           may cause significant error
 Rotational temperatures (Kelvin)      0.14978     0.07135     0.06569
 Rotational constants (GHZ):           3.12088     1.48659     1.36885
    1 imaginary frequencies ignored.
 Zero-point vibrational energy      99279.2 (Joules/Mol)
                                   23.72831 (Kcal/Mol)
 Warning -- explicit consideration of  11 degrees of freedom as
           vibrations may cause significant error
 Vibrational temperatures:    152.95   205.31   257.96   374.70   462.63
          (Kelvin)            538.94   570.80   631.46   754.73   783.30
                              892.67   957.09  1020.71  1243.69  1692.99
                             1729.61  1977.60  1999.10  2118.47  5516.36

 Zero-point correction=                           0.037813 (Hartree/Particle)
 Thermal correction to Energy=                    0.045309
 Thermal correction to Enthalpy=                  0.046253
 Thermal correction to Gibbs Free Energy=         0.005381
 Sum of electronic and zero-point Energies=           -961.952210
 Sum of electronic and thermal Energies=              -961.944715
 Sum of electronic and thermal Enthalpies=            -961.943770
 Sum of electronic and thermal Free Energies=         -961.984643

                     E (Thermal)             CV                S
                      KCal/Mol        Cal/Mol-Kelvin    Cal/Mol-Kelvin
 Total                   28.432             25.775             86.024
 Electronic               0.000              0.000              0.000
 Translational            0.889              2.981             40.926
 Rotational               0.889              2.981             28.317
 Vibrational             26.654             19.813             16.781
 Vibration     1          0.605              1.944              3.335
 Vibration     2          0.616              1.911              2.767
 Vibration     3          0.629              1.868              2.336
 Vibration     4          0.668              1.745              1.659
 Vibration     5          0.707              1.632              1.302
 Vibration     6          0.746              1.524              1.061
 Vibration     7          0.763              1.477              0.975
 Vibration     8          0.799              1.385              0.830
 Vibration     9          0.880              1.196              0.599
 Vibration    10          0.900              1.152              0.556
 Vibration    11          0.980              0.989              0.416

 Normal termination of Gaussian 16 at Sun May 25 04:45:39 2025.
