 Gaussian 16, Revision C.01,
 Gaussian 16:  ES64L-G16RevC.01  3-Jul-2019

 ----------------------------------------------------------------------
 #P M062X/Def2TZVPP Symm(None) scf(xqc) pop(None) opt(NoFreeze,TS,CalcA
 ll,NoEigentest,MaxCycle=999)
 ----------------------------------------------------------------------

 ------------------------------
 Gaussian input prepared by ASE
 ------------------------------
 Symbolic Z-matrix:
 Charge =  0 Multiplicity = 1

 SCF Done:  E(RM062X) =  -961.978384883     A.U. after   15 cycles
 SCF Done:  E(RM062X) =  -961.988992266     A.U. after   13 cycles
 SCF Done:  E(RM062X) =  -961.989987237     A.U. after   13 cycles
 SCF Done:  E(RM062X) =  -961.990033079     A.U. after   11 cycles
 SCF Done:  E(RM062X) =  -961.990033756     A.U. after    8 cycles

 Isotropic polarizability for W=    0.000000       44.77 Bohr**3.
 End of Minotr F.D. properties file   721 does not exist.

 Optimization completed.
    -- Stationary point found.

                          Input orientation:
 ---------------------------------------------------------------------
 Center     Atomic      Atomic             Coordinates (Angstroms)
 Number     Number       Type             X           Y           Z
 ---------------------------------------------------------------------
      1          6           0        0.730169   -1.680850    0.070897
      2          9           0        0.002002   -0.002340    0.023730
      3          9           0        0.250032   -2.176455    1.141690
      4          9           0        0.220829   -2.247604   -0.949066
      5         16           0        1.821472   -0.025264   -0.008635
      6          8           0        2.346354   -0.210114    1.305373
      7          8           0        2.383252   -0.349086   -1.271137
      8          8           0        1.712360    1.556925   -0.141100
      9          1           0        1.508474    1.931713    0.725595
 ---------------------------------------------------------------------

 ******    1 imaginary frequencies (negative Signs) ******

                      1                      2                      3
                      A                      A                      A
 Frequencies --   -418.0891               106.9528               143.4285
 Red. masses --     15.3546                 9.0017                15.7470
 Frc consts  --      1.5813                 0.0607                 0.1909
 IR Inten    --     11.2452                 5.2838                 0.8282

                      4                      5                      6
                      A                      A                      A
 Frequencies --    180.2860               260.8154               322.1060
 Red. masses --     12.8774                 4.0404                 2.8916
 Frc consts  --      0.2466                 0.1619                 0.1768
 IR Inten    --     27.9616                27.8536                41.0725

                      7                      8                      9
                      A                      A                      A
 Frequencies --    374.8965               397.4345               438.9011
 Red. masses --      5.7493                 5.0455                 8.2696
 Frc consts  --      0.4761                 0.4696                 0.9386
 IR Inten    --     31.7511                15.7901                 4.5024

                     10                     11                     12
                      A                      A                      A
 Frequencies --    525.5496               545.5148               621.0101
 Red. masses --      5.4505                14.9976                17.3241
 Frc consts  --      0.8870                 2.6296                 3.9364
 IR Inten    --     20.3062                15.0349               301.3402

                     13                     14                     15
                      A                      A                      A
 Frequencies --    665.5317               709.5314               865.9744
 Red. masses --     12.8841                16.6096                16.6785
 Frc consts  --      3.3623                 4.9267                 7.3692
 IR Inten    --    146.6884                 7.3533               384.3672

                     16                     17                     18
                      A                      A                      A
 Frequencies --   1178.3169              1202.1856              1374.2220
 Red. masses --     15.8035                 1.2135                13.7090
 Frc consts  --     12.9279                 1.0333                15.2535
 IR Inten    --    133.3333                94.0555               145.5455

                     19                     20                     21
                      A                      A                      A
 Frequencies --   1389.9402              1474.8989              3832.5008
 Red. masses --     13.0870                12.6701                 1.0656
 Frc consts  --     14.8964                16.2388                 9.2218
 IR Inten    --    164.7666               402.6082               135.9573

 - Thermochemistry -
 -------------------
 Temperature   298.150 Kelvin.  Pressure   1.00000 Atm.
 Atom     1 has atomic number  6 and mass  12.00000

 Molecular mass:   149.95985 amu.
 Principal axes and moments of inertia in atomic units:
                           1         2         3
     Eigenvalues --   578.294361214.032291318.42745
           X            0.53338  -0.02132   0.84561
           Y            0.84489   0.06161  -0.53138
           Z           -0.04077   0.99787   0.05088
 This molecule is an asymmetric top.
 Rotational symmetry number  1.
 Warning -- assumption of classical behavior for rotation
           may cause significant error
 Rotational temperatures (Kelvin)      0.14977     0.07134     0.06569
 Rotational constants (GHZ):           3.12080     1.48657     1.36886
    1 imaginary frequencies ignored.
 Zero-point vibrational energy      99349.8 (Joules/Mol)
                                   23.74518 (Kcal/Mol)
 Warning -- explicit consideration of  10 degrees of freedom as
           vibrations may cause significant error
 Vibrational temperatures:    153.88   206.36   259.39   375.26   463.44
          (Kelvin)            539.39   571.82   631.48   756.15   784.87
                              893.49   957.55  1020.86  1245.94  1695.34
                             1729.68  1977.20  1999.81  2122.05  5514.11

 Zero-point correction=                           0.037840 (Hartree/Particle)
 Thermal correction to Energy=                    0.045327
 Thermal correction to Enthalpy=                  0.046271
 Thermal correction to Gibbs Free Energy=         0.005422
 Sum of electronic and zero-point Energies=           -961.952193
 Sum of electronic and thermal Energies=              -961.944707
 Sum of electronic and thermal Enthalpies=            -961.943762
 Sum of electronic and thermal Free Energies=         -961.984612

                     E (Thermal)             CV                S
                      KCal/Mol        Cal/Mol-Kelvin    Cal/Mol-Kelvin
 Total                   28.443             25.758             85.975
 Electronic               0.000              0.000              0.000
 Translational            0.889              2.981             40.926
 Rotational               0.889              2.981             28.317
 Vibrational             26.666             19.796             16.732
 Vibration     1          0.606              1.944              3.323
 Vibration     2          0.616              1.910              2.758
 Vibration     3          0.629              1.866              2.325
 Vibration     4          0.669              1.744              1.656
 Vibration     5          0.707              1.631              1.299
 Vibration     6          0.746              1.524              1.060
 Vibration     7          0.764              1.476              0.972
 Vibration     8          0.799              1.385              0.830
 Vibration     9          0.881              1.193              0.597
 Vibration    10          0.901              1.150              0.554

 Normal termination of Gaussian 16 at Sun May 25 04:42:07 2025.
