 Gaussian 16, Revision C.01,
 Gaussian 16:  ES64L-G16RevC.01  3-Jul-2019

 ----------------------------------------------------------------------
 #P M062X/Def2TZVPP Symm(None) scf(xqc) pop(None) opt(NoFreeze,TS,CalcA
 ll,NoEigentest,MaxCycle=999)
 ----------------------------------------------------------------------

 ------------------------------
 Gaussian input prepared by ASE
 ------------------------------
 Symbolic Z-matrix:
 Charge =  0 Multiplicity = 1

 SCF Done:  E(RM062X) =  -961.972521559     A.U. after   15 cycles
 SCF Done:  E(RM062X) =  -961.985954649     A.U. after   14 cycles
 SCF Done:  E(RM062X) =  -961.988279543     A.U. after   14 cycles
 SCF Done:  E(RM062X) =  -961.989750962     A.U. after   13 cycles
 SCF Done:  E(RM062X) =  -961.990017938     A.U. after   12 cycles
 SCF Done:  E(RM062X) =  -961.990025191     A.U. after   10 cycles
 SCF Done:  E(RM062X) =  -961.990025213     A.U. after    6 cycles

 Isotropic polarizability for W=    0.000000       44.79 Bohr**3.
 End of Minotr F.D. properties file   721 does not exist.

 Optimization completed.
    -- Stationary point found.

                          Input orientation:
 ---------------------------------------------------------------------
 Center     Atomic      Atomic             Coordinates (Angstroms)
 Number     Number       Type             X           Y           Z
 ---------------------------------------------------------------------
      1          6           0        0.723110   -1.614214    0.089973
      2          9           0        0.231000    0.148523    0.085126
      3          9           0        0.274446   -2.038471    1.204235
      4          9           0        0.054110   -2.105961   -0.875187
      5         16           0        2.020382   -0.124966   -0.103587
      6          8           0        2.628146   -0.381269    1.161806
      7          8           0        2.419494   -0.522455   -1.406353
      8          8           0        2.118457    1.457239   -0.244156
      9          1           0        2.042980    1.856187    0.632391
 ---------------------------------------------------------------------

 ******    1 imaginary frequencies (negative Signs) ******

                      1                      2                      3
                      A                      A                      A
 Frequencies --   -419.0076               103.5016               142.7022
 Red. masses --     15.3619                 8.1768                15.0826
 Frc consts  --      1.5891                 0.0516                 0.1810
 IR Inten    --     11.1348                 6.3217                 0.9908

                      4                      5                      6
                      A                      A                      A
 Frequencies --    179.2312               253.3035               314.8936
 Red. masses --     12.1620                 3.1007                 2.9514
 Frc consts  --      0.2302                 0.1172                 0.1724
 IR Inten    --     27.3660                36.7010                37.5268

                      7                      8                      9
                      A                      A                      A
 Frequencies --    372.7573               393.3561               437.7170
 Red. masses --      5.7890                 7.0886                 9.8671
 Frc consts  --      0.4739                 0.6462                 1.1139
 IR Inten    --     24.5313                20.5554                 3.6449

                     10                     11                     12
                      A                      A                      A
 Frequencies --    524.3289               544.9543               620.2202
 Red. masses --      5.5331                15.7609                17.5029
 Frc consts  --      0.8963                 2.7577                 3.9669
 IR Inten    --     20.3718                14.8947               301.7876

                     13                     14                     15
                      A                      A                      A
 Frequencies --    664.7823               709.3227               865.5935
 Red. masses --     13.0824                16.6347                16.7070
 Frc consts  --      3.4064                 4.9312                 7.3752
 IR Inten    --    145.3279                 7.0458               384.0082

                     16                     17                     18
                      A                      A                      A
 Frequencies --   1178.4078              1199.4687              1374.3720
 Red. masses --     15.8252                 1.2136                13.7133
 Frc consts  --     12.9476                 1.0287                15.2617
 IR Inten    --    133.1457                93.1592               146.1145

                     19                     20                     21
                      A                      A                      A
 Frequencies --   1389.4456              1474.5000              3835.6416
 Red. masses --     13.0953                12.7475                 1.0656
 Frc consts  --     14.8952                16.3292                 9.2370
 IR Inten    --    164.3511               402.6078               136.0793

 - Thermochemistry -
 -------------------
 Temperature   298.150 Kelvin.  Pressure   1.00000 Atm.
 Atom     1 has atomic number  6 and mass  12.00000

 Molecular mass:   149.95985 amu.
 Principal axes and moments of inertia in atomic units:
                           1         2         3
     Eigenvalues --   578.320801214.065231318.42281
           X            0.63877   0.07456   0.76578
           Y            0.76328   0.06386  -0.64291
           Z           -0.09684   0.99517  -0.01612
 This molecule is an asymmetric top.
 Rotational symmetry number  1.
 Warning -- assumption of classical behavior for rotation
           may cause significant error
 Rotational temperatures (Kelvin)      0.14977     0.07134     0.06570
 Rotational constants (GHZ):           3.12066     1.48653     1.36886
    1 imaginary frequencies ignored.
 Zero-point vibrational energy      99161.5 (Joules/Mol)
                                   23.70016 (Kcal/Mol)
 Warning -- explicit consideration of  11 degrees of freedom as
           vibrations may cause significant error
 Vibrational temperatures:    148.92   205.32   257.87   364.45   453.06
          (Kelvin)            536.31   565.95   629.78   754.39   784.07
                              892.36   956.47  1020.56  1245.40  1695.47
                             1725.77  1977.41  1999.10  2121.48  5518.63

 Zero-point correction=                           0.037769 (Hartree/Particle)
 Thermal correction to Energy=                    0.045293
 Thermal correction to Enthalpy=                  0.046238
 Thermal correction to Gibbs Free Energy=         0.005289
 Sum of electronic and zero-point Energies=           -961.952257
 Sum of electronic and thermal Energies=              -961.944732
 Sum of electronic and thermal Enthalpies=            -961.943788
 Sum of electronic and thermal Free Energies=         -961.984736

                     E (Thermal)             CV                S
                      KCal/Mol        Cal/Mol-Kelvin    Cal/Mol-Kelvin
 Total                   28.422             25.815             86.183
 Electronic               0.000              0.000              0.000
 Translational            0.889              2.981             40.926
 Rotational               0.889              2.981             28.317
 Vibrational             26.645             19.854             16.940
 Vibration     1          0.605              1.946              3.387
 Vibration     2          0.616              1.911              2.767
 Vibration     3          0.629              1.868              2.336
 Vibration     4          0.664              1.757              1.707
 Vibration     5          0.702              1.645              1.336
 Vibration     6          0.744              1.528              1.068
 Vibration     7          0.761              1.484              0.987
 Vibration     8          0.798              1.388              0.834
 Vibration     9          0.879              1.196              0.600
 Vibration    10          0.900              1.151              0.555
 Vibration    11          0.980              0.989              0.416

 Normal termination of Gaussian 16 at Sun May 25 04:46:21 2025.
