 Gaussian 16, Revision C.01,
 Gaussian 16:  ES64L-G16RevC.01  3-Jul-2019

 ----------------------------------------------------------------------
 #P M062X/Def2TZVPP Symm(None) scf(xqc) pop(None) opt(NoFreeze,TS,CalcA
 ll,NoEigentest,MaxCycle=999)
 ----------------------------------------------------------------------

 ------------------------------
 Gaussian input prepared by ASE
 ------------------------------
 Symbolic Z-matrix:
 Charge =  0 Multiplicity = 1

 SCF Done:  E(RM062X) =  -961.922037083     A.U. after   21 cycles
 SCF Done:  E(RM062X) =  -961.922712100     A.U. after   16 cycles
 SCF Done:  E(RM062X) =  -961.922717240     A.U. after   13 cycles

 Isotropic polarizability for W=    0.000000       53.16 Bohr**3.
 End of Minotr F.D. properties file   721 does not exist.

 Optimization completed.
    -- Stationary point found.

                          Input orientation:
 ---------------------------------------------------------------------
 Center     Atomic      Atomic             Coordinates (Angstroms)
 Number     Number       Type             X           Y           Z
 ---------------------------------------------------------------------
      1          6           0        0.013312    0.013164   -0.001295
      2          9           0       -0.318065    0.531960   -1.181331
      3          9           0       -0.562367    0.735057    0.944649
      4          9           0       -0.442713   -1.231641    0.047804
      5         16           0        2.018664   -0.037385    0.002614
      6          8           0        1.878086   -0.516663    1.437318
      7          8           0        3.460622   -0.293593    0.577224
      8          8           0        2.006099    1.563124   -0.004868
      9          1           0        2.861149    1.885018    0.310156
 ---------------------------------------------------------------------

 ******    1 imaginary frequencies (negative Signs) ******

                      1                      2                      3
                      A                      A                      A
 Frequencies --   -979.4566                80.3020               156.6203
 Red. masses --     17.8548                13.7999                13.1756
 Frc consts  --     10.0920                 0.0524                 0.1904
 IR Inten    --    564.4961                 0.4220                 1.5738

                      4                      5                      6
                      A                      A                      A
 Frequencies --    169.2696               220.9664               288.1757
 Red. masses --      8.6419                 4.3354                 3.5488
 Frc consts  --      0.1459                 0.1247                 0.1736
 IR Inten    --      2.7268                21.3416                35.9091

                      7                      8                      9
                      A                      A                      A
 Frequencies --    300.5441               328.2916               400.8953
 Red. masses --      3.0286                 4.7891                11.7077
 Frc consts  --      0.1612                 0.3041                 1.1086
 IR Inten    --     28.4458                24.2805                10.7171

                     10                     11                     12
                      A                      A                      A
 Frequencies --    465.6968               536.9939               554.5693
 Red. masses --      7.3953                17.3398                17.6449
 Frc consts  --      0.9450                 2.9460                 3.1973
 IR Inten    --     32.3988                 1.0438                 0.7048

                     13                     14                     15
                      A                      A                      A
 Frequencies --    743.5486               802.3590               865.0410
 Red. masses --     16.7003                16.5829                17.2812
 Frc consts  --      5.4399                 6.2900                 7.6190
 IR Inten    --     45.0536                58.7945               155.5316

                     16                     17                     18
                      A                      A                      A
 Frequencies --   1097.4811              1120.6014              1161.6165
 Red. masses --      8.5684                12.1655                 1.3234
 Frc consts  --      6.0806                 9.0008                 1.0522
 IR Inten    --     36.3421               484.6505               177.9614

                     19                     20                     21
                      A                      A                      A
 Frequencies --   1233.5667              1275.4914              3822.4924
 Red. masses --     10.9151                10.3412                 1.0656
 Frc consts  --      9.7859                 9.9124                 9.1735
 IR Inten    --    216.3953               237.3931               162.7901

 - Thermochemistry -
 -------------------
 Temperature   298.150 Kelvin.  Pressure   1.00000 Atm.
 Atom     1 has atomic number  6 and mass  12.00000

 Molecular mass:   149.95985 amu.
 Principal axes and moments of inertia in atomic units:
                           1         2         3
     Eigenvalues --   571.773831282.015081431.34147
           X            0.98303   0.07401  -0.16787
           Y            0.01478   0.88008   0.47460
           Z            0.18287  -0.46903   0.86405
 This molecule is an asymmetric top.
 Rotational symmetry number  1.
 Warning -- assumption of classical behavior for rotation
           may cause significant error
 Rotational temperatures (Kelvin)      0.15148     0.06756     0.06051
 Rotational constants (GHZ):           3.15639     1.40774     1.26087
    1 imaginary frequencies ignored.
 Zero-point vibrational energy      93455.4 (Joules/Mol)
                                   22.33638 (Kcal/Mol)
 Warning -- explicit consideration of  11 degrees of freedom as
           vibrations may cause significant error
 Vibrational temperatures:    115.54   225.34   243.54   317.92   414.62
          (Kelvin)            432.42   472.34   576.80   670.03   772.61
                              797.90  1069.80  1154.42  1244.60  1579.03
                             1612.30  1671.31  1774.83  1835.15  5499.71

 Zero-point correction=                           0.035595 (Hartree/Particle)
 Thermal correction to Energy=                    0.043487
 Thermal correction to Enthalpy=                  0.044431
 Thermal correction to Gibbs Free Energy=         0.002583
 Sum of electronic and zero-point Energies=           -961.887122
 Sum of electronic and thermal Energies=              -961.879230
 Sum of electronic and thermal Enthalpies=            -961.878286
 Sum of electronic and thermal Free Energies=         -961.920135

                     E (Thermal)             CV                S
                      KCal/Mol        Cal/Mol-Kelvin    Cal/Mol-Kelvin
 Total                   27.288             26.654             88.077
 Electronic               0.000              0.000              0.000
 Translational            0.889              2.981             40.926
 Rotational               0.889              2.981             28.441
 Vibrational             25.511             20.692             18.710
 Vibration     1          0.600              1.963              3.883
 Vibration     2          0.620              1.895              2.590
 Vibration     3          0.625              1.880              2.444
 Vibration     4          0.648              1.809              1.951
 Vibration     5          0.685              1.696              1.485
 Vibration     6          0.693              1.673              1.414
 Vibration     7          0.712              1.619              1.268
 Vibration     8          0.767              1.468              0.959
 Vibration     9          0.823              1.326              0.750
 Vibration    10          0.892              1.168              0.572
 Vibration    11          0.910              1.130              0.535

 Normal termination of Gaussian 16 at Sun May 25 05:37:48 2025.
