 Gaussian 16, Revision C.01,
 Gaussian 16:  ES64L-G16RevC.01  3-Jul-2019

 ----------------------------------------------------------------------
 #P M062X/Def2TZVPP Symm(None) scf(xqc) pop(None) opt(NoFreeze,TS,CalcA
 ll,NoEigentest,MaxCycle=999)
 ----------------------------------------------------------------------

 ------------------------------
 Gaussian input prepared by ASE
 ------------------------------
 Symbolic Z-matrix:
 Charge =  0 Multiplicity = 1

 SCF Done:  E(RM062X) =  -961.919602307     A.U. after   22 cycles
 SCF Done:  E(RM062X) =  -961.920697103     A.U. after   18 cycles
 SCF Done:  E(RM062X) =  -961.920887931     A.U. after   17 cycles
 SCF Done:  E(RM062X) =  -961.921543428     A.U. after   21 cycles
 SCF Done:  E(RM062X) =  -961.922617519     A.U. after   18 cycles
 SCF Done:  E(RM062X) =  -961.922704312     A.U. after   16 cycles
 SCF Done:  E(RM062X) =  -961.922705620     A.U. after   12 cycles

 Isotropic polarizability for W=    0.000000       53.17 Bohr**3.
 End of Minotr F.D. properties file   721 does not exist.

 Optimization completed.
    -- Stationary point found.

                          Input orientation:
 ---------------------------------------------------------------------
 Center     Atomic      Atomic             Coordinates (Angstroms)
 Number     Number       Type             X           Y           Z
 ---------------------------------------------------------------------
      1          6           0       -0.107684   -0.093509   -0.054289
      2          9           0       -0.428619    0.449872   -1.226145
      3          9           0       -0.810019    0.510874    0.888498
      4          9           0       -0.426653   -1.380669   -0.092045
      5         16           0        1.887871    0.067837    0.067117
      6          8           0        1.722833   -0.495596    1.468168
      7          8           0        3.316176   -0.064418    0.713724
      8          8           0        1.703185    1.656444    0.130711
      9          1           0        2.499490    2.049619    0.511899
 ---------------------------------------------------------------------

 ******    1 imaginary frequencies (negative Signs) ******

                      1                      2                      3
                      A                      A                      A
 Frequencies --   -978.7251                78.0171               154.4746
 Red. masses --     17.8688                13.8510                13.1519
 Frc consts  --     10.0848                 0.0497                 0.1849
 IR Inten    --    562.0140                 0.3980                 1.6063

                      4                      5                      6
                      A                      A                      A
 Frequencies --    167.9424               220.4339               287.5262
 Red. masses --      8.6180                 4.3184                 3.5717
 Frc consts  --      0.1432                 0.1236                 0.1740
 IR Inten    --      2.8089                21.4463                35.5842

                      7                      8                      9
                      A                      A                      A
 Frequencies --    299.5313               327.6982               400.7580
 Red. masses --      3.0288                 4.7652                11.7493
 Frc consts  --      0.1601                 0.3015                 1.1118
 IR Inten    --     28.3198                24.4091                10.8712

                     10                     11                     12
                      A                      A                      A
 Frequencies --    464.5256               536.8883               554.7396
 Red. masses --      7.3958                17.3562                17.6455
 Frc consts  --      0.9403                 2.9476                 3.1993
 IR Inten    --     32.2539                 1.0360                 0.7139

                     13                     14                     15
                      A                      A                      A
 Frequencies --    743.1524               801.6546               865.4674
 Red. masses --     16.6982                16.5621                17.2589
 Frc consts  --      5.4335                 6.2710                 7.6167
 IR Inten    --     45.0931                59.1397               155.5510

                     16                     17                     18
                      A                      A                      A
 Frequencies --   1098.4305              1120.5546              1162.1013
 Red. masses --      8.5586                12.1842                 1.3238
 Frc consts  --      6.0841                 9.0139                 1.0533
 IR Inten    --     35.6434               484.9005               178.4301

                     19                     20                     21
                      A                      A                      A
 Frequencies --   1233.1735              1274.8451              3824.4932
 Red. masses --     10.9398                10.3015                 1.0656
 Frc consts  --      9.8019                 9.8643                 9.1831
 IR Inten    --    216.6195               237.1262               162.7025

 - Thermochemistry -
 -------------------
 Temperature   298.150 Kelvin.  Pressure   1.00000 Atm.
 Atom     1 has atomic number  6 and mass  12.00000

 Molecular mass:   149.95985 amu.
 Principal axes and moments of inertia in atomic units:
                           1         2         3
     Eigenvalues --   571.817691282.183731431.40025
           X            0.96423   0.00372  -0.26505
           Y            0.10906   0.90579   0.40944
           Z            0.24161  -0.42370   0.87299
 This molecule is an asymmetric top.
 Rotational symmetry number  1.
 Warning -- assumption of classical behavior for rotation
           may cause significant error
 Rotational temperatures (Kelvin)      0.15147     0.06755     0.06051
 Rotational constants (GHZ):           3.15615     1.40755     1.26082
    1 imaginary frequencies ignored.
 Zero-point vibrational energy      93406.9 (Joules/Mol)
                                   22.32478 (Kcal/Mol)
 Warning -- explicit consideration of  11 degrees of freedom as
           vibrations may cause significant error
 Vibrational temperatures:    112.25   222.25   241.63   317.16   413.69
          (Kelvin)            430.96   471.48   576.60   668.35   772.46
                              798.15  1069.23  1153.40  1245.21  1580.40
                             1612.23  1672.00  1774.26  1834.22  5502.59

 Zero-point correction=                           0.035577 (Hartree/Particle)
 Thermal correction to Energy=                    0.043484
 Thermal correction to Enthalpy=                  0.044428
 Thermal correction to Gibbs Free Energy=         0.002523
 Sum of electronic and zero-point Energies=           -961.887129
 Sum of electronic and thermal Energies=              -961.879222
 Sum of electronic and thermal Enthalpies=            -961.878278
 Sum of electronic and thermal Free Energies=         -961.920183

                     E (Thermal)             CV                S
                      KCal/Mol        Cal/Mol-Kelvin    Cal/Mol-Kelvin
 Total                   27.286             26.668             88.196
 Electronic               0.000              0.000              0.000
 Translational            0.889              2.981             40.926
 Rotational               0.889              2.981             28.442
 Vibrational             25.509             20.706             18.829
 Vibration     1          0.599              1.964              3.940
 Vibration     2          0.620              1.898              2.616
 Vibration     3          0.625              1.882              2.458
 Vibration     4          0.647              1.810              1.956
 Vibration     5          0.685              1.697              1.488
 Vibration     6          0.692              1.675              1.420
 Vibration     7          0.711              1.620              1.271
 Vibration     8          0.767              1.468              0.960
 Vibration     9          0.822              1.329              0.753
 Vibration    10          0.892              1.168              0.572
 Vibration    11          0.910              1.129              0.534

 Normal termination of Gaussian 16 at Sun May 25 05:45:24 2025.
