 Gaussian 16, Revision C.01,
 Gaussian 16:  ES64L-G16RevC.01  3-Jul-2019

 ------------------------------------------
 #P am1 Symm(None) scf(xqc) pop(None) force
 ------------------------------------------

 ------------------------------
 Gaussian input prepared by ASE
 ------------------------------
 Symbolic Z-matrix:
 Charge =  0 Multiplicity = 1

                          Input orientation:
 ---------------------------------------------------------------------
 Center     Atomic      Atomic             Coordinates (Angstroms)
 Number     Number       Type             X           Y           Z
 ---------------------------------------------------------------------
      1          6           0        1.648516    0.102490   -0.110565
      2          9           0       -0.410565    0.530727    0.204779
      3          9           0        1.653331   -0.685410    0.869348
      4          9           0        1.383562   -0.514465   -1.170287
      5         16           0        2.144681    1.980723    0.004883
      6          8           0        3.312673    1.847815    0.804926
      7          8           0        2.268409    2.284298   -1.375428
      8          8           0        0.902524    2.332176    0.656957
      9          1           0       -0.422785    1.449340    0.492965
 ---------------------------------------------------------------------

 SCF Done:  E(RAM1) =   1.64360765133     A.U. after   14 cycles
 Normal termination of Gaussian 16 at Sun May 25 05:39:40 2025.
