 Gaussian 16, Revision C.01,
 Gaussian 16:  ES64L-G16RevC.01  3-Jul-2019

 ----------------------------------------------------------------------
 #P M062X/Def2TZVPP Symm(None) scf(xqc) pop(None) opt(NoFreeze,TS,CalcA
 ll,NoEigentest,MaxCycle=999)
 ----------------------------------------------------------------------

 ------------------------------
 Gaussian input prepared by ASE
 ------------------------------
 Symbolic Z-matrix:
 Charge =  0 Multiplicity = 1

 SCF Done:  E(RM062X) =  -961.917310492     A.U. after   22 cycles
 SCF Done:  E(RM062X) =  -961.919573464     A.U. after   17 cycles
 SCF Done:  E(RM062X) =  -961.920433541     A.U. after   17 cycles
 SCF Done:  E(RM062X) =  -961.920553221     A.U. after   15 cycles
 SCF Done:  E(RM062X) =  -961.920554250     A.U. after   11 cycles

 Isotropic polarizability for W=    0.000000       53.05 Bohr**3.
 End of Minotr F.D. properties file   721 does not exist.

 Optimization completed.
    -- Stationary point found.

                          Input orientation:
 ---------------------------------------------------------------------
 Center     Atomic      Atomic             Coordinates (Angstroms)
 Number     Number       Type             X           Y           Z
 ---------------------------------------------------------------------
      1          6           0        0.042398    0.013351   -0.011913
      2          9           0       -0.233976    0.581081   -1.205658
      3          9           0       -0.563932    0.749577    0.908730
      4          9           0       -0.463729   -1.206472   -0.010397
      5         16           0        2.081473   -0.085969   -0.003323
      6          8           0        1.870211   -0.384930    1.467364
      7          8           0        3.475722   -0.346845    0.625350
      8          8           0        2.214397    1.501777   -0.170456
      9          1           0        1.474773    1.861041   -0.679927
 ---------------------------------------------------------------------

 ******    1 imaginary frequencies (negative Signs) ******

                      1                      2                      3
                      A                      A                      A
 Frequencies --   -906.2435                65.7141               153.1694
 Red. masses --     18.0007                11.4044                12.6243
 Frc consts  --      8.7102                 0.0290                 0.1745
 IR Inten    --    476.9069                 1.1286                 6.6007

                      4                      5                      6
                      A                      A                      A
 Frequencies --    177.2118               224.8748               281.9545
 Red. masses --     16.0925                17.3245                 7.8190
 Frc consts  --      0.2978                 0.5162                 0.3662
 IR Inten    --      2.8970                 8.8275                 4.4343

                      7                      8                      9
                      A                      A                      A
 Frequencies --    305.2029               331.0498               405.0556
 Red. masses --      2.4464                 2.7937                 4.6330
 Frc consts  --      0.1343                 0.1804                 0.4479
 IR Inten    --     58.4557                36.8216                 9.9355

                     10                     11                     12
                      A                      A                      A
 Frequencies --    475.7934               531.1220               549.7942
 Red. masses --      8.7954                17.9653                16.0181
 Frc consts  --      1.1731                 2.9859                 2.8527
 IR Inten    --      8.1760                 0.3447                 0.5924

                     13                     14                     15
                      A                      A                      A
 Frequencies --    733.7154               850.6478               866.8523
 Red. masses --     16.8732                16.1784                14.3963
 Frc consts  --      5.3518                 6.8974                 6.3737
 IR Inten    --     27.6427                82.9473                88.3496

                     16                     17                     18
                      A                      A                      A
 Frequencies --   1106.7478              1120.7604              1158.3688
 Red. masses --      9.8213                 6.7288                 2.0001
 Frc consts  --      7.0879                 4.9798                 1.5812
 IR Inten    --    422.6544               128.5143               218.2133

                     19                     20                     21
                      A                      A                      A
 Frequencies --   1204.2480              1275.1369              3811.3005
 Red. masses --      2.9806                12.9451                 1.0660
 Frc consts  --      2.5468                12.4014                 9.1236
 IR Inten    --    150.1426               272.8238               139.8333

 - Thermochemistry -
 -------------------
 Temperature   298.150 Kelvin.  Pressure   1.00000 Atm.
 Atom     1 has atomic number  6 and mass  12.00000

 Molecular mass:   149.95985 amu.
 Principal axes and moments of inertia in atomic units:
                           1         2         3
     Eigenvalues --   575.795881296.715271452.10934
           X            0.98384   0.10320  -0.14630
           Y            0.00168   0.81180   0.58393
           Z            0.17903  -0.57474   0.79851
 This molecule is an asymmetric top.
 Rotational symmetry number  1.
 Warning -- assumption of classical behavior for rotation
           may cause significant error
 Rotational temperatures (Kelvin)      0.15042     0.06679     0.05965
 Rotational constants (GHZ):           3.13434     1.39178     1.24284
    1 imaginary frequencies ignored.
 Zero-point vibrational energy      93480.5 (Joules/Mol)
                                   22.34238 (Kcal/Mol)
 Warning -- explicit consideration of  11 degrees of freedom as
           vibrations may cause significant error
 Vibrational temperatures:     94.55   220.38   254.97   323.54   405.67
          (Kelvin)            439.12   476.31   582.78   684.56   764.17
                              791.03  1055.65  1223.89  1247.21  1592.36
                             1612.52  1666.63  1732.64  1834.64  5483.61

 Zero-point correction=                           0.035605 (Hartree/Particle)
 Thermal correction to Energy=                    0.043498
 Thermal correction to Enthalpy=                  0.044442
 Thermal correction to Gibbs Free Energy=         0.002449
 Sum of electronic and zero-point Energies=           -961.884949
 Sum of electronic and thermal Energies=              -961.877056
 Sum of electronic and thermal Enthalpies=            -961.876112
 Sum of electronic and thermal Free Energies=         -961.918105

                     E (Thermal)             CV                S
                      KCal/Mol        Cal/Mol-Kelvin    Cal/Mol-Kelvin
 Total                   27.296             26.591             88.383
 Electronic               0.000              0.000              0.000
 Translational            0.889              2.981             40.926
 Rotational               0.889              2.981             28.474
 Vibrational             25.518             20.629             18.983
 Vibration     1          0.597              1.971              4.278
 Vibration     2          0.619              1.899              2.632
 Vibration     3          0.628              1.870              2.358
 Vibration     4          0.650              1.803              1.919
 Vibration     5          0.681              1.707              1.522
 Vibration     6          0.696              1.664              1.388
 Vibration     7          0.713              1.613              1.255
 Vibration     8          0.770              1.459              0.944
 Vibration     9          0.832              1.304              0.721
 Vibration    10          0.886              1.181              0.585
 Vibration    11          0.905              1.140              0.545

 Normal termination of Gaussian 16 at Sun May 25 05:42:42 2025.
