 Gaussian 16, Revision C.01,
 Gaussian 16:  ES64L-G16RevC.01  3-Jul-2019

 -----------------------------------------------------------------
 #P M062X/Def2TZVPP Symm(None) scf(xqc) pop(None) freq opt(CalcFC)
 -----------------------------------------------------------------

 ------------------------------
 Gaussian input prepared by ASE
 ------------------------------
 Symbolic Z-matrix:
 Charge =  0 Multiplicity = 1

 SCF Done:  E(RM062X) =  -962.121673733     A.U. after   13 cycles
 SCF Done:  E(RM062X) =  -962.125062349     A.U. after   13 cycles
 SCF Done:  E(RM062X) =  -962.125548201     A.U. after   11 cycles
 SCF Done:  E(RM062X) =  -962.125618464     A.U. after   10 cycles
 SCF Done:  E(RM062X) =  -962.125631729     A.U. after    8 cycles
 SCF Done:  E(RM062X) =  -962.125695476     A.U. after    9 cycles
 SCF Done:  E(RM062X) =  -962.125831744     A.U. after   10 cycles
 SCF Done:  E(RM062X) =  -962.125875144     A.U. after    8 cycles
 SCF Done:  E(RM062X) =  -962.125893450     A.U. after    9 cycles
 SCF Done:  E(RM062X) =  -962.125895289     A.U. after    8 cycles
 Optimization completed.
    -- Stationary point found.
 Normal termination of Gaussian 16 at Sun May 25 03:19:28 2025.

 ---------------------------------------------------------------------
 #P Geom=AllCheck Guess=TCheck SCRF=Check GenChk RM062X/def2TZVPP Freq
 ---------------------------------------------------------------------

 Structure from the checkpoint file:  "/tmp/Gau-295086.chk"
 ------------------------------
 Gaussian input prepared by ASE
 ------------------------------
 Charge =  0 Multiplicity = 1

                          Input orientation:
 ---------------------------------------------------------------------
 Center     Atomic      Atomic             Coordinates (Angstroms)
 Number     Number       Type             X           Y           Z
 ---------------------------------------------------------------------
      1          6           0        0.063560    0.043979    0.000772
      2          9           0       -0.287567    0.748944   -1.066360
      3          9           0       -0.409523    0.629990    1.083324
      4          9           0       -0.429355   -1.175304   -0.096957
      5         16           0        1.898933   -0.060091    0.081178
      6          8           0        2.231070   -0.607798    1.338786
      7          8           0        2.331973   -0.603005   -1.155979
      8          8           0        2.238462    1.474857    0.122438
      9          1           0        2.385452    1.807516   -0.774778
 ---------------------------------------------------------------------

 SCF Done:  E(RM062X) =  -962.125895289     A.U. after    1 cycles

 Isotropic polarizability for W=    0.000000       41.22 Bohr**3.
 End of Minotr F.D. properties file   721 does not exist.

                      1                      2                      3
                      A                      A                      A
 Frequencies --     61.7690               188.0292               194.6524
 Red. masses --     13.4366                 7.5559                15.5685
 Frc consts  --      0.0302                 0.1574                 0.3475
 IR Inten    --      1.4358                 9.1738                 3.5234

                      4                      5                      6
                      A                      A                      A
 Frequencies --    310.0447               324.6582               342.4486
 Red. masses --     11.8174                 3.2405                12.9445
 Frc consts  --      0.6693                 0.2012                 0.8944
 IR Inten    --      0.5430                28.2519                 2.0863

                      7                      8                      9
                      A                      A                      A
 Frequencies --    377.3016               471.1896               507.2656
 Red. masses --      1.9633                 4.3474                14.9870
 Frc consts  --      0.1647                 0.5687                 2.2721
 IR Inten    --     53.2044                27.6421                26.5577

                     10                     11                     12
                      A                      A                      A
 Frequencies --    571.3853               577.0479               632.0993
 Red. masses --     15.7184                16.3610                19.9218
 Frc consts  --      3.0235                 3.2098                 4.6897
 IR Inten    --      0.7896                 2.8678               159.5088

                     13                     14                     15
                      A                      A                      A
 Frequencies --    794.7154               907.4887              1141.1946
 Red. masses --     17.7088                17.6037                 1.1841
 Frc consts  --      6.5897                 8.5415                 0.9085
 IR Inten    --      3.7239               218.0363                87.1098

                     16                     17                     18
                      A                      A                      A
 Frequencies --   1198.6092              1275.8663              1296.4705
 Red. masses --     14.7320                13.3770                13.4061
 Frc consts  --     12.4700                12.8298                13.2763
 IR Inten    --    267.4659               164.3419               126.6652

                     19                     20                     21
                      A                      A                      A
 Frequencies --   1309.5123              1505.0805              3809.2774
 Red. masses --     15.2124                15.4049                 1.0657
 Frc consts  --     15.3697                20.5603                 9.1111
 IR Inten    --    241.2383               292.8017               186.3276

 - Thermochemistry -
 -------------------
 Temperature   298.150 Kelvin.  Pressure   1.00000 Atm.
 Atom     1 has atomic number  6 and mass  12.00000

 Molecular mass:   149.95985 amu.
 Principal axes and moments of inertia in atomic units:
                           1         2         3
     Eigenvalues --   673.818241132.057021139.46907
           X            0.99918  -0.02788  -0.02943
           Y            0.01016  -0.53061   0.84756
           Z            0.03925   0.84716   0.52989
 This molecule is an asymmetric top.
 Rotational symmetry number  1.
 Warning -- assumption of classical behavior for rotation
           may cause significant error
 Rotational temperatures (Kelvin)      0.12854     0.07651     0.07601
 Rotational constants (GHZ):           2.67838     1.59421     1.58384
 Zero-point vibrational energy     106444.4 (Joules/Mol)
                                   25.44081 (Kcal/Mol)
 Warning -- explicit consideration of  11 degrees of freedom as
           vibrations may cause significant error
 Vibrational temperatures:     88.87   270.53   280.06   446.09   467.11
          (Kelvin)            492.71   542.85   677.94   729.84   822.10
                              830.24   909.45  1143.42  1305.67  1641.92
                             1724.53  1835.69  1865.33  1884.10  2165.48
                             5480.70

 Zero-point correction=                           0.040543 (Hartree/Particle)
 Thermal correction to Energy=                    0.048002
 Thermal correction to Enthalpy=                  0.048946
 Thermal correction to Gibbs Free Energy=         0.007984
 Sum of electronic and zero-point Energies=           -962.085353
 Sum of electronic and thermal Energies=              -962.077894
 Sum of electronic and thermal Enthalpies=            -962.076949
 Sum of electronic and thermal Free Energies=         -962.117911

                     E (Thermal)             CV                S
                      KCal/Mol        Cal/Mol-Kelvin    Cal/Mol-Kelvin
 Total                   30.121             25.843             86.211
 Electronic               0.000              0.000              0.000
 Translational            0.889              2.981             40.926
 Rotational               0.889              2.981             28.254
 Vibrational             28.344             19.881             17.031
 Vibration     1          0.597              1.973              4.400
 Vibration     2          0.633              1.856              2.247
 Vibration     3          0.635              1.847              2.183
 Vibration     4          0.699              1.655              1.362
 Vibration     5          0.709              1.626              1.287
 Vibration     6          0.722              1.591              1.201
 Vibration     7          0.748              1.519              1.050
 Vibration     8          0.828              1.314              0.734
 Vibration     9          0.862              1.234              0.640
 Vibration    10          0.928              1.093              0.502
 Vibration    11          0.934              1.081              0.491

 Optimization completed.
    -- Stationary point found.
 Normal termination of Gaussian 16 at Sun May 25 03:21:24 2025.
