 Gaussian 16, Revision C.01,
 Gaussian 16:  ES64L-G16RevC.01  3-Jul-2019

 ----------------------------------------------------------------------
 #P M062X/Def2TZVPP Symm(None) scf(xqc) pop(None) opt(NoFreeze,TS,CalcA
 ll,NoEigentest,MaxCycle=999)
 ----------------------------------------------------------------------

 ------------------------------
 Gaussian input prepared by ASE
 ------------------------------
 Symbolic Z-matrix:
 Charge =  0 Multiplicity = 1

 SCF Done:  E(RM062X) =  -961.978344887     A.U. after   15 cycles
 SCF Done:  E(RM062X) =  -961.988981261     A.U. after   13 cycles
 SCF Done:  E(RM062X) =  -961.989986847     A.U. after   13 cycles
 SCF Done:  E(RM062X) =  -961.990033048     A.U. after   11 cycles
 SCF Done:  E(RM062X) =  -961.990033758     A.U. after    8 cycles

 Isotropic polarizability for W=    0.000000       44.77 Bohr**3.
 End of Minotr F.D. properties file   721 does not exist.

 Optimization completed.
    -- Stationary point found.

                          Input orientation:
 ---------------------------------------------------------------------
 Center     Atomic      Atomic             Coordinates (Angstroms)
 Number     Number       Type             X           Y           Z
 ---------------------------------------------------------------------
      1          6           0        0.730406   -1.681105    0.069520
      2          9           0        0.221890   -2.247875   -0.950845
      3          9           0        0.001820   -0.002783    0.022073
      4          9           0        0.249699   -2.176966    1.139939
      5         16           0        1.821315   -0.025218   -0.009106
      6          8           0        2.345390   -0.210082    1.305225
      7          8           0        2.384004   -0.348743   -1.271281
      8          8           0        1.711870    1.556957   -0.141458
      9          1           0        1.507336    1.931593    0.725150
 ---------------------------------------------------------------------

 ******    1 imaginary frequencies (negative Signs) ******

                      1                      2                      3
                      A                      A                      A
 Frequencies --   -418.0905               106.9202               143.4242
 Red. masses --     15.3545                 8.9865                15.7376
 Frc consts  --      1.5813                 0.0605                 0.1907
 IR Inten    --     11.2452                 5.3007                 0.8309

                      4                      5                      6
                      A                      A                      A
 Frequencies --    180.2774               260.6972               321.9799
 Red. masses --     12.8656                 4.0188                 2.8895
 Frc consts  --      0.2464                 0.1609                 0.1765
 IR Inten    --     27.9481                28.0045                41.0421

                      7                      8                      9
                      A                      A                      A
 Frequencies --    374.8580               397.3361               438.8742
 Red. masses --      5.7457                 5.0786                 8.3033
 Frc consts  --      0.4757                 0.4724                 0.9423
 IR Inten    --     31.6124                15.8749                 4.4828

                     10                     11                     12
                      A                      A                      A
 Frequencies --    525.5326               545.5071               621.0013
 Red. masses --      5.4521                15.0181                17.3280
 Frc consts  --      0.8872                 2.6331                 3.9372
 IR Inten    --     20.3010                15.0323               301.3381

                     13                     14                     15
                      A                      A                      A
 Frequencies --    665.5269               709.5365               865.9710
 Red. masses --     12.8888                16.6098                16.6790
 Frc consts  --      3.3635                 4.9268                 7.3693
 IR Inten    --    146.6607                 7.3504               384.3661

                     16                     17                     18
                      A                      A                      A
 Frequencies --   1178.3323              1202.1436              1374.2144
 Red. masses --     15.7997                 1.2135                13.7092
 Frc consts  --     12.9251                 1.0333                15.2536
 IR Inten    --    133.3191                94.0540               145.5499

                     19                     20                     21
                      A                      A                      A
 Frequencies --   1389.9525              1474.9167              3832.5572
 Red. masses --     13.0872                12.6721                 1.0656
 Frc consts  --     14.8970                16.2418                 9.2220
 IR Inten    --    164.7705               402.6078               135.9546

 - Thermochemistry -
 -------------------
 Temperature   298.150 Kelvin.  Pressure   1.00000 Atm.
 Atom     1 has atomic number  6 and mass  12.00000

 Molecular mass:   149.95985 amu.
 Principal axes and moments of inertia in atomic units:
                           1         2         3
     Eigenvalues --   578.294571214.031071318.42719
           X            0.53318  -0.02199   0.84572
           Y            0.84504   0.06149  -0.53116
           Z           -0.04032   0.99787   0.05137
 This molecule is an asymmetric top.
 Rotational symmetry number  1.
 Warning -- assumption of classical behavior for rotation
           may cause significant error
 Rotational temperatures (Kelvin)      0.14977     0.07134     0.06569
 Rotational constants (GHZ):           3.12080     1.48657     1.36886
    1 imaginary frequencies ignored.
 Zero-point vibrational energy      99347.2 (Joules/Mol)
                                   23.74456 (Kcal/Mol)
 Warning -- explicit consideration of  10 degrees of freedom as
           vibrations may cause significant error
 Vibrational temperatures:    153.83   206.36   259.38   375.09   463.26
          (Kelvin)            539.34   571.68   631.44   756.12   784.86
                              893.48   957.54  1020.86  1245.94  1695.36
                             1729.62  1977.19  1999.83  2122.08  5514.19

 Zero-point correction=                           0.037839 (Hartree/Particle)
 Thermal correction to Energy=                    0.045327
 Thermal correction to Enthalpy=                  0.046271
 Thermal correction to Gibbs Free Energy=         0.005420
 Sum of electronic and zero-point Energies=           -961.952194
 Sum of electronic and thermal Energies=              -961.944707
 Sum of electronic and thermal Enthalpies=            -961.943763
 Sum of electronic and thermal Free Energies=         -961.984614

                     E (Thermal)             CV                S
                      KCal/Mol        Cal/Mol-Kelvin    Cal/Mol-Kelvin
 Total                   28.443             25.759             85.978
 Electronic               0.000              0.000              0.000
 Translational            0.889              2.981             40.926
 Rotational               0.889              2.981             28.317
 Vibrational             26.665             19.797             16.735
 Vibration     1          0.606              1.944              3.324
 Vibration     2          0.616              1.910              2.758
 Vibration     3          0.629              1.866              2.326
 Vibration     4          0.669              1.745              1.657
 Vibration     5          0.707              1.631              1.300
 Vibration     6          0.746              1.524              1.060
 Vibration     7          0.764              1.476              0.972
 Vibration     8          0.799              1.385              0.830
 Vibration     9          0.880              1.193              0.597
 Vibration    10          0.901              1.150              0.554

 Normal termination of Gaussian 16 at Sun May 25 04:46:05 2025.
