 Gaussian 16, Revision C.01,
 Gaussian 16:  ES64L-G16RevC.01  3-Jul-2019

 ----------------------------------------------------------------------
 #P M062X/Def2TZVPP Symm(None) scf(xqc) pop(None) opt(NoFreeze,TS,CalcA
 ll,NoEigentest,MaxCycle=999)
 ----------------------------------------------------------------------

 ------------------------------
 Gaussian input prepared by ASE
 ------------------------------
 Symbolic Z-matrix:
 Charge =  0 Multiplicity = 1

 SCF Done:  E(RM062X) =  -961.983518633     A.U. after   15 cycles
 SCF Done:  E(RM062X) =  -961.989673568     A.U. after   14 cycles
 SCF Done:  E(RM062X) =  -961.990022091     A.U. after   12 cycles
 SCF Done:  E(RM062X) =  -961.990023646     A.U. after    9 cycles

 Isotropic polarizability for W=    0.000000       44.76 Bohr**3.
 End of Minotr F.D. properties file   721 does not exist.

 Optimization completed.
    -- Stationary point found.

                          Input orientation:
 ---------------------------------------------------------------------
 Center     Atomic      Atomic             Coordinates (Angstroms)
 Number     Number       Type             X           Y           Z
 ---------------------------------------------------------------------
      1          6           0        0.727530   -1.655838    0.076340
      2          9           0        0.070616    0.050142   -0.005021
      3          9           0        0.212536   -2.115383    1.146168
      4          9           0        0.209102   -2.216082   -0.943603
      5         16           0        1.887912   -0.047524    0.004702
      6          8           0        2.456055   -0.289663    1.282590
      7          8           0        2.383438   -0.362473   -1.295859
      8          8           0        1.846561    1.543369    0.006220
      9          1           0        1.644958    1.853476   -0.886185
 ---------------------------------------------------------------------

 ******    1 imaginary frequencies (negative Signs) ******

                      1                      2                      3
                      A                      A                      A
 Frequencies --   -419.3588               106.3021               142.7039
 Red. masses --     15.3511                 9.1477                15.6058
 Frc consts  --      1.5906                 0.0609                 0.1872
 IR Inten    --     11.2135                 5.2297                 0.8655

                      4                      5                      6
                      A                      A                      A
 Frequencies --    179.3013               260.3778               321.4912
 Red. masses --     12.7200                 3.9639                 2.8969
 Frc consts  --      0.2409                 0.1583                 0.1764
 IR Inten    --     27.9288                29.1428                41.3880

                      7                      8                      9
                      A                      A                      A
 Frequencies --    374.5664               396.6850               438.8744
 Red. masses --      5.7055                 5.1131                 8.2108
 Frc consts  --      0.4716                 0.4741                 0.9318
 IR Inten    --     31.5387                15.1375                 4.3824

                     10                     11                     12
                      A                      A                      A
 Frequencies --    524.5594               544.4203               620.4431
 Red. masses --      5.5163                15.2815                17.2729
 Frc consts  --      0.8943                 2.6686                 3.9176
 IR Inten    --     19.8059                15.6015               302.8468

                     13                     14                     15
                      A                      A                      A
 Frequencies --    665.2155               709.4323               864.4253
 Red. masses --     12.9156                16.6203                16.6515
 Frc consts  --      3.3674                 4.9285                 7.3309
 IR Inten    --    146.1433                 7.1717               383.0356

                     16                     17                     18
                      A                      A                      A
 Frequencies --   1176.7158              1202.1568              1374.5040
 Red. masses --     16.4384                 1.2115                13.7198
 Frc consts  --     13.4107                 1.0316                15.2717
 IR Inten    --    134.8627                91.7368               145.4195

                     19                     20                     21
                      A                      A                      A
 Frequencies --   1389.4399              1472.4472              3834.0686
 Red. masses --     13.0492                12.5416                 1.0656
 Frc consts  --     14.8428                16.0208                 9.2293
 IR Inten    --    161.1743               405.8639               135.9020

 - Thermochemistry -
 -------------------
 Temperature   298.150 Kelvin.  Pressure   1.00000 Atm.
 Atom     1 has atomic number  6 and mass  12.00000

 Molecular mass:   149.95985 amu.
 Principal axes and moments of inertia in atomic units:
                           1         2         3
     Eigenvalues --   578.278741214.015321318.43939
           X            0.56866   0.03530   0.82182
           Y            0.82178   0.01959  -0.56947
           Z           -0.03620   0.99918  -0.01787
 This molecule is an asymmetric top.
 Rotational symmetry number  1.
 Warning -- assumption of classical behavior for rotation
           may cause significant error
 Rotational temperatures (Kelvin)      0.14978     0.07134     0.06569
 Rotational constants (GHZ):           3.12088     1.48659     1.36885
    1 imaginary frequencies ignored.
 Zero-point vibrational energy      99278.9 (Joules/Mol)
                                   23.72822 (Kcal/Mol)
 Warning -- explicit consideration of  11 degrees of freedom as
           vibrations may cause significant error
 Vibrational temperatures:    152.95   205.32   257.97   374.63   462.55
          (Kelvin)            538.92   570.74   631.44   754.72   783.30
                              892.68   957.10  1020.71  1243.72  1693.03
                             1729.64  1977.60  1999.09  2118.52  5516.37

 Zero-point correction=                           0.037813 (Hartree/Particle)
 Thermal correction to Energy=                    0.045309
 Thermal correction to Enthalpy=                  0.046253
 Thermal correction to Gibbs Free Energy=         0.005380
 Sum of electronic and zero-point Energies=           -961.952210
 Sum of electronic and thermal Energies=              -961.944715
 Sum of electronic and thermal Enthalpies=            -961.943770
 Sum of electronic and thermal Free Energies=         -961.984643

                     E (Thermal)             CV                S
                      KCal/Mol        Cal/Mol-Kelvin    Cal/Mol-Kelvin
 Total                   28.432             25.775             86.024
 Electronic               0.000              0.000              0.000
 Translational            0.889              2.981             40.926
 Rotational               0.889              2.981             28.317
 Vibrational             26.654             19.814             16.782
 Vibration     1          0.605              1.944              3.335
 Vibration     2          0.616              1.910              2.767
 Vibration     3          0.629              1.868              2.336
 Vibration     4          0.668              1.745              1.659
 Vibration     5          0.707              1.632              1.303
 Vibration     6          0.746              1.524              1.061
 Vibration     7          0.763              1.477              0.975
 Vibration     8          0.799              1.385              0.830
 Vibration     9          0.880              1.196              0.599
 Vibration    10          0.900              1.152              0.556
 Vibration    11          0.980              0.989              0.416

 Normal termination of Gaussian 16 at Sun May 25 04:40:44 2025.
