 Gaussian 16, Revision C.01,
 Gaussian 16:  ES64L-G16RevC.01  3-Jul-2019

 -----------------------------------------------------------------
 #P M062X/Def2TZVPP Symm(None) scf(xqc) pop(None) freq opt(CalcFC)
 -----------------------------------------------------------------

 ------------------------------
 Gaussian input prepared by ASE
 ------------------------------
 Symbolic Z-matrix:
 Charge =  0 Multiplicity = 1

 SCF Done:  E(RM062X) =  -962.117187413     A.U. after   13 cycles
 SCF Done:  E(RM062X) =  -962.123652270     A.U. after   13 cycles
 SCF Done:  E(RM062X) =  -962.125095485     A.U. after   11 cycles
 SCF Done:  E(RM062X) =  -962.125629447     A.U. after   11 cycles
 SCF Done:  E(RM062X) =  -962.125805174     A.U. after   10 cycles
 SCF Done:  E(RM062X) =  -962.125872194     A.U. after   10 cycles
 SCF Done:  E(RM062X) =  -962.125885696     A.U. after    9 cycles
 SCF Done:  E(RM062X) =  -962.125889573     A.U. after    9 cycles
 SCF Done:  E(RM062X) =  -962.125890250     A.U. after    8 cycles
 Optimization completed.
    -- Stationary point found.
 Normal termination of Gaussian 16 at Sun May 25 03:18:58 2025.

 ---------------------------------------------------------------------
 #P Geom=AllCheck Guess=TCheck SCRF=Check GenChk RM062X/def2TZVPP Freq
 ---------------------------------------------------------------------

 Structure from the checkpoint file:  "/tmp/Gau-131804.chk"
 ------------------------------
 Gaussian input prepared by ASE
 ------------------------------
 Charge =  0 Multiplicity = 1

                          Input orientation:
 ---------------------------------------------------------------------
 Center     Atomic      Atomic             Coordinates (Angstroms)
 Number     Number       Type             X           Y           Z
 ---------------------------------------------------------------------
      1          6           0       -0.069311   -0.060278    0.063021
      2          9           0       -0.570942    0.618588   -0.959963
      3          9           0       -0.544184    0.436346    1.188595
      4          9           0       -0.410996   -1.329667   -0.042555
      5         16           0        1.766083    0.066968    0.032326
      6          8           0        2.241697   -0.464158    1.250313
      7          8           0        2.185604   -0.386988   -1.244897
      8          8           0        1.912635    1.631148    0.101749
      9          1           0        1.959928    2.000875   -0.791713
 ---------------------------------------------------------------------

 SCF Done:  E(RM062X) =  -962.125890250     A.U. after    1 cycles

 Isotropic polarizability for W=    0.000000       41.21 Bohr**3.
 End of Minotr F.D. properties file   721 does not exist.

                      1                      2                      3
                      A                      A                      A
 Frequencies --     60.6553               186.7229               194.7617
 Red. masses --     13.4566                 6.9795                15.9797
 Frc consts  --      0.0292                 0.1434                 0.3571
 IR Inten    --      1.4049                10.2991                 3.4821

                      4                      5                      6
                      A                      A                      A
 Frequencies --    309.6940               318.8118               342.3242
 Red. masses --      9.0255                 2.7765                13.6292
 Frc consts  --      0.5100                 0.1663                 0.9410
 IR Inten    --      1.8359                35.9974                 1.6654

                      7                      8                      9
                      A                      A                      A
 Frequencies --    371.5697               471.3304               506.9060
 Red. masses --      2.3245                 4.4070                15.0597
 Frc consts  --      0.1891                 0.5768                 2.2799
 IR Inten    --     43.9501                27.4382                26.5784

                     10                     11                     12
                      A                      A                      A
 Frequencies --    571.1959               576.9863               631.9269
 Red. masses --     15.6491                16.3887                20.0025
 Frc consts  --      3.0082                 3.2146                 4.7062
 IR Inten    --      0.8941                 2.8234               159.1323

                     13                     14                     15
                      A                      A                      A
 Frequencies --    794.4453               906.9083              1138.8123
 Red. masses --     17.7158                17.6021                 1.1841
 Frc consts  --      6.5878                 8.5299                 0.9048
 IR Inten    --      3.7562               218.0963                87.4037

                     16                     17                     18
                      A                      A                      A
 Frequencies --   1197.8269              1275.2812              1295.6572
 Red. masses --     14.8197                13.3724                13.4046
 Frc consts  --     12.5279                12.8136                13.2582
 IR Inten    --    265.5812               162.9247               128.9903

                     19                     20                     21
                      A                      A                      A
 Frequencies --   1308.2016              1503.1368              3810.6531
 Red. masses --     15.2133                15.4059                 1.0657
 Frc consts  --     15.3399                20.5085                 9.1176
 IR Inten    --    240.6821               292.7527               186.5238

 - Thermochemistry -
 -------------------
 Temperature   298.150 Kelvin.  Pressure   1.00000 Atm.
 Atom     1 has atomic number  6 and mass  12.00000

 Molecular mass:   149.95985 amu.
 Principal axes and moments of inertia in atomic units:
                           1         2         3
     Eigenvalues --   673.861481131.934141139.39506
           X            0.99058   0.09137  -0.10201
           Y            0.13560  -0.54991   0.82414
           Z           -0.01921   0.83021   0.55712
 This molecule is an asymmetric top.
 Rotational symmetry number  1.
 Warning -- assumption of classical behavior for rotation
           may cause significant error
 Rotational temperatures (Kelvin)      0.12853     0.07652     0.07602
 Rotational constants (GHZ):           2.67821     1.59439     1.58395
 Zero-point vibrational energy     106311.0 (Joules/Mol)
                                   25.40893 (Kcal/Mol)
 Warning -- explicit consideration of  11 degrees of freedom as
           vibrations may cause significant error
 Vibrational temperatures:     87.27   268.65   280.22   445.58   458.70
          (Kelvin)            492.53   534.61   678.14   729.32   821.82
                              830.15   909.20  1143.03  1304.84  1638.50
                             1723.41  1834.85  1864.16  1882.21  2162.68
                             5482.68

 Zero-point correction=                           0.040492 (Hartree/Particle)
 Thermal correction to Energy=                    0.047969
 Thermal correction to Enthalpy=                  0.048914
 Thermal correction to Gibbs Free Energy=         0.007902
 Sum of electronic and zero-point Energies=           -962.085399
 Sum of electronic and thermal Energies=              -962.077921
 Sum of electronic and thermal Enthalpies=            -962.076977
 Sum of electronic and thermal Free Energies=         -962.117989

                     E (Thermal)             CV                S
                      KCal/Mol        Cal/Mol-Kelvin    Cal/Mol-Kelvin
 Total                   30.101             25.876             86.317
 Electronic               0.000              0.000              0.000
 Translational            0.889              2.981             40.926
 Rotational               0.889              2.981             28.254
 Vibrational             28.324             19.915             17.137
 Vibration     1          0.597              1.973              4.436
 Vibration     2          0.632              1.858              2.260
 Vibration     3          0.635              1.847              2.182
 Vibration     4          0.699              1.655              1.364
 Vibration     5          0.705              1.638              1.316
 Vibration     6          0.721              1.591              1.201
 Vibration     7          0.743              1.531              1.073
 Vibration     8          0.828              1.314              0.734
 Vibration     9          0.862              1.235              0.641
 Vibration    10          0.927              1.094              0.502
 Vibration    11          0.933              1.081              0.491

 Optimization completed.
    -- Stationary point found.
 Normal termination of Gaussian 16 at Sun May 25 03:20:55 2025.
