 Gaussian 16, Revision C.01,
 Gaussian 16:  ES64L-G16RevC.01  3-Jul-2019

 ------------------------------------------
 #P am1 Symm(None) scf(xqc) pop(None) force
 ------------------------------------------

 ------------------------------
 Gaussian input prepared by ASE
 ------------------------------
 Symbolic Z-matrix:
 Charge =  0 Multiplicity = 1

                          Input orientation:
 ---------------------------------------------------------------------
 Center     Atomic      Atomic             Coordinates (Angstroms)
 Number     Number       Type             X           Y           Z
 ---------------------------------------------------------------------
      1          6           0        1.631047    0.118032   -0.164245
      2          9           0       -0.378571    0.469534    0.436194
      3          9           0        1.767948   -0.729954    0.754023
      4          9           0        1.231744   -0.433795   -1.217758
      5         16           0        2.146836    1.989154   -0.022360
      6          8           0        3.156682    1.868032    0.971359
      7          8           0        2.516363    2.223407   -1.371916
      8          8           0        0.827577    2.404451    0.400436
      9          1           0       -0.419280    1.418832    0.591845
 ---------------------------------------------------------------------

 SCF Done:  E(RAM1) =   1.64269799392     A.U. after   14 cycles
 Normal termination of Gaussian 16 at Sun May 25 05:39:47 2025.
