 Gaussian 16, Revision C.01,
 Gaussian 16:  ES64L-G16RevC.01  3-Jul-2019

 ----------------------------------------------------------------------
 #P M062X/Def2TZVPP Symm(None) scf(xqc) pop(None) opt(NoFreeze,TS,CalcA
 ll,NoEigentest,MaxCycle=999)
 ----------------------------------------------------------------------

 ------------------------------
 Gaussian input prepared by ASE
 ------------------------------
 Symbolic Z-matrix:
 Charge =  0 Multiplicity = 1

 SCF Done:  E(RM062X) =  -962.036784516     A.U. after   14 cycles
 SCF Done:  E(RM062X) =  -962.042437505     A.U. after   12 cycles
 SCF Done:  E(RM062X) =  -962.046481934     A.U. after   14 cycles
 SCF Done:  E(RM062X) =  -962.046922873     A.U. after   12 cycles
 SCF Done:  E(RM062X) =  -962.046726722     A.U. after   13 cycles
 SCF Done:  E(RM062X) =  -962.046602173     A.U. after   11 cycles
 SCF Done:  E(RM062X) =  -962.046776550     A.U. after   11 cycles
 SCF Done:  E(RM062X) =  -962.047468657     A.U. after   12 cycles
 SCF Done:  E(RM062X) =  -962.046829069     A.U. after   12 cycles
 SCF Done:  E(RM062X) =  -962.046803823     A.U. after   14 cycles
 SCF Done:  E(RM062X) =  -962.047005355     A.U. after   12 cycles
 SCF Done:  E(RM062X) =  -962.047256786     A.U. after   14 cycles
 SCF Done:  E(RM062X) =  -962.047348843     A.U. after   11 cycles
 SCF Done:  E(RM062X) =  -962.047377472     A.U. after   11 cycles
 SCF Done:  E(RM062X) =  -962.047377697     A.U. after   10 cycles
 SCF Done:  E(RM062X) =  -962.047377679     A.U. after    7 cycles

 Isotropic polarizability for W=    0.000000       44.40 Bohr**3.
 End of Minotr F.D. properties file   721 does not exist.

 Optimization completed.
    -- Stationary point found.

                          Input orientation:
 ---------------------------------------------------------------------
 Center     Atomic      Atomic             Coordinates (Angstroms)
 Number     Number       Type             X           Y           Z
 ---------------------------------------------------------------------
      1          6           0        1.588620    0.083220   -0.080914
      2          9           0       -0.476793    0.562852    0.086034
      3          9           0        1.615711   -0.674496    0.922162
      4          9           0        1.518415   -0.551924   -1.160497
      5         16           0        2.088179    1.961137    0.025085
      6          8           0        3.316064    1.794964    0.722667
      7          8           0        2.100173    2.289013   -1.355159
      8          8           0        0.961182    2.430135    0.800690
      9          1           0       -0.231205    1.432792    0.417509
 ---------------------------------------------------------------------

 ******    1 imaginary frequencies (negative Signs) ******

                      1                      2                      3
                      A                      A                      A
 Frequencies --   -112.1037                53.2691               156.4663
 Red. masses --      9.7948                16.5320                16.6811
 Frc consts  --      0.0725                 0.0276                 0.2406
 IR Inten    --      9.4092                 1.0374                 1.5788

                      4                      5                      6
                      A                      A                      A
 Frequencies --    171.4710               203.8100               242.5852
 Red. masses --     16.4486                16.6054                11.8363
 Frc consts  --      0.2849                 0.4064                 0.4104
 IR Inten    --      1.4630                 1.0197                23.4220

                      7                      8                      9
                      A                      A                      A
 Frequencies --    281.5996               366.6581               513.9529
 Red. masses --     13.8518                15.4464                14.3649
 Frc consts  --      0.6472                 1.2235                 2.2356
 IR Inten    --     31.5205                 7.7047                65.1945

                     10                     11                     12
                      A                      A                      A
 Frequencies --    549.8987               593.2636               615.7465
 Red. masses --     14.2204                12.7944                16.8796
 Frc consts  --      2.5335                 2.6532                 3.7707
 IR Inten    --     15.8701                 7.8562               218.9912

                     13                     14                     15
                      A                      A                      A
 Frequencies --    715.4160               782.2636               944.1456
 Red. masses --     13.6833                 1.0751                 1.1735
 Frc consts  --      4.1263                 0.3876                 0.6163
 IR Inten    --      8.1960               101.5983               500.5538

                     16                     17                     18
                      A                      A                      A
 Frequencies --   1102.3420              1361.2398              1425.7464
 Red. masses --     13.2813                14.0365                13.1095
 Frc consts  --      9.5087                15.3242                15.7008
 IR Inten    --     48.9326               193.5542               200.1662

                     19                     20                     21
                      A                      A                      A
 Frequencies --   1439.0337              1483.7409              3228.4166
 Red. masses --     18.4601                13.7913                 1.0669
 Frc consts  --     22.5230                17.8884                 6.5520
 IR Inten    --     66.1938               490.2780               651.6107

 - Thermochemistry -
 -------------------
 Temperature   298.150 Kelvin.  Pressure   1.00000 Atm.
 Atom     1 has atomic number  6 and mass  12.00000

 Molecular mass:   149.95985 amu.
 Principal axes and moments of inertia in atomic units:
                           1         2         3
     Eigenvalues --   755.868461179.672431295.43030
           X            0.49306   0.86627   0.08040
           Y            0.86950  -0.48756  -0.07907
           Z            0.02930  -0.10889   0.99362
 This molecule is an asymmetric top.
 Rotational symmetry number  1.
 Warning -- assumption of classical behavior for rotation
           may cause significant error
 Rotational temperatures (Kelvin)      0.11459     0.07342     0.06686
 Rotational constants (GHZ):           2.38764     1.52987     1.39316
    1 imaginary frequencies ignored.
 Zero-point vibrational energy      97083.3 (Joules/Mol)
                                   23.20347 (Kcal/Mol)
 Warning -- explicit consideration of  11 degrees of freedom as
           vibrations may cause significant error
 Vibrational temperatures:     76.64   225.12   246.71   293.24   349.03
          (Kelvin)            405.16   527.54   739.46   791.18   853.57
                              885.92  1029.32  1125.50  1358.41  1586.02
                             1958.52  2051.33  2070.45  2134.77  4644.97

 Zero-point correction=                           0.036977 (Hartree/Particle)
 Thermal correction to Energy=                    0.044722
 Thermal correction to Enthalpy=                  0.045666
 Thermal correction to Gibbs Free Energy=         0.003629
 Sum of electronic and zero-point Energies=           -962.010401
 Sum of electronic and thermal Energies=              -962.002656
 Sum of electronic and thermal Enthalpies=            -962.001712
 Sum of electronic and thermal Free Energies=         -962.043748

                     E (Thermal)             CV                S
                      KCal/Mol        Cal/Mol-Kelvin    Cal/Mol-Kelvin
 Total                   28.063             25.563             88.474
 Electronic               0.000              0.000              0.000
 Translational            0.889              2.981             40.926
 Rotational               0.889              2.981             28.537
 Vibrational             26.286             19.601             19.011
 Vibration     1          0.596              1.976              4.692
 Vibration     2          0.620              1.895              2.592
 Vibration     3          0.626              1.878              2.419
 Vibration     4          0.639              1.834              2.098
 Vibration     5          0.659              1.775              1.784
 Vibration     6          0.681              1.708              1.524
 Vibration     7          0.740              1.541              1.094
 Vibration     8          0.869              1.219              0.624
 Vibration     9          0.905              1.140              0.544
 Vibration    10          0.951              1.046              0.461
 Vibration    11          0.975              0.999              0.423

 Normal termination of Gaussian 16 at Sun May 25 06:12:50 2025.
