 Gaussian 16, Revision C.01,
 Gaussian 16:  ES64L-G16RevC.01  3-Jul-2019

 ------------------------------------------
 #P am1 Symm(None) scf(xqc) pop(None) force
 ------------------------------------------

 ------------------------------
 Gaussian input prepared by ASE
 ------------------------------
 Symbolic Z-matrix:
 Charge =  0 Multiplicity = 1

                          Input orientation:
 ---------------------------------------------------------------------
 Center     Atomic      Atomic             Coordinates (Angstroms)
 Number     Number       Type             X           Y           Z
 ---------------------------------------------------------------------
      1          6           0        1.619300    0.118468   -0.217768
      2          9           0       -0.286575    0.462699    0.660746
      3          9           0        1.871570   -0.780536    0.624366
      4          9           0        1.080908   -0.373156   -1.238691
      5         16           0        2.130110    1.988740   -0.049171
      6          8           0        2.946749    1.912454    1.112388
      7          8           0        2.731743    2.166264   -1.321667
      8          8           0        0.758141    2.411196    0.126627
      9          1           0       -0.371599    1.421564    0.680748
 ---------------------------------------------------------------------

 SCF Done:  E(RAM1) =   1.64361604986     A.U. after   14 cycles
 Normal termination of Gaussian 16 at Sun May 25 05:39:51 2025.
