 Gaussian 16, Revision C.01,
 Gaussian 16:  ES64L-G16RevC.01  3-Jul-2019

 ----------------------------------------------------------------------
 #P M062X/Def2TZVPP Symm(None) scf(xqc) pop(None) opt(NoFreeze,TS,CalcA
 ll,NoEigentest,MaxCycle=999)
 ----------------------------------------------------------------------

 ------------------------------
 Gaussian input prepared by ASE
 ------------------------------
 Symbolic Z-matrix:
 Charge =  0 Multiplicity = 1

 SCF Done:  E(RM062X) =  -962.036760379     A.U. after   14 cycles
 SCF Done:  E(RM062X) =  -962.042452666     A.U. after   13 cycles
 SCF Done:  E(RM062X) =  -962.046495619     A.U. after   14 cycles
 SCF Done:  E(RM062X) =  -962.046927636     A.U. after   12 cycles
 SCF Done:  E(RM062X) =  -962.046724992     A.U. after   13 cycles
 SCF Done:  E(RM062X) =  -962.046690452     A.U. after   11 cycles
 SCF Done:  E(RM062X) =  -962.046804966     A.U. after   12 cycles
 SCF Done:  E(RM062X) =  -962.046639751     A.U. after   14 cycles
 SCF Done:  E(RM062X) =  -962.046962702     A.U. after   12 cycles
 SCF Done:  E(RM062X) =  -962.046818254     A.U. after   13 cycles
 SCF Done:  E(RM062X) =  -962.046918876     A.U. after   13 cycles
 SCF Done:  E(RM062X) =  -962.047027281     A.U. after   12 cycles
 SCF Done:  E(RM062X) =  -962.047100386     A.U. after   14 cycles
 SCF Done:  E(RM062X) =  -962.047386952     A.U. after   12 cycles
 SCF Done:  E(RM062X) =  -962.047469043     A.U. after   13 cycles
 SCF Done:  E(RM062X) =  -962.047354371     A.U. after   12 cycles
 SCF Done:  E(RM062X) =  -962.047376329     A.U. after   11 cycles
 SCF Done:  E(RM062X) =  -962.047377549     A.U. after    8 cycles

 Isotropic polarizability for W=    0.000000       44.41 Bohr**3.
 End of Minotr F.D. properties file   721 does not exist.

 Optimization completed.
    -- Stationary point found.

                          Input orientation:
 ---------------------------------------------------------------------
 Center     Atomic      Atomic             Coordinates (Angstroms)
 Number     Number       Type             X           Y           Z
 ---------------------------------------------------------------------
      1          6           0        1.553649    0.102761   -0.214444
      2          9           0       -0.286571    0.456911    0.797967
      3          9           0        1.978446   -0.803887    0.541371
      4          9           0        1.026903   -0.351446   -1.261790
      5         16           0        2.070643    1.971327   -0.040711
      6          8           0        2.788859    1.913517    1.181338
      7          8           0        2.775806    2.090647   -1.269781
      8          8           0        0.745381    2.548467    0.004091
      9          1           0       -0.172770    1.399395    0.639537
 ---------------------------------------------------------------------

 ******    1 imaginary frequencies (negative Signs) ******

                      1                      2                      3
                      A                      A                      A
 Frequencies --   -105.0251                52.1080               156.8353
 Red. masses --      9.9553                16.4611                16.7073
 Frc consts  --      0.0647                 0.0263                 0.2421
 IR Inten    --      9.5615                 1.1532                 1.5362

                      4                      5                      6
                      A                      A                      A
 Frequencies --    170.3386               203.1947               242.4878
 Red. masses --     16.4449                16.5712                12.0033
 Frc consts  --      0.2811                 0.4031                 0.4158
 IR Inten    --      1.5144                 1.0046                21.8203

                      7                      8                      9
                      A                      A                      A
 Frequencies --    281.6364               366.7791               513.3769
 Red. masses --     13.7321                15.4560                14.3319
 Frc consts  --      0.6417                 1.2251                 2.2255
 IR Inten    --     31.8078                 7.5607                65.1725

                     10                     11                     12
                      A                      A                      A
 Frequencies --    549.7209               593.4111               615.1585
 Red. masses --     14.2490                12.8172                16.9405
 Frc consts  --      2.5370                 2.6592                 3.7770
 IR Inten    --     15.8775                 7.8641               217.7014

                     13                     14                     15
                      A                      A                      A
 Frequencies --    715.8495               779.7870               946.7262
 Red. masses --     13.7264                 1.0754                 1.1701
 Frc consts  --      4.1443                 0.3853                 0.6179
 IR Inten    --      7.9973               101.5671               500.1870

                     16                     17                     18
                      A                      A                      A
 Frequencies --   1102.2270              1360.3139              1425.8454
 Red. masses --     13.2713                14.0326                13.1577
 Frc consts  --      9.4996                15.2992                15.7607
 IR Inten    --     49.4409               193.9512               201.4038

                     19                     20                     21
                      A                      A                      A
 Frequencies --   1438.6989              1484.9315              3239.7303
 Red. masses --     18.4467                13.7416                 1.0667
 Frc consts  --     22.4961                17.8526                 6.5966
 IR Inten    --     69.7091               484.9515               649.2689

 - Thermochemistry -
 -------------------
 Temperature   298.150 Kelvin.  Pressure   1.00000 Atm.
 Atom     1 has atomic number  6 and mass  12.00000

 Molecular mass:   149.95985 amu.
 Principal axes and moments of inertia in atomic units:
                           1         2         3
     Eigenvalues --   756.378591180.176181296.47558
           X            0.47666   0.76833   0.42716
           Y            0.87847  -0.43452  -0.19870
           Z           -0.03294  -0.46996   0.88207
 This molecule is an asymmetric top.
 Rotational symmetry number  1.
 Warning -- assumption of classical behavior for rotation
           may cause significant error
 Rotational temperatures (Kelvin)      0.11451     0.07339     0.06681
 Rotational constants (GHZ):           2.38603     1.52921     1.39204
    1 imaginary frequencies ignored.
 Zero-point vibrational energy      97131.7 (Joules/Mol)
                                   23.21504 (Kcal/Mol)
 Warning -- explicit consideration of  11 degrees of freedom as
           vibrations may cause significant error
 Vibrational temperatures:     74.97   225.65   245.08   292.35   348.89
          (Kelvin)            405.21   527.71   738.63   790.93   853.79
                              885.08  1029.95  1121.94  1362.13  1585.86
                             1957.19  2051.47  2069.97  2136.49  4661.25

 Zero-point correction=                           0.036996 (Hartree/Particle)
 Thermal correction to Energy=                    0.044746
 Thermal correction to Enthalpy=                  0.045690
 Thermal correction to Gibbs Free Energy=         0.003624
 Sum of electronic and zero-point Energies=           -962.010382
 Sum of electronic and thermal Energies=              -962.002632
 Sum of electronic and thermal Enthalpies=            -962.001688
 Sum of electronic and thermal Free Energies=         -962.043754

                     E (Thermal)             CV                S
                      KCal/Mol        Cal/Mol-Kelvin    Cal/Mol-Kelvin
 Total                   28.078             25.568             88.536
 Electronic               0.000              0.000              0.000
 Translational            0.889              2.981             40.926
 Rotational               0.889              2.981             28.539
 Vibrational             26.301             19.607             19.071
 Vibration     1          0.596              1.977              4.736
 Vibration     2          0.620              1.895              2.588
 Vibration     3          0.625              1.879              2.432
 Vibration     4          0.639              1.835              2.104
 Vibration     5          0.659              1.775              1.785
 Vibration     6          0.681              1.708              1.524
 Vibration     7          0.740              1.541              1.093
 Vibration     8          0.868              1.220              0.626
 Vibration     9          0.905              1.140              0.545
 Vibration    10          0.951              1.046              0.461
 Vibration    11          0.975              1.000              0.424

 Normal termination of Gaussian 16 at Sun May 25 06:16:05 2025.
