 Gaussian 16, Revision C.01,
 Gaussian 16:  ES64L-G16RevC.01  3-Jul-2019

 ----------------------------------------------------------------------
 #P M062X/Def2TZVPP Symm(None) scf(xqc) pop(None) opt(NoFreeze,TS,CalcA
 ll,NoEigentest,MaxCycle=999)
 ----------------------------------------------------------------------

 ------------------------------
 Gaussian input prepared by ASE
 ------------------------------
 Symbolic Z-matrix:
 Charge =  0 Multiplicity = 1

 SCF Done:  E(RM062X) =  -961.972535808     A.U. after   15 cycles
 SCF Done:  E(RM062X) =  -961.985969716     A.U. after   14 cycles
 SCF Done:  E(RM062X) =  -961.988299167     A.U. after   14 cycles
 SCF Done:  E(RM062X) =  -961.989756950     A.U. after   13 cycles
 SCF Done:  E(RM062X) =  -961.990018775     A.U. after   12 cycles
 SCF Done:  E(RM062X) =  -961.990025180     A.U. after    9 cycles
 SCF Done:  E(RM062X) =  -961.990025196     A.U. after    6 cycles

 Isotropic polarizability for W=    0.000000       44.79 Bohr**3.
 End of Minotr F.D. properties file   721 does not exist.

 Optimization completed.
    -- Stationary point found.

                          Input orientation:
 ---------------------------------------------------------------------
 Center     Atomic      Atomic             Coordinates (Angstroms)
 Number     Number       Type             X           Y           Z
 ---------------------------------------------------------------------
      1          6           0        0.723272   -1.614475    0.088545
      2          9           0        0.054823   -2.105553   -0.877338
      3          9           0        0.231006    0.148225    0.084766
      4          9           0        0.274062   -2.039613    1.202250
      5         16           0        2.020514   -0.124966   -0.103208
      6          8           0        2.627624   -0.382167    1.162317
      7          8           0        2.420362   -0.521442   -1.406057
      8          8           0        2.118524    1.457352   -0.242541
      9          1           0        2.042494    1.855640    0.634259
 ---------------------------------------------------------------------

 ******    1 imaginary frequencies (negative Signs) ******

                      1                      2                      3
                      A                      A                      A
 Frequencies --   -419.0051               103.4960               142.7052
 Red. masses --     15.3619                 8.1716                15.0757
 Frc consts  --      1.5890                 0.0516                 0.1809
 IR Inten    --     11.1349                 6.3292                 0.9922

                      4                      5                      6
                      A                      A                      A
 Frequencies --    179.2319               253.2472               314.8454
 Red. masses --     12.1540                 3.0954                 2.9529
 Frc consts  --      0.2300                 0.1170                 0.1725
 IR Inten    --     27.3550                36.7767                37.5032

                      7                      8                      9
                      A                      A                      A
 Frequencies --    372.7448               393.3390               437.7131
 Red. masses --      5.7916                 7.1045                 9.8734
 Frc consts  --      0.4741                 0.6476                 1.1145
 IR Inten    --     24.4797                20.5847                 3.6425

                     10                     11                     12
                      A                      A                      A
 Frequencies --    524.3125               544.9522               620.2156
 Red. masses --      5.5338                15.7681                17.5029
 Frc consts  --      0.8963                 2.7590                 3.9668
 IR Inten    --     20.3586                14.8989               301.7930

                     13                     14                     15
                      A                      A                      A
 Frequencies --    664.7845               709.3311               865.6181
 Red. masses --     13.0840                16.6346                16.7075
 Frc consts  --      3.4068                 4.9313                 7.3759
 IR Inten    --    145.2999                 7.0482               384.0128

                     16                     17                     18
                      A                      A                      A
 Frequencies --   1178.4015              1199.4176              1374.3796
 Red. masses --     15.8217                 1.2136                13.7132
 Frc consts  --     12.9446                 1.0287                15.2617
 IR Inten    --    133.1389                93.1554               146.0969

                     19                     20                     21
                      A                      A                      A
 Frequencies --   1389.4477              1474.4894              3835.6780
 Red. masses --     13.0956                12.7488                 1.0656
 Frc consts  --     14.8956                16.3306                 9.2371
 IR Inten    --    164.3341               402.6261               136.0732

 - Thermochemistry -
 -------------------
 Temperature   298.150 Kelvin.  Pressure   1.00000 Atm.
 Atom     1 has atomic number  6 and mass  12.00000

 Molecular mass:   149.95985 amu.
 Principal axes and moments of inertia in atomic units:
                           1         2         3
     Eigenvalues --   578.321551214.066601318.42258
           X            0.63875   0.07403   0.76584
           Y            0.76341   0.06312  -0.64282
           Z           -0.09593   0.99526  -0.01620
 This molecule is an asymmetric top.
 Rotational symmetry number  1.
 Warning -- assumption of classical behavior for rotation
           may cause significant error
 Rotational temperatures (Kelvin)      0.14977     0.07134     0.06570
 Rotational constants (GHZ):           3.12065     1.48653     1.36886
    1 imaginary frequencies ignored.
 Zero-point vibrational energy      99160.6 (Joules/Mol)
                                   23.69994 (Kcal/Mol)
 Warning -- explicit consideration of  11 degrees of freedom as
           vibrations may cause significant error
 Vibrational temperatures:    148.91   205.32   257.87   364.37   452.99
          (Kelvin)            536.30   565.93   629.77   754.37   784.06
                              892.35   956.48  1020.57  1245.43  1695.46
                             1725.69  1977.43  1999.11  2121.46  5518.69

 Zero-point correction=                           0.037768 (Hartree/Particle)
 Thermal correction to Energy=                    0.045293
 Thermal correction to Enthalpy=                  0.046238
 Thermal correction to Gibbs Free Energy=         0.005289
 Sum of electronic and zero-point Energies=           -961.952257
 Sum of electronic and thermal Energies=              -961.944732
 Sum of electronic and thermal Enthalpies=            -961.943788
 Sum of electronic and thermal Free Energies=         -961.984736

                     E (Thermal)             CV                S
                      KCal/Mol        Cal/Mol-Kelvin    Cal/Mol-Kelvin
 Total                   28.422             25.815             86.184
 Electronic               0.000              0.000              0.000
 Translational            0.889              2.981             40.926
 Rotational               0.889              2.981             28.317
 Vibrational             26.645             19.854             16.941
 Vibration     1          0.605              1.946              3.387
 Vibration     2          0.616              1.910              2.767
 Vibration     3          0.629              1.868              2.336
 Vibration     4          0.664              1.757              1.708
 Vibration     5          0.702              1.645              1.337
 Vibration     6          0.744              1.528              1.068
 Vibration     7          0.761              1.484              0.987
 Vibration     8          0.798              1.388              0.834
 Vibration     9          0.879              1.196              0.600
 Vibration    10          0.900              1.151              0.555
 Vibration    11          0.980              0.989              0.416

 Normal termination of Gaussian 16 at Sun May 25 04:49:57 2025.
