 Gaussian 16, Revision C.01,
 Gaussian 16:  ES64L-G16RevC.01  3-Jul-2019

 -----------------------------------------------------------------
 #P M062X/Def2TZVPP Symm(None) scf(xqc) pop(None) freq opt(CalcFC)
 -----------------------------------------------------------------

 ------------------------------
 Gaussian input prepared by ASE
 ------------------------------
 Symbolic Z-matrix:
 Charge =  0 Multiplicity = 1

 SCF Done:  E(RM062X) =  -961.950845241     A.U. after   14 cycles
 SCF Done:  E(RM062X) =  -961.954700306     A.U. after   15 cycles
 SCF Done:  E(RM062X) =  -961.919962155     A.U. after   16 cycles
 SCF Done:  E(RM062X) =  -961.955734479     A.U. after   14 cycles
 SCF Done:  E(RM062X) =  -961.956227249     A.U. after   13 cycles
 SCF Done:  E(RM062X) =  -961.956481059     A.U. after   14 cycles
 SCF Done:  E(RM062X) =  -961.956540147     A.U. after   13 cycles
 SCF Done:  E(RM062X) =  -961.956577577     A.U. after   12 cycles
 SCF Done:  E(RM062X) =  -961.956677785     A.U. after   13 cycles
 SCF Done:  E(RM062X) =  -961.951453370     A.U. after   15 cycles
 SCF Done:  E(RM062X) =  -961.957814714     A.U. after   14 cycles
 SCF Done:  E(RM062X) =  -961.958769150     A.U. after   16 cycles
 SCF Done:  E(RM062X) =  -961.959154377     A.U. after   13 cycles
 SCF Done:  E(RM062X) =  -961.959235408     A.U. after   13 cycles
 SCF Done:  E(RM062X) =  -961.959279610     A.U. after   12 cycles
 SCF Done:  E(RM062X) =  -961.959315335     A.U. after   12 cycles
 SCF Done:  E(RM062X) =  -961.959323020     A.U. after   11 cycles
 SCF Done:  E(RM062X) =  -961.959323311     A.U. after    9 cycles
 Optimization completed.
    -- Stationary point found.
 Normal termination of Gaussian 16 at Sun May 25 05:39:12 2025.

 ---------------------------------------------------------------------
 #P Geom=AllCheck Guess=TCheck SCRF=Check GenChk RM062X/def2TZVPP Freq
 ---------------------------------------------------------------------

 Structure from the checkpoint file:  "/tmp/Gau-301123.chk"
 ------------------------------
 Gaussian input prepared by ASE
 ------------------------------
 Charge =  0 Multiplicity = 1

                          Input orientation:
 ---------------------------------------------------------------------
 Center     Atomic      Atomic             Coordinates (Angstroms)
 Number     Number       Type             X           Y           Z
 ---------------------------------------------------------------------
      1          6           0        0.048126   -0.026723   -0.141513
      2          9           0       -0.352903    0.127856   -1.399645
      3          9           0       -0.452543    0.988799    0.579622
      4          9           0       -0.455112   -1.159040    0.329918
      5         16           0        1.956328   -0.088538   -0.090969
      6          8           0        1.978137   -0.487129    1.421367
      7          8           0        3.348414   -0.100104    0.960069
      8          8           0        2.019980    1.481588   -0.345245
      9          1           0        1.398310    1.969045    0.216667
 ---------------------------------------------------------------------

 SCF Done:  E(RM062X) =  -961.959323311     A.U. after    1 cycles

 Isotropic polarizability for W=    0.000000       45.16 Bohr**3.
 End of Minotr F.D. properties file   721 does not exist.

                      1                      2                      3
                      A                      A                      A
 Frequencies --     73.7770               147.6886               182.5754
 Red. masses --     14.2674                16.3413                14.3337
 Frc consts  --      0.0458                 0.2100                 0.2815
 IR Inten    --      0.7722                 2.4805                 4.2470

                      4                      5                      6
                      A                      A                      A
 Frequencies --    240.9189               270.2804               304.4150
 Red. masses --     10.0412                 1.3485                 4.9379
 Frc consts  --      0.3434                 0.0580                 0.2696
 IR Inten    --     14.1294                52.8950                23.0470

                      7                      8                      9
                      A                      A                      A
 Frequencies --    357.6314               433.3859               451.2862
 Red. masses --      9.6109                12.5906                12.8962
 Frc consts  --      0.7242                 1.3933                 1.5475
 IR Inten    --      8.1753                13.5939                21.6384

                     10                     11                     12
                      A                      A                      A
 Frequencies --    498.9813               549.2751               573.1354
 Red. masses --     14.1455                17.8242                13.6694
 Frc consts  --      2.0751                 3.1684                 2.6455
 IR Inten    --    235.6134                 0.6739                20.7663

                     13                     14                     15
                      A                      A                      A
 Frequencies --    753.7272               856.3552               905.5349
 Red. masses --     17.2747                15.6187                17.9993
 Frc consts  --      5.7821                 6.7484                 8.6959
 IR Inten    --      1.0307                93.4431                90.3254

                     16                     17                     18
                      A                      A                      A
 Frequencies --   1068.4943              1180.4152              1208.0830
 Red. masses --     14.1477                 1.4435                 9.6228
 Frc consts  --      9.5166                 1.1850                 8.2746
 IR Inten    --    104.1527               159.9073               147.9110

                     19                     20                     21
                      A                      A                      A
 Frequencies --   1241.5626              1267.3977              3772.4775
 Red. masses --      4.8927                11.8083                 1.0655
 Frc consts  --      4.4437                11.1754                 8.9346
 IR Inten    --    184.5118               239.7284               144.2837

 - Thermochemistry -
 -------------------
 Temperature   298.150 Kelvin.  Pressure   1.00000 Atm.
 Atom     1 has atomic number  6 and mass  12.00000

 Molecular mass:   149.95985 amu.
 Principal axes and moments of inertia in atomic units:
                           1         2         3
     Eigenvalues --   573.283071248.078781424.80362
           X            0.95685   0.15790  -0.24395
           Y            0.02541   0.79081   0.61154
           Z            0.28947  -0.59135   0.75267
 This molecule is an asymmetric top.
 Rotational symmetry number  1.
 Warning -- assumption of classical behavior for rotation
           may cause significant error
 Rotational temperatures (Kelvin)      0.15108     0.06940     0.06079
 Rotational constants (GHZ):           3.14808     1.44602     1.26666
 Zero-point vibrational energy      97719.3 (Joules/Mol)
                                   23.35548 (Kcal/Mol)
 Warning -- explicit consideration of  12 degrees of freedom as
           vibrations may cause significant error
 Vibrational temperatures:    106.15   212.49   262.69   346.63   388.87
          (Kelvin)            437.99   514.55   623.55   649.30   717.92
                              790.28   824.61  1084.45  1232.10  1302.86
                             1537.33  1698.35  1738.16  1786.33  1823.50
                             5427.75

 Zero-point correction=                           0.037219 (Hartree/Particle)
 Thermal correction to Energy=                    0.045230
 Thermal correction to Enthalpy=                  0.046174
 Thermal correction to Gibbs Free Energy=         0.004160
 Sum of electronic and zero-point Energies=           -961.922104
 Sum of electronic and thermal Energies=              -961.914094
 Sum of electronic and thermal Enthalpies=            -961.913149
 Sum of electronic and thermal Free Energies=         -961.955163

                     E (Thermal)             CV                S
                      KCal/Mol        Cal/Mol-Kelvin    Cal/Mol-Kelvin
 Total                   28.382             27.520             88.425
 Electronic               0.000              0.000              0.000
 Translational            0.889              2.981             40.926
 Rotational               0.889              2.981             28.413
 Vibrational             26.605             21.559             19.086
 Vibration     1          0.599              1.966              4.050
 Vibration     2          0.617              1.905              2.702
 Vibration     3          0.630              1.863              2.302
 Vibration     4          0.658              1.778              1.796
 Vibration     5          0.674              1.728              1.594
 Vibration     6          0.695              1.665              1.393
 Vibration     7          0.733              1.560              1.132
 Vibration     8          0.794              1.397              0.848
 Vibration     9          0.810              1.358              0.792
 Vibration    10          0.854              1.252              0.661
 Vibration    11          0.905              1.141              0.546
 Vibration    12          0.929              1.089              0.498

 Optimization completed.
    -- Stationary point found.
 Normal termination of Gaussian 16 at Sun May 25 05:41:00 2025.
