 Gaussian 16, Revision C.01,
 Gaussian 16:  ES64L-G16RevC.01  3-Jul-2019

 -----------------------------------------------------------------
 #P M062X/Def2TZVPP Symm(None) scf(xqc) pop(None) freq opt(CalcFC)
 -----------------------------------------------------------------

 ------------------------------
 Gaussian input prepared by ASE
 ------------------------------
 Symbolic Z-matrix:
 Charge =  0 Multiplicity = 1

 SCF Done:  E(RM062X) =  -961.962204984     A.U. after   15 cycles
 SCF Done:  E(RM062X) =  -961.963604831     A.U. after   14 cycles
 SCF Done:  E(RM062X) =  -961.963648496     A.U. after   13 cycles
 SCF Done:  E(RM062X) =  -961.963654162     A.U. after   12 cycles
 SCF Done:  E(RM062X) =  -961.963654265     A.U. after    7 cycles
 Optimization completed.
    -- Stationary point found.
 Normal termination of Gaussian 16 at Sun May 25 05:34:55 2025.

 ---------------------------------------------------------------------
 #P Geom=AllCheck Guess=TCheck SCRF=Check GenChk RM062X/def2TZVPP Freq
 ---------------------------------------------------------------------

 Structure from the checkpoint file:  "/tmp/Gau-301124.chk"
 ------------------------------
 Gaussian input prepared by ASE
 ------------------------------
 Charge =  0 Multiplicity = 1

                          Input orientation:
 ---------------------------------------------------------------------
 Center     Atomic      Atomic             Coordinates (Angstroms)
 Number     Number       Type             X           Y           Z
 ---------------------------------------------------------------------
      1          6           0        0.017442    0.014406   -0.002896
      2          9           0       -0.399316    0.467438   -1.182204
      3          9           0       -0.508488    0.756755    0.955617
      4          9           0       -0.411129   -1.239039    0.141744
      5         16           0        1.909191   -0.047515    0.003347
      6          8           0        2.029538   -0.589798    1.459279
      7          8           0        3.377465   -0.114792    1.018873
      8          8           0        1.895308    1.548813   -0.001434
      9          1           0        2.796506    1.859192    0.159785
 ---------------------------------------------------------------------

 SCF Done:  E(RM062X) =  -961.963654265     A.U. after    1 cycles

 Isotropic polarizability for W=    0.000000       45.44 Bohr**3.
 End of Minotr F.D. properties file   721 does not exist.

                      1                      2                      3
                      A                      A                      A
 Frequencies --     69.0812               154.6313               183.0059
 Red. masses --     14.1883                17.1974                13.1586
 Frc consts  --      0.0399                 0.2423                 0.2597
 IR Inten    --      1.3760                 2.6584                 1.0654

                      4                      5                      6
                      A                      A                      A
 Frequencies --    251.5945               303.0056               340.0195
 Red. masses --      6.4224                14.3336                 3.4910
 Frc consts  --      0.2395                 0.7754                 0.2378
 IR Inten    --      8.1998                 3.0540                25.4733

                      7                      8                      9
                      A                      A                      A
 Frequencies --    361.7274               423.0932               468.9429
 Red. masses --      2.2421                16.0411                 6.1465
 Frc consts  --      0.1728                 1.6918                 0.7964
 IR Inten    --     63.5821               106.1010               113.1262

                     10                     11                     12
                      A                      A                      A
 Frequencies --    476.7064               552.8924               575.0311
 Red. masses --      5.0417                16.4997                16.9083
 Frc consts  --      0.6750                 2.9717                 3.2941
 IR Inten    --     56.5415                 1.2940                13.5718

                     13                     14                     15
                      A                      A                      A
 Frequencies --    765.3637               873.5754               909.5483
 Red. masses --     17.1388                17.5153                16.7874
 Frc consts  --      5.9152                 7.8753                 8.1825
 IR Inten    --      0.3433                77.5005                64.7173

                     16                     17                     18
                      A                      A                      A
 Frequencies --   1063.8148              1176.0854              1217.0943
 Red. masses --     14.6689                 1.3625                 8.5484
 Frc consts  --      9.7809                 1.1104                 7.4608
 IR Inten    --     84.7399               237.1159               228.9556

                     19                     20                     21
                      A                      A                      A
 Frequencies --   1249.1668              1288.6356              3824.7231
 Red. masses --      9.9325                 7.9084                 1.0651
 Frc consts  --      9.1316                 7.7375                 9.1804
 IR Inten    --    206.3379               175.5784               169.2323

 - Thermochemistry -
 -------------------
 Temperature   298.150 Kelvin.  Pressure   1.00000 Atm.
 Atom     1 has atomic number  6 and mass  12.00000

 Molecular mass:   149.95985 amu.
 Principal axes and moments of inertia in atomic units:
                           1         2         3
     Eigenvalues --   563.387851259.773591429.00946
           X            0.96025   0.12872  -0.24768
           Y            0.01380   0.86436   0.50269
           Z            0.27878  -0.48613   0.82823
 This molecule is an asymmetric top.
 Rotational symmetry number  1.
 Warning -- assumption of classical behavior for rotation
           may cause significant error
 Rotational temperatures (Kelvin)      0.15374     0.06875     0.06061
 Rotational constants (GHZ):           3.20337     1.43259     1.26293
 Zero-point vibrational energy      98857.8 (Joules/Mol)
                                   23.62759 (Kcal/Mol)
 Warning -- explicit consideration of  12 degrees of freedom as
           vibrations may cause significant error
 Vibrational temperatures:     99.39   222.48   263.30   361.99   435.96
          (Kelvin)            489.21   520.45   608.74   674.70   685.87
                              795.49   827.34  1101.19  1256.88  1308.64
                             1530.59  1692.12  1751.13  1797.27  1854.06
                             5502.92

 Zero-point correction=                           0.037653 (Hartree/Particle)
 Thermal correction to Energy=                    0.045555
 Thermal correction to Enthalpy=                  0.046499
 Thermal correction to Gibbs Free Energy=         0.004691
 Sum of electronic and zero-point Energies=           -961.926001
 Sum of electronic and thermal Energies=              -961.918100
 Sum of electronic and thermal Enthalpies=            -961.917156
 Sum of electronic and thermal Free Energies=         -961.958963

                     E (Thermal)             CV                S
                      KCal/Mol        Cal/Mol-Kelvin    Cal/Mol-Kelvin
 Total                   28.586             27.315             87.991
 Electronic               0.000              0.000              0.000
 Translational            0.889              2.981             40.926
 Rotational               0.889              2.981             28.408
 Vibrational             26.808             21.353             18.657
 Vibration     1          0.598              1.969              4.179
 Vibration     2          0.620              1.898              2.614
 Vibration     3          0.631              1.863              2.298
 Vibration     4          0.664              1.760              1.719
 Vibration     5          0.694              1.668              1.400
 Vibration     6          0.720              1.596              1.212
 Vibration     7          0.736              1.551              1.115
 Vibration     8          0.785              1.420              0.882
 Vibration     9          0.826              1.319              0.741
 Vibration    10          0.833              1.302              0.719
 Vibration    11          0.908              1.133              0.538
 Vibration    12          0.931              1.085              0.495

 Optimization completed.
    -- Stationary point found.
 Normal termination of Gaussian 16 at Sun May 25 05:36:42 2025.
