 Gaussian 16, Revision C.01,
 Gaussian 16:  ES64L-G16RevC.01  3-Jul-2019

 -----------------------------------------------------------------
 #P M062X/Def2TZVPP Symm(None) scf(xqc) pop(None) freq opt(CalcFC)
 -----------------------------------------------------------------

 ------------------------------
 Gaussian input prepared by ASE
 ------------------------------
 Symbolic Z-matrix:
 Charge =  0 Multiplicity = 1

 SCF Done:  E(RM062X) =  -961.957672974     A.U. after   14 cycles
 SCF Done:  E(RM062X) =  -961.959246440     A.U. after   14 cycles
 SCF Done:  E(RM062X) =  -961.959308800     A.U. after   13 cycles
 SCF Done:  E(RM062X) =  -961.959309542     A.U. after   10 cycles
 SCF Done:  E(RM062X) =  -961.959309843     A.U. after    9 cycles
 Optimization completed.
    -- Stationary point found.
 Normal termination of Gaussian 16 at Sun May 25 05:34:57 2025.

 ---------------------------------------------------------------------
 #P Geom=AllCheck Guess=TCheck SCRF=Check GenChk RM062X/def2TZVPP Freq
 ---------------------------------------------------------------------

 Structure from the checkpoint file:  "/tmp/Gau-301122.chk"
 ------------------------------
 Gaussian input prepared by ASE
 ------------------------------
 Charge =  0 Multiplicity = 1

                          Input orientation:
 ---------------------------------------------------------------------
 Center     Atomic      Atomic             Coordinates (Angstroms)
 Number     Number       Type             X           Y           Z
 ---------------------------------------------------------------------
      1          6           0        0.025645   -0.004667   -0.010722
      2          9           0       -0.414398    0.379488   -1.205177
      3          9           0       -0.502309    0.818638    0.908661
      4          9           0       -0.413031   -1.232365    0.230043
      5         16           0        1.935494    0.019239   -0.005421
      6          8           0        2.014983   -0.677193    1.392874
      7          8           0        3.353551   -0.136856    0.997195
      8          8           0        1.921560    1.609477    0.065519
      9          1           0        1.291947    1.941362    0.723747
 ---------------------------------------------------------------------

 SCF Done:  E(RM062X) =  -961.959309843     A.U. after    1 cycles

 Isotropic polarizability for W=    0.000000       45.18 Bohr**3.
 End of Minotr F.D. properties file   721 does not exist.

                      1                      2                      3
                      A                      A                      A
 Frequencies --     70.8553               146.0646               180.9296
 Red. masses --     14.2792                16.5211                14.2697
 Frc consts  --      0.0422                 0.2077                 0.2752
 IR Inten    --      0.7625                 2.3032                 4.2786

                      4                      5                      6
                      A                      A                      A
 Frequencies --    240.7345               280.4476               305.5901
 Red. masses --     11.5024                 1.5502                 3.3897
 Frc consts  --      0.3927                 0.0718                 0.1865
 IR Inten    --     11.2027                43.5990                32.5596

                      7                      8                      9
                      A                      A                      A
 Frequencies --    358.3175               432.6980               450.6424
 Red. masses --      8.3947                12.5593                12.7958
 Frc consts  --      0.6350                 1.3854                 1.5310
 IR Inten    --      8.9022                14.1050                21.8749

                     10                     11                     12
                      A                      A                      A
 Frequencies --    498.5340               549.2251               572.8999
 Red. masses --     13.8187                17.8205                13.6780
 Frc consts  --      2.0235                 3.1672                 2.6450
 IR Inten    --    237.3420                 0.6264                20.2409

                     13                     14                     15
                      A                      A                      A
 Frequencies --    753.6360               856.0760               905.1690
 Red. masses --     17.2547                15.6096                17.9974
 Frc consts  --      5.7741                 6.7401                 8.6880
 IR Inten    --      1.0193                93.8710                89.8583

                     16                     17                     18
                      A                      A                      A
 Frequencies --   1068.5706              1178.9326              1208.0172
 Red. masses --     14.0504                 1.4231                10.1962
 Frc consts  --      9.4525                 1.1654                 8.7667
 IR Inten    --    104.0407               157.5542               148.2522

                     19                     20                     21
                      A                      A                      A
 Frequencies --   1241.3449              1266.8563              3771.7088
 Red. masses --      5.0145                11.8300                 1.0655
 Frc consts  --      4.5526                11.1864                 8.9310
 IR Inten    --    186.6355               239.8880               144.1767

 - Thermochemistry -
 -------------------
 Temperature   298.150 Kelvin.  Pressure   1.00000 Atm.
 Atom     1 has atomic number  6 and mass  12.00000

 Molecular mass:   149.95985 amu.
 Principal axes and moments of inertia in atomic units:
                           1         2         3
     Eigenvalues --   573.330251248.120701424.84626
           X            0.96204   0.10635  -0.25133
           Y            0.01344   0.90137   0.43284
           Z            0.27258  -0.41979   0.86573
 This molecule is an asymmetric top.
 Rotational symmetry number  1.
 Warning -- assumption of classical behavior for rotation
           may cause significant error
 Rotational temperatures (Kelvin)      0.15107     0.06940     0.06079
 Rotational constants (GHZ):           3.14782     1.44597     1.26662
 Zero-point vibrational energy      97718.5 (Joules/Mol)
                                   23.35527 (Kcal/Mol)
 Warning -- explicit consideration of  12 degrees of freedom as
           vibrations may cause significant error
 Vibrational temperatures:    101.94   210.15   260.32   346.36   403.50
          (Kelvin)            439.68   515.54   622.56   648.37   717.28
                              790.21   824.28  1084.31  1231.70  1302.34
                             1537.43  1696.22  1738.07  1786.02  1822.72
                             5426.65

 Zero-point correction=                           0.037219 (Hartree/Particle)
 Thermal correction to Energy=                    0.045227
 Thermal correction to Enthalpy=                  0.046171
 Thermal correction to Gibbs Free Energy=         0.004133
 Sum of electronic and zero-point Energies=           -961.922091
 Sum of electronic and thermal Energies=              -961.914083
 Sum of electronic and thermal Enthalpies=            -961.913138
 Sum of electronic and thermal Free Energies=         -961.955177

                     E (Thermal)             CV                S
                      KCal/Mol        Cal/Mol-Kelvin    Cal/Mol-Kelvin
 Total                   28.381             27.511             88.477
 Electronic               0.000              0.000              0.000
 Translational            0.889              2.981             40.926
 Rotational               0.889              2.981             28.413
 Vibrational             26.603             21.550             19.139
 Vibration     1          0.598              1.968              4.129
 Vibration     2          0.617              1.907              2.723
 Vibration     3          0.630              1.866              2.319
 Vibration     4          0.658              1.778              1.797
 Vibration     5          0.680              1.710              1.531
 Vibration     6          0.696              1.663              1.386
 Vibration     7          0.733              1.558              1.129
 Vibration     8          0.794              1.399              0.850
 Vibration     9          0.809              1.359              0.794
 Vibration    10          0.854              1.253              0.662
 Vibration    11          0.904              1.141              0.546
 Vibration    12          0.929              1.090              0.499

 Optimization completed.
    -- Stationary point found.
 Normal termination of Gaussian 16 at Sun May 25 05:36:46 2025.
