 Gaussian 16, Revision C.01,
 Gaussian 16:  ES64L-G16RevC.01  3-Jul-2019

 -----------------------------------------------------------------
 #P M062X/Def2TZVPP Symm(None) scf(xqc) pop(None) freq opt(CalcFC)
 -----------------------------------------------------------------

 ------------------------------
 Gaussian input prepared by ASE
 ------------------------------
 Symbolic Z-matrix:
 Charge =  0 Multiplicity = 2

 SCF Done:  E(UM062X) =  -337.599905345     A.U. after   14 cycles
 Optimization completed.
    -- Stationary point found.
 Normal termination of Gaussian 16 at Sun May 25 03:25:14 2025.

 ---------------------------------------------------------------------
 #P Geom=AllCheck Guess=TCheck SCRF=Check GenChk UM062X/def2TZVPP Freq
 ---------------------------------------------------------------------

 Structure from the checkpoint file:  "/tmp/Gau-216169.chk"
 ------------------------------
 Gaussian input prepared by ASE
 ------------------------------
 Charge =  0 Multiplicity = 2

                          Input orientation:
 ---------------------------------------------------------------------
 Center     Atomic      Atomic             Coordinates (Angstroms)
 Number     Number       Type             X           Y           Z
 ---------------------------------------------------------------------
      1          6           0       -0.102204   -0.060320    0.060736
      2          9           0       -0.559370    0.620158   -0.963139
      3          9           0       -0.533603    0.438483    1.194414
      4          9           0       -0.400256   -1.333332   -0.042913
 ---------------------------------------------------------------------

 SCF Done:  E(UM062X) =  -337.599905345     A.U. after    1 cycles

 Isotropic polarizability for W=    0.000000       14.82 Bohr**3.
 End of Minotr F.D. properties file   721 does not exist.

                      1                      2                      3
                      A                      A                      A
 Frequencies --    518.5606               518.6909               712.6737
 Red. masses --     18.2274                18.2265                16.1439
 Frc consts  --      2.8878                 2.8892                 4.8310
 IR Inten    --      2.2835                 2.2857                16.4648

                      4                      5                      6
                      A                      A                      A
 Frequencies --   1126.8606              1317.4810              1317.8407
 Red. masses --     14.5587                13.3495                13.3500
 Frc consts  --     10.8921                13.6522                13.6602
 IR Inten    --     47.3897               366.5055               366.6786

 - Thermochemistry -
 -------------------
 Temperature   298.150 Kelvin.  Pressure   1.00000 Atm.
 Atom     1 has atomic number  6 and mass  12.00000

 Molecular mass:    68.99521 amu.
 Principal axes and moments of inertia in atomic units:
                           1         2         3
     Eigenvalues --   164.59996 164.62494 318.07888
           X            0.02219  -0.07570   0.99688
           Y           -0.21552   0.97332   0.07871
           Z            0.97625   0.21659  -0.00528
 This molecule is an asymmetric top.
 Rotational symmetry number  1.
 Rotational temperatures (Kelvin)      0.52621     0.52613     0.27230
 Rotational constants (GHZ):          10.96441    10.96274     5.67388
 Zero-point vibrational energy      32969.7 (Joules/Mol)
                                    7.87995 (Kcal/Mol)
 Warning -- explicit consideration of   2 degrees of freedom as
           vibrations may cause significant error
 Vibrational temperatures:    746.09   746.28  1025.38  1621.30  1895.56
          (Kelvin)           1896.08

 Zero-point correction=                           0.012558 (Hartree/Particle)
 Thermal correction to Energy=                    0.015962
 Thermal correction to Enthalpy=                  0.016907
 Thermal correction to Gibbs Free Energy=        -0.014112
 Sum of electronic and zero-point Energies=           -337.587348
 Sum of electronic and thermal Energies=              -337.583943
 Sum of electronic and thermal Enthalpies=            -337.582999
 Sum of electronic and thermal Free Energies=         -337.614017

                     E (Thermal)             CV                S
                      KCal/Mol        Cal/Mol-Kelvin    Cal/Mol-Kelvin
 Total                   10.017              9.721             65.284
 Electronic               0.000              0.000              1.377
 Translational            0.889              2.981             38.612
 Rotational               0.889              2.981             23.670
 Vibrational              8.239              3.760              1.624
 Vibration     1          0.874              1.209              0.613
 Vibration     2          0.874              1.209              0.613

 Optimization completed.
    -- Stationary point found.
 Normal termination of Gaussian 16 at Sun May 25 03:25:31 2025.
