 Gaussian 16, Revision C.01,
 Gaussian 16:  ES64L-G16RevC.01  3-Jul-2019

 -----------------------------------------------------------------
 #P M062X/Def2TZVPP Symm(None) scf(xqc) pop(None) freq opt(CalcFC)
 -----------------------------------------------------------------

 ------------------------------
 Gaussian input prepared by ASE
 ------------------------------
 Symbolic Z-matrix:
 Charge =  0 Multiplicity = 2

 SCF Done:  E(UM062X) =  -624.413412046     A.U. after   19 cycles
 Optimization completed.
    -- Stationary point found.
 Normal termination of Gaussian 16 at Sun May 25 03:25:37 2025.

 ---------------------------------------------------------------------
 #P Geom=AllCheck Guess=TCheck SCRF=Check GenChk UM062X/def2TZVPP Freq
 ---------------------------------------------------------------------

 Structure from the checkpoint file:  "/tmp/Gau-216170.chk"
 ------------------------------
 Gaussian input prepared by ASE
 ------------------------------
 Charge =  0 Multiplicity = 2

                          Input orientation:
 ---------------------------------------------------------------------
 Center     Atomic      Atomic             Coordinates (Angstroms)
 Number     Number       Type             X           Y           Z
 ---------------------------------------------------------------------
      1         16           0        1.735056    0.056035    0.030259
      2          8           0        2.244083   -0.465567    1.262543
      3          8           0        2.202967   -0.388624   -1.256526
      4          8           0        1.945806    1.643916    0.105319
      5          1           0        1.938036    2.002085   -0.793818
 ---------------------------------------------------------------------

 SCF Done:  E(UM062X) =  -624.413412046     A.U. after    1 cycles

 Isotropic polarizability for W=    0.000000       28.50 Bohr**3.
 End of Minotr F.D. properties file   721 does not exist.

                      1                      2                      3
                      A                      A                      A
 Frequencies --    301.6142               437.1703               446.7658
 Red. masses --      1.3136                 3.2981                15.1899
 Frc consts  --      0.0704                 0.3714                 1.7863
 IR Inten    --     96.4233                31.4836                17.0509

                      4                      5                      6
                      A                      A                      A
 Frequencies --    552.5937               828.4254              1124.6272
 Red. masses --     20.3650                16.9810                 1.1796
 Frc consts  --      3.6639                 6.8663                 0.8790
 IR Inten    --     34.9594               172.0648                79.0393

                      7                      8                      9
                      A                      A                      A
 Frequencies --   1158.2590              1371.9038              3811.0311
 Red. masses --     17.9083                12.5128                 1.0659
 Frc consts  --     14.1552                13.8756                 9.1215
 IR Inten    --     91.6175               182.6639               167.4572

 - Thermochemistry -
 -------------------
 Temperature   298.150 Kelvin.  Pressure   1.00000 Atm.
 Atom     1 has atomic number 16 and mass  31.97207

 Molecular mass:    80.96464 amu.
 Principal axes and moments of inertia in atomic units:
                           1         2         3
     Eigenvalues --   190.43218 197.64821 363.97873
           X            0.05502  -0.08325   0.99501
           Y           -0.45381   0.88556   0.09918
           Z            0.88940   0.45701  -0.01094
 This molecule is an asymmetric top.
 Rotational symmetry number  1.
 Rotational temperatures (Kelvin)      0.45483     0.43822     0.23796
 Rotational constants (GHZ):           9.47708     9.13108     4.95837
 Zero-point vibrational energy      60007.0 (Joules/Mol)
                                   14.34202 (Kcal/Mol)
 Warning -- explicit consideration of   4 degrees of freedom as
           vibrations may cause significant error
 Vibrational temperatures:    433.96   628.99   642.80   795.06  1191.92
          (Kelvin)           1618.09  1666.48  1973.86  5483.22

 Zero-point correction=                           0.022855 (Hartree/Particle)
 Thermal correction to Energy=                    0.026957
 Thermal correction to Enthalpy=                  0.027901
 Thermal correction to Gibbs Free Energy=        -0.004643
 Sum of electronic and zero-point Energies=           -624.390557
 Sum of electronic and thermal Energies=              -624.386455
 Sum of electronic and thermal Enthalpies=            -624.385511
 Sum of electronic and thermal Free Energies=         -624.418055

                     E (Thermal)             CV                S
                      KCal/Mol        Cal/Mol-Kelvin    Cal/Mol-Kelvin
 Total                   16.916             12.738             68.496
 Electronic               0.000              0.000              1.377
 Translational            0.889              2.981             39.089
 Rotational               0.889              2.981             24.131
 Vibrational             15.138              6.777              3.899
 Vibration     1          0.694              1.671              1.408
 Vibration     2          0.797              1.389              0.836
 Vibration     3          0.806              1.368              0.806
 Vibration     4          0.908              1.134              0.539

 Optimization completed.
    -- Stationary point found.
 Normal termination of Gaussian 16 at Sun May 25 03:26:14 2025.
