 Gaussian 16, Revision C.01,
 Gaussian 16:  ES64L-G16RevC.01  3-Jul-2019

 ----------------------------------------------------------------------
 #P M062X/Def2TZVPP Symm(None) scf(xqc) pop(None) freq opt(CalcFC, Tigh
 t)
 ----------------------------------------------------------------------

 ------------------------------
 Gaussian input prepared by ASE
 ------------------------------
 Symbolic Z-matrix:
 Charge =  0 Multiplicity = 1

 SCF Done:  E(RM062X) =  -475.566858482     A.U. after   11 cycles
 Optimization completed.
    -- Stationary point found.
 Normal termination of Gaussian 16 at Sat May 24 09:40:20 2025.

 ---------------------------------------------------------------------
 #P Geom=AllCheck Guess=TCheck SCRF=Check GenChk RM062X/def2TZVPP Freq
 ---------------------------------------------------------------------

 Structure from the checkpoint file:  "/tmp/Gau-114778.chk"
 ------------------------------
 Gaussian input prepared by ASE
 ------------------------------
 Charge =  0 Multiplicity = 1

                          Input orientation:
 ---------------------------------------------------------------------
 Center     Atomic      Atomic             Coordinates (Angstroms)
 Number     Number       Type             X           Y           Z
 ---------------------------------------------------------------------
      1          6           0        0.922150   -1.861345   -0.590645
      2          6           0        1.653313   -0.770628   -0.682624
      3          9           0        1.660334    0.172203    0.228628
      4          9           0        2.447935   -0.517900   -1.694555
      5          9           0        0.915125   -2.804160   -1.501897
      6          9           0        0.127532   -2.114095    0.421283
 ---------------------------------------------------------------------

 SCF Done:  E(RM062X) =  -475.566858482     A.U. after    1 cycles

 Isotropic polarizability for W=    0.000000       25.84 Bohr**3.
 End of Minotr F.D. properties file   721 does not exist.

                      1                      2                      3
                      A                      A                      A
 Frequencies --    206.6363               209.8637               403.3067
 Red. masses --     18.9914                18.1716                18.9462
 Frc consts  --      0.4778                 0.4715                 1.8157
 IR Inten    --      0.0376                 4.6565                 0.0000

                      4                      5                      6
                      A                      A                      A
 Frequencies --    431.6802               563.2721               564.1958
 Red. masses --     13.1639                17.3975                17.3235
 Frc consts  --      1.4453                 3.2522                 3.2490
 IR Inten    --      3.5618                 2.9831                 0.0000

                      7                      8                      9
                      A                      A                      A
 Frequencies --    593.1680               823.3577              1231.7772
 Red. masses --     12.3040                18.5716                14.0604
 Frc consts  --      2.5507                 7.4178                12.5693
 IR Inten    --      0.0000                 0.0000               401.5499

                     10                     11                     12
                      A                      A                      A
 Frequencies --   1397.2559              1402.1081              1971.2170
 Red. masses --     13.5960                12.9957                12.1983
 Frc consts  --     15.6391                15.0527                27.9266
 IR Inten    --    425.4912                 0.0023                 0.0000

 - Thermochemistry -
 -------------------
 Temperature   298.150 Kelvin.  Pressure   1.00000 Atm.
 Atom     1 has atomic number  6 and mass  12.00000

 Molecular mass:    99.99361 amu.
 Principal axes and moments of inertia in atomic units:
                           1         2         3
     Eigenvalues --   325.32483 553.67270 878.99754
           X            0.55551  -0.35966   0.74970
           Y            0.82857   0.31515  -0.46276
           Z           -0.06983   0.87825   0.47307
 This molecule is an asymmetric top.
 Rotational symmetry number  1.
 Rotational temperatures (Kelvin)      0.26624     0.15644     0.09854
 Rotational constants (GHZ):           5.54751     3.25958     2.05318
 Zero-point vibrational energy      58604.1 (Joules/Mol)
                                   14.00671 (Kcal/Mol)
 Warning -- explicit consideration of   7 degrees of freedom as
           vibrations may cause significant error
 Vibrational temperatures:    297.30   301.95   580.27   621.09   810.42
          (Kelvin)            811.75   853.44  1184.63  1772.25  2010.34
                             2017.32  2836.14

 Zero-point correction=                           0.022321 (Hartree/Particle)
 Thermal correction to Energy=                    0.027464
 Thermal correction to Enthalpy=                  0.028408
 Thermal correction to Gibbs Free Energy=        -0.006733
 Sum of electronic and zero-point Energies=           -475.544537
 Sum of electronic and thermal Energies=              -475.539395
 Sum of electronic and thermal Enthalpies=            -475.538451
 Sum of electronic and thermal Free Energies=         -475.573591

                     E (Thermal)             CV                S
                      KCal/Mol        Cal/Mol-Kelvin    Cal/Mol-Kelvin
 Total                   17.234             16.771             73.959
 Electronic               0.000              0.000              0.000
 Translational            0.889              2.981             39.718
 Rotational               0.889              2.981             26.562
 Vibrational             15.456             10.809              7.679
 Vibration     1          0.641              1.830              2.073
 Vibration     2          0.642              1.826              2.045
 Vibration     3          0.769              1.463              0.951
 Vibration     4          0.793              1.401              0.853
 Vibration     5          0.919              1.111              0.517
 Vibration     6          0.920              1.109              0.516
 Vibration     7          0.951              1.046              0.462

 Optimization completed.
    -- Stationary point found.
 Normal termination of Gaussian 16 at Sat May 24 09:40:54 2025.
