 Gaussian 16, Revision C.01,
 Gaussian 16:  ES64L-G16RevC.01  3-Jul-2019

 ----------------------------------------------------------------------
 #P M062X/Def2TZVPP Symm(None) scf(xqc) pop(None) freq opt(CalcFC, Tigh
 t)
 ----------------------------------------------------------------------

 ------------------------------
 Gaussian input prepared by ASE
 ------------------------------
 Symbolic Z-matrix:
 Charge =  0 Multiplicity = 1

 SCF Done:  E(RM062X) =  -724.319086791     A.U. after   13 cycles
 SCF Done:  E(RM062X) =  -724.321695407     A.U. after   13 cycles
 SCF Done:  E(RM062X) =  -724.306286003     A.U. after   14 cycles
 SCF Done:  E(RM062X) =  -724.322333895     A.U. after   11 cycles
 SCF Done:  E(RM062X) =  -724.323024951     A.U. after   13 cycles
 SCF Done:  E(RM062X) =  -724.323379500     A.U. after   11 cycles
 SCF Done:  E(RM062X) =  -724.323407976     A.U. after    8 cycles
 SCF Done:  E(RM062X) =  -724.323409551     A.U. after    8 cycles
 SCF Done:  E(RM062X) =  -724.323409775     A.U. after    7 cycles
 SCF Done:  E(RM062X) =  -724.323409780     A.U. after    5 cycles
 Optimization completed.
    -- Stationary point found.
 Normal termination of Gaussian 16 at Sat May 24 05:34:39 2025.

 ---------------------------------------------------------------------
 #P Geom=AllCheck Guess=TCheck SCRF=Check GenChk RM062X/def2TZVPP Freq
 ---------------------------------------------------------------------

 Structure from the checkpoint file:  "/tmp/Gau-247136.chk"
 ------------------------------
 Gaussian input prepared by ASE
 ------------------------------
 Charge =  0 Multiplicity = 1

                          Input orientation:
 ---------------------------------------------------------------------
 Center     Atomic      Atomic             Coordinates (Angstroms)
 Number     Number       Type             X           Y           Z
 ---------------------------------------------------------------------
      1          9           0        0.090403    0.185213   -0.095889
      2         16           0        1.616722   -0.032153    0.048687
      3          8           0        1.822655   -0.665822    1.283855
      4          8           0        2.062581   -0.544813   -1.188004
      5          8           0        2.057226    1.457639    0.194878
      6          1           0        2.217476    1.845334   -0.676978
 ---------------------------------------------------------------------

 SCF Done:  E(RM062X) =  -724.323409780     A.U. after    1 cycles

 Isotropic polarizability for W=    0.000000       27.38 Bohr**3.
 End of Minotr F.D. properties file   721 does not exist.

                      1                      2                      3
                      A                      A                      A
 Frequencies --    298.4535               385.1116               425.9284
 Red. masses --      1.3498                14.9050                 3.4673
 Frc consts  --      0.0708                 1.3024                 0.3706
 IR Inten    --     80.2354                 0.4553                27.7186

                      4                      5                      6
                      A                      A                      A
 Frequencies --    528.6874               554.8996               567.6760
 Red. masses --      7.5312                18.2552                15.3169
 Frc consts  --      1.2403                 3.3118                 2.9082
 IR Inten    --     31.1554                28.5381                45.8166

                      7                      8                      9
                      A                      A                      A
 Frequencies --    869.0700               945.1810              1161.4546
 Red. masses --     19.8720                18.1622                 1.1897
 Frc consts  --      8.8430                 9.5598                 0.9456
 IR Inten    --    172.7049               259.1405                83.6398

                     10                     11                     12
                      A                      A                      A
 Frequencies --   1287.6848              1529.9149              3814.7113
 Red. masses --     18.5405                14.8878                 1.0657
 Frc consts  --     18.1130                20.5312                 9.1372
 IR Inten    --    204.2532               320.4851               184.4067

 - Thermochemistry -
 -------------------
 Temperature   298.150 Kelvin.  Pressure   1.00000 Atm.
 Atom     1 has atomic number  9 and mass  18.99840

 Molecular mass:    99.96304 amu.
 Principal axes and moments of inertia in atomic units:
                           1         2         3
     Eigenvalues --   352.43652 355.78295 361.41147
           X            0.71264   0.59473  -0.37208
           Y            0.51982  -0.09150   0.84936
           Z           -0.47110   0.79870   0.37436
 This molecule is an asymmetric top.
 Rotational symmetry number  1.
 Rotational temperatures (Kelvin)      0.24576     0.24345     0.23965
 Rotational constants (GHZ):           5.12076     5.07259     4.99359
 Zero-point vibrational energy      73981.7 (Joules/Mol)
                                   17.68205 (Kcal/Mol)
 Warning -- explicit consideration of   6 degrees of freedom as
           vibrations may cause significant error
 Vibrational temperatures:    429.41   554.09   612.82   760.66   798.38
          (Kelvin)            816.76  1250.40  1359.90  1671.07  1852.69
                             2201.21  5488.52

 Zero-point correction=                           0.028178 (Hartree/Particle)
 Thermal correction to Energy=                    0.032753
 Thermal correction to Enthalpy=                  0.033697
 Thermal correction to Gibbs Free Energy=         0.000272
 Sum of electronic and zero-point Energies=           -724.295232
 Sum of electronic and thermal Energies=              -724.290657
 Sum of electronic and thermal Enthalpies=            -724.289713
 Sum of electronic and thermal Free Energies=         -724.323138

                     E (Thermal)             CV                S
                      KCal/Mol        Cal/Mol-Kelvin    Cal/Mol-Kelvin
 Total                   20.553             15.409             70.348
 Electronic               0.000              0.000              0.000
 Translational            0.889              2.981             39.717
 Rotational               0.889              2.981             25.319
 Vibrational             18.775              9.447              5.312
 Vibration     1          0.692              1.677              1.426
 Vibration     2          0.754              1.502              1.019
 Vibration     3          0.788              1.414              0.872
 Vibration     4          0.884              1.187              0.590
 Vibration     5          0.910              1.129              0.534
 Vibration     6          0.924              1.101              0.509

 Optimization completed.
    -- Stationary point found.
 Normal termination of Gaussian 16 at Sat May 24 05:35:12 2025.
