 Gaussian 16, Revision C.01,
 Gaussian 16:  ES64L-G16RevC.01  3-Jul-2019

 ----------------------------------------------------------------------
 #P M062X/Def2TZVPP Symm(None) scf(xqc) pop(None) freq opt(CalcFC, Tigh
 t)
 ----------------------------------------------------------------------

 ------------------------------
 Gaussian input prepared by ASE
 ------------------------------
 Symbolic Z-matrix:
 Charge =  0 Multiplicity = 1

 SCF Done:  E(RM062X) =  -724.318071401     A.U. after   13 cycles
 SCF Done:  E(RM062X) =  -724.322464210     A.U. after   13 cycles
 SCF Done:  E(RM062X) =  -724.322920438     A.U. after   11 cycles
 SCF Done:  E(RM062X) =  -724.323088617     A.U. after   11 cycles
 SCF Done:  E(RM062X) =  -724.323244135     A.U. after   11 cycles
 SCF Done:  E(RM062X) =  -724.323330977     A.U. after   10 cycles
 SCF Done:  E(RM062X) =  -724.323391562     A.U. after   10 cycles
 SCF Done:  E(RM062X) =  -724.323409125     A.U. after    9 cycles
 SCF Done:  E(RM062X) =  -724.323413410     A.U. after    8 cycles
 SCF Done:  E(RM062X) =  -724.323413474     A.U. after    7 cycles
 SCF Done:  E(RM062X) =  -724.323413474     A.U. after    4 cycles
 Optimization completed.
    -- Stationary point found.
 Normal termination of Gaussian 16 at Sat May 24 05:34:51 2025.

 ---------------------------------------------------------------------
 #P Geom=AllCheck Guess=TCheck SCRF=Check GenChk RM062X/def2TZVPP Freq
 ---------------------------------------------------------------------

 Structure from the checkpoint file:  "/tmp/Gau-247135.chk"
 ------------------------------
 Gaussian input prepared by ASE
 ------------------------------
 Charge =  0 Multiplicity = 1

                          Input orientation:
 ---------------------------------------------------------------------
 Center     Atomic      Atomic             Coordinates (Angstroms)
 Number     Number       Type             X           Y           Z
 ---------------------------------------------------------------------
      1          9           0       -0.049081   -0.187457    0.094135
      2         16           0        1.484535    0.015735    0.027398
      3          8           0        2.019779   -0.537017    1.201129
      4          8           0        1.877324   -0.359174   -1.275022
      5          8           0        1.526033    1.569318    0.166967
      6          1           0        1.455125    1.984661   -0.704013
 ---------------------------------------------------------------------

 SCF Done:  E(RM062X) =  -724.323413474     A.U. after    1 cycles

 Isotropic polarizability for W=    0.000000       27.38 Bohr**3.
 End of Minotr F.D. properties file   721 does not exist.

                      1                      2                      3
                      A                      A                      A
 Frequencies --    283.2829               385.3311               422.9755
 Red. masses --      1.2967                14.7758                 3.8854
 Frc consts  --      0.0613                 1.2926                 0.4096
 IR Inten    --     84.8207                 0.4348                23.9489

                      4                      5                      6
                      A                      A                      A
 Frequencies --    528.9644               554.9758               567.8368
 Red. masses --      7.5207                18.1614                15.4110
 Frc consts  --      1.2398                 3.2957                 2.9277
 IR Inten    --     31.3442                27.8228                45.9307

                      7                      8                      9
                      A                      A                      A
 Frequencies --    869.1455               943.4270              1161.2696
 Red. masses --     19.8749                18.1768                 1.1898
 Frc consts  --      8.8459                 9.5320                 0.9453
 IR Inten    --    171.5563               260.2577                83.9993

                     10                     11                     12
                      A                      A                      A
 Frequencies --   1287.3216              1529.4370              3818.8169
 Red. masses --     18.5351                14.8707                 1.0657
 Frc consts  --     18.0975                20.4949                 9.1568
 IR Inten    --    203.0070               320.4203               184.4042

 - Thermochemistry -
 -------------------
 Temperature   298.150 Kelvin.  Pressure   1.00000 Atm.
 Atom     1 has atomic number  9 and mass  18.99840

 Molecular mass:    99.96304 amu.
 Principal axes and moments of inertia in atomic units:
                           1         2         3
     Eigenvalues --   352.40353 355.79046 361.44022
           X            0.47445   0.70035  -0.53329
           Y            0.69147   0.07840   0.71814
           Z           -0.54476   0.70948   0.44707
 This molecule is an asymmetric top.
 Rotational symmetry number  1.
 Rotational temperatures (Kelvin)      0.24578     0.24344     0.23964
 Rotational constants (GHZ):           5.12123     5.07248     4.99319
 Zero-point vibrational energy      73886.1 (Joules/Mol)
                                   17.65919 (Kcal/Mol)
 Warning -- explicit consideration of   6 degrees of freedom as
           vibrations may cause significant error
 Vibrational temperatures:    407.58   554.41   608.57   761.06   798.49
          (Kelvin)            816.99  1250.51  1357.38  1670.81  1852.17
                             2200.52  5494.43

 Zero-point correction=                           0.028142 (Hartree/Particle)
 Thermal correction to Energy=                    0.032738
 Thermal correction to Enthalpy=                  0.033682
 Thermal correction to Gibbs Free Energy=         0.000212
 Sum of electronic and zero-point Energies=           -724.295272
 Sum of electronic and thermal Energies=              -724.290675
 Sum of electronic and thermal Enthalpies=            -724.289731
 Sum of electronic and thermal Free Energies=         -724.323202

                     E (Thermal)             CV                S
                      KCal/Mol        Cal/Mol-Kelvin    Cal/Mol-Kelvin
 Total                   20.543             15.444             70.445
 Electronic               0.000              0.000              0.000
 Translational            0.889              2.981             39.717
 Rotational               0.889              2.981             25.319
 Vibrational             18.766              9.482              5.409
 Vibration     1          0.682              1.705              1.514
 Vibration     2          0.754              1.501              1.018
 Vibration     3          0.785              1.420              0.882
 Vibration     4          0.884              1.186              0.590
 Vibration     5          0.910              1.129              0.534
 Vibration     6          0.924              1.101              0.508

 Optimization completed.
    -- Stationary point found.
 Normal termination of Gaussian 16 at Sat May 24 05:35:22 2025.
