 Gaussian 16, Revision C.01,
 Gaussian 16:  ES64L-G16RevC.01  3-Jul-2019

 ----------------------------------------------------------------------
 #P M062X/Def2TZVPP Symm(None) scf(xqc) pop(None) freq opt(CalcFC, Tigh
 t)
 ----------------------------------------------------------------------

 ------------------------------
 Gaussian input prepared by ASE
 ------------------------------
 Symbolic Z-matrix:
 Charge =  0 Multiplicity = 1

 SCF Done:  E(RM062X) =  -724.323407205     A.U. after   13 cycles
 SCF Done:  E(RM062X) =  -724.323407229     A.U. after    6 cycles
 Optimization completed.
    -- Stationary point found.
 Normal termination of Gaussian 16 at Sat May 24 05:33:55 2025.

 ---------------------------------------------------------------------
 #P Geom=AllCheck Guess=TCheck SCRF=Check GenChk RM062X/def2TZVPP Freq
 ---------------------------------------------------------------------

 Structure from the checkpoint file:  "/tmp/Gau-158653.chk"
 ------------------------------
 Gaussian input prepared by ASE
 ------------------------------
 Charge =  0 Multiplicity = 1

                          Input orientation:
 ---------------------------------------------------------------------
 Center     Atomic      Atomic             Coordinates (Angstroms)
 Number     Number       Type             X           Y           Z
 ---------------------------------------------------------------------
      1          9           0       -0.000073   -0.000151   -0.000144
      2         16           0        1.548494    0.000054   -0.000061
      3          8           0        1.944288   -0.546360    1.239227
      4          8           0        1.955686   -0.499143   -1.246853
      5          8           0        1.787089    1.542092    0.000022
      6          1           0        1.807017    1.876659    0.907671
 ---------------------------------------------------------------------

 SCF Done:  E(RM062X) =  -724.323407229     A.U. after    1 cycles

 Isotropic polarizability for W=    0.000000       27.38 Bohr**3.
 End of Minotr F.D. properties file   721 does not exist.

                      1                      2                      3
                      A                      A                      A
 Frequencies --    289.9771               385.1752               424.9140
 Red. masses --      1.3172                14.9178                 3.7088
 Frc consts  --      0.0653                 1.3040                 0.3945
 IR Inten    --     82.9868                 0.4204                25.3147

                      4                      5                      6
                      A                      A                      A
 Frequencies --    529.1349               555.0972               568.1505
 Red. masses --      7.5228                18.2349                15.3268
 Frc consts  --      1.2410                 3.3105                 2.9149
 IR Inten    --     31.2528                28.2075                45.4909

                      7                      8                      9
                      A                      A                      A
 Frequencies --    869.1475               944.3081              1162.5297
 Red. masses --     19.8777                18.1609                 1.1892
 Frc consts  --      8.8471                 9.5415                 0.9469
 IR Inten    --    172.1170               259.8705                84.8162

                     10                     11                     12
                      A                      A                      A
 Frequencies --   1289.3001              1531.2466              3817.5040
 Red. masses --     18.5257                14.9027                 1.0657
 Frc consts  --     18.1440                20.5876                 9.1505
 IR Inten    --    202.7312               320.7009               184.2261

 - Thermochemistry -
 -------------------
 Temperature   298.150 Kelvin.  Pressure   1.00000 Atm.
 Atom     1 has atomic number  9 and mass  18.99840

 Molecular mass:    99.96304 amu.
 Principal axes and moments of inertia in atomic units:
                           1         2         3
     Eigenvalues --   352.43292 355.77459 361.42621
           X            0.58373  -0.67423  -0.45241
           Y            0.57033  -0.05611   0.81950
           Z            0.57791   0.73639  -0.35178
 This molecule is an asymmetric top.
 Rotational symmetry number  1.
 Rotational temperatures (Kelvin)      0.24576     0.24345     0.23964
 Rotational constants (GHZ):           5.12081     5.07271     4.99339
 Zero-point vibrational energy      73968.0 (Joules/Mol)
                                   17.67878 (Kcal/Mol)
 Warning -- explicit consideration of   6 degrees of freedom as
           vibrations may cause significant error
 Vibrational temperatures:    417.21   554.18   611.36   761.31   798.66
          (Kelvin)            817.44  1250.51  1358.65  1672.62  1855.02
                             2203.12  5492.54

 Zero-point correction=                           0.028173 (Hartree/Particle)
 Thermal correction to Energy=                    0.032758
 Thermal correction to Enthalpy=                  0.033702
 Thermal correction to Gibbs Free Energy=         0.000254
 Sum of electronic and zero-point Energies=           -724.295234
 Sum of electronic and thermal Energies=              -724.290649
 Sum of electronic and thermal Enthalpies=            -724.289705
 Sum of electronic and thermal Free Energies=         -724.323153

                     E (Thermal)             CV                S
                      KCal/Mol        Cal/Mol-Kelvin    Cal/Mol-Kelvin
 Total                   20.556             15.423             70.397
 Electronic               0.000              0.000              0.000
 Translational            0.889              2.981             39.717
 Rotational               0.889              2.981             25.319
 Vibrational             18.779              9.461              5.361
 Vibration     1          0.686              1.692              1.474
 Vibration     2          0.754              1.502              1.019
 Vibration     3          0.787              1.416              0.875
 Vibration     4          0.884              1.186              0.589
 Vibration     5          0.911              1.129              0.534
 Vibration     6          0.924              1.100              0.508

 Optimization completed.
    -- Stationary point found.
 Normal termination of Gaussian 16 at Sat May 24 05:34:41 2025.
