 Gaussian 16, Revision C.01,
 Gaussian 16:  ES64L-G16RevC.01  3-Jul-2019

 ----------------------------------------------------------------------
 #P M062X/Def2TZVPP Symm(None) scf(xqc) pop(None) freq opt(CalcFC, Tigh
 t)
 ----------------------------------------------------------------------

 ------------------------------
 Gaussian input prepared by ASE
 ------------------------------
 Symbolic Z-matrix:
 Charge =  0 Multiplicity = 2

 SCF Done:  E(UM062X) =  -862.193617772     A.U. after   17 cycles
 SCF Done:  E(UM062X) =  -862.193617870     A.U. after    7 cycles
 SCF Done:  E(UM062X) =  -862.193617870     A.U. after    5 cycles
 Optimization completed.
    -- Stationary point found.
 Normal termination of Gaussian 16 at Sat May 24 00:39:21 2025.

 ---------------------------------------------------------------------
 #P Geom=AllCheck Guess=TCheck SCRF=Check GenChk UM062X/def2TZVPP Freq
 ---------------------------------------------------------------------

 Structure from the checkpoint file:  "/tmp/Gau-277026.chk"
 ------------------------------
 Gaussian input prepared by ASE
 ------------------------------
 Charge =  0 Multiplicity = 2

                          Input orientation:
 ---------------------------------------------------------------------
 Center     Atomic      Atomic             Coordinates (Angstroms)
 Number     Number       Type             X           Y           Z
 ---------------------------------------------------------------------
      1          6           0        1.923934   -0.564638    1.617688
      2          9           0        1.344357    0.057440    2.616457
      3          9           0        3.212017   -0.684700    1.796404
      4         16           0        1.419018   -0.000073   -0.000080
      5          8           0        2.208243   -0.703413   -0.935246
      6          8           0       -0.000242    0.000183   -0.000008
      7          8           0        1.917564    1.501581   -0.000889
      8          1           0        1.192955    2.085913    0.263608
 ---------------------------------------------------------------------

 SCF Done:  E(UM062X) =  -862.193617870     A.U. after    1 cycles

 Isotropic polarizability for W=    0.000000       39.85 Bohr**3.
 End of Minotr F.D. properties file   721 does not exist.

                      1                      2                      3
                      A                      A                      A
 Frequencies --     62.1073               175.0354               191.5764
 Red. masses --     14.5397                 7.3210                12.8166
 Frc consts  --      0.0330                 0.1322                 0.2771
 IR Inten    --      1.0225                 4.6263                 5.0976

                      4                      5                      6
                      A                      A                      A
 Frequencies --    308.0237               342.5018               398.7413
 Red. masses --      1.5758                17.1136                 3.6990
 Frc consts  --      0.0881                 1.1828                 0.3465
 IR Inten    --     66.4834                 0.3202                23.2291

                      7                      8                      9
                      A                      A                      A
 Frequencies --    486.8497               490.5309               582.7367
 Red. masses --      9.0640                 7.0151                17.1787
 Frc consts  --      1.2658                 0.9945                 3.4370
 IR Inten    --     38.1450                10.2690                60.4542

                     10                     11                     12
                      A                      A                      A
 Frequencies --    606.1633               726.1767               884.9396
 Red. masses --     14.2889                16.7644                17.7487
 Frc consts  --      3.0933                 5.2086                 8.1892
 IR Inten    --     39.1464                35.3320               227.9510

                     13                     14                     15
                      A                      A                      A
 Frequencies --   1135.1575              1240.7665              1322.2408
 Red. masses --      1.1864                16.5212                14.1023
 Frc consts  --      0.9007                14.9855                14.5265
 IR Inten    --     74.2142               272.6241                80.3933

                     16                     17                     18
                      A                      A                      A
 Frequencies --   1341.0443              1503.8869              3816.1363
 Red. masses --     13.5225                15.3948                 1.0657
 Frc consts  --     14.3283                20.5142                 9.1440
 IR Inten    --    127.0161               301.8314               181.8273

 - Thermochemistry -
 -------------------
 Temperature   298.150 Kelvin.  Pressure   1.00000 Atm.
 Atom     1 has atomic number  6 and mass  12.00000

 Molecular mass:   130.96145 amu.
 Principal axes and moments of inertia in atomic units:
                           1         2         3
     Eigenvalues --   520.94669 866.779531028.95121
           X            0.35348   0.84388   0.40363
           Y           -0.18662  -0.35920   0.91441
           Z            0.91664  -0.39855   0.03052
 This molecule is an asymmetric top.
 Rotational symmetry number  1.
 Warning -- assumption of classical behavior for rotation
           may cause significant error
 Rotational temperatures (Kelvin)      0.16626     0.09993     0.08418
 Rotational constants (GHZ):           3.46435     2.08212     1.75396
 Zero-point vibrational energy      93396.1 (Joules/Mol)
                                   22.32221 (Kcal/Mol)
 Warning -- explicit consideration of  10 degrees of freedom as
           vibrations may cause significant error
 Vibrational temperatures:     89.36   251.84   275.64   443.18   492.78
          (Kelvin)            573.70   700.47   705.76   838.43   872.13
                             1044.81  1273.23  1633.24  1785.19  1902.41
                             1929.46  2163.76  5490.57

 Zero-point correction=                           0.035573 (Hartree/Particle)
 Thermal correction to Energy=                    0.042492
 Thermal correction to Enthalpy=                  0.043436
 Thermal correction to Gibbs Free Energy=         0.003088
 Sum of electronic and zero-point Energies=           -862.158045
 Sum of electronic and thermal Energies=              -862.151126
 Sum of electronic and thermal Enthalpies=            -862.150182
 Sum of electronic and thermal Free Energies=         -862.190530

                     E (Thermal)             CV                S
                      KCal/Mol        Cal/Mol-Kelvin    Cal/Mol-Kelvin
 Total                   26.664             23.090             84.921
 Electronic               0.000              0.000              1.377
 Translational            0.889              2.981             40.522
 Rotational               0.889              2.981             27.632
 Vibrational             24.887             17.129             15.390
 Vibration     1          0.597              1.972              4.389
 Vibration     2          0.627              1.873              2.381
 Vibration     3          0.634              1.852              2.213
 Vibration     4          0.698              1.658              1.373
 Vibration     5          0.722              1.591              1.200
 Vibration     6          0.765              1.473              0.967
 Vibration     7          0.843              1.279              0.692
 Vibration     8          0.846              1.271              0.682
 Vibration     9          0.940              1.069              0.480
 Vibration    10          0.965              1.019              0.439

 Optimization completed.
    -- Stationary point found.
 Normal termination of Gaussian 16 at Sat May 24 00:41:22 2025.
