 Gaussian 16, Revision C.01,
 Gaussian 16:  ES64L-G16RevC.01  3-Jul-2019

 ----------------------------------------------------------------------
 #P M062X/Def2TZVPP Symm(None) scf(xqc) pop(None) freq opt(CalcFC, Tigh
 t)
 ----------------------------------------------------------------------

 ------------------------------
 Gaussian input prepared by ASE
 ------------------------------
 Symbolic Z-matrix:
 Charge =  0 Multiplicity = 2

 SCF Done:  E(UM062X) =  -862.190102145     A.U. after   17 cycles
 SCF Done:  E(UM062X) =  -862.193121299     A.U. after   15 cycles
 SCF Done:  E(UM062X) =  -862.193472908     A.U. after   13 cycles
 SCF Done:  E(UM062X) =  -862.193511679     A.U. after   12 cycles
 SCF Done:  E(UM062X) =  -862.193518407     A.U. after    8 cycles
 SCF Done:  E(UM062X) =  -862.193551861     A.U. after    9 cycles
 SCF Done:  E(UM062X) =  -862.193608688     A.U. after   11 cycles
 SCF Done:  E(UM062X) =  -862.193619887     A.U. after    9 cycles
 SCF Done:  E(UM062X) =  -862.193622988     A.U. after    9 cycles
 SCF Done:  E(UM062X) =  -862.193623028     A.U. after    7 cycles
 SCF Done:  E(UM062X) =  -862.193623028     A.U. after    4 cycles
 Optimization completed.
    -- Stationary point found.
 Normal termination of Gaussian 16 at Sat May 24 00:41:47 2025.

 ---------------------------------------------------------------------
 #P Geom=AllCheck Guess=TCheck SCRF=Check GenChk UM062X/def2TZVPP Freq
 ---------------------------------------------------------------------

 Structure from the checkpoint file:  "/tmp/Gau-48715.chk"
 ------------------------------
 Gaussian input prepared by ASE
 ------------------------------
 Charge =  0 Multiplicity = 2

                          Input orientation:
 ---------------------------------------------------------------------
 Center     Atomic      Atomic             Coordinates (Angstroms)
 Number     Number       Type             X           Y           Z
 ---------------------------------------------------------------------
      1          6           0        1.955524   -0.511502    1.566053
      2          9           0        1.341315    0.005611    2.596078
      3          9           0        3.259897   -0.443921    1.686005
      4         16           0        1.332007   -0.015855   -0.032819
      5          8           0        2.091957   -0.727442   -0.997416
      6          8           0       -0.076040   -0.061595    0.053057
      7          8           0        1.748957    1.509096   -0.096471
      8          1           0        2.590390    1.597466   -0.566217
 ---------------------------------------------------------------------

 SCF Done:  E(UM062X) =  -862.193623028     A.U. after    1 cycles

 Isotropic polarizability for W=    0.000000       39.85 Bohr**3.
 End of Minotr F.D. properties file   721 does not exist.

                      1                      2                      3
                      A                      A                      A
 Frequencies --     65.2584               175.7146               193.8293
 Red. masses --     14.5758                 7.9312                13.3832
 Frc consts  --      0.0366                 0.1443                 0.2962
 IR Inten    --      1.0205                 4.0864                 4.5536

                      4                      5                      6
                      A                      A                      A
 Frequencies --    321.2188               342.3146               402.9038
 Red. masses --      1.7130                16.2845                 3.0983
 Frc consts  --      0.1041                 1.1243                 0.2963
 IR Inten    --     59.7259                 0.6930                29.2480

                      7                      8                      9
                      A                      A                      A
 Frequencies --    486.9492               491.4164               582.7871
 Red. masses --      9.8428                 6.2693                17.1524
 Frc consts  --      1.3751                 0.8920                 3.4324
 IR Inten    --     38.2082                10.9102                60.3641

                     10                     11                     12
                      A                      A                      A
 Frequencies --    606.3611               725.5074               885.7802
 Red. masses --     14.3020                16.7463                17.7244
 Frc consts  --      3.0982                 5.1934                 8.1936
 IR Inten    --     39.6367                35.2926               228.3106

                     13                     14                     15
                      A                      A                      A
 Frequencies --   1138.7126              1239.9886              1321.9348
 Red. masses --      1.1860                16.4418                14.1004
 Frc consts  --      0.9061                14.8949                14.5178
 IR Inten    --     73.6875               272.5209                79.3855

                     16                     17                     18
                      A                      A                      A
 Frequencies --   1341.0388              1503.2963              3811.5356
 Red. masses --     13.5027                15.3137                 1.0657
 Frc consts  --     14.3071                20.3902                 9.1219
 IR Inten    --    128.5061               302.1786               182.5358

 - Thermochemistry -
 -------------------
 Temperature   298.150 Kelvin.  Pressure   1.00000 Atm.
 Atom     1 has atomic number  6 and mass  12.00000

 Molecular mass:   130.96145 amu.
 Principal axes and moments of inertia in atomic units:
                           1         2         3
     Eigenvalues --   520.93779 866.795551028.92983
           X            0.37867   0.89775   0.22508
           Y           -0.13406  -0.18742   0.97309
           Z            0.91577  -0.39865   0.04938
 This molecule is an asymmetric top.
 Rotational symmetry number  1.
 Warning -- assumption of classical behavior for rotation
           may cause significant error
 Rotational temperatures (Kelvin)      0.16627     0.09992     0.08418
 Rotational constants (GHZ):           3.46441     2.08208     1.75400
 Zero-point vibrational energy      93527.3 (Joules/Mol)
                                   22.35357 (Kcal/Mol)
 Warning -- explicit consideration of  10 degrees of freedom as
           vibrations may cause significant error
 Vibrational temperatures:     93.89   252.81   278.88   462.16   492.51
          (Kelvin)            579.69   700.61   707.04   838.50   872.42
                             1043.84  1274.44  1638.35  1784.07  1901.97
                             1929.46  2162.91  5483.95

 Zero-point correction=                           0.035623 (Hartree/Particle)
 Thermal correction to Energy=                    0.042510
 Thermal correction to Enthalpy=                  0.043454
 Thermal correction to Gibbs Free Energy=         0.003207
 Sum of electronic and zero-point Energies=           -862.158000
 Sum of electronic and thermal Energies=              -862.151113
 Sum of electronic and thermal Enthalpies=            -862.150169
 Sum of electronic and thermal Free Energies=         -862.190416

                     E (Thermal)             CV                S
                      KCal/Mol        Cal/Mol-Kelvin    Cal/Mol-Kelvin
 Total                   26.676             23.046             84.708
 Electronic               0.000              0.000              1.377
 Translational            0.889              2.981             40.522
 Rotational               0.889              2.981             27.632
 Vibrational             24.898             17.085             15.177
 Vibration     1          0.597              1.971              4.292
 Vibration     2          0.628              1.872              2.373
 Vibration     3          0.635              1.848              2.191
 Vibration     4          0.707              1.633              1.304
 Vibration     5          0.721              1.591              1.201
 Vibration     6          0.768              1.464              0.952
 Vibration     7          0.843              1.279              0.692
 Vibration     8          0.847              1.269              0.680
 Vibration     9          0.940              1.069              0.480
 Vibration    10          0.965              1.018              0.439

 Optimization completed.
    -- Stationary point found.
 Normal termination of Gaussian 16 at Sat May 24 00:43:46 2025.
