 Gaussian 16, Revision C.01,
 Gaussian 16:  ES64L-G16RevC.01  3-Jul-2019

 ----------------------------------------------------------------------
 #P M062X/Def2TZVPP Symm(None) scf(xqc) pop(None) freq opt(CalcFC, Tigh
 t)
 ----------------------------------------------------------------------

 ------------------------------
 Gaussian input prepared by ASE
 ------------------------------
 Symbolic Z-matrix:
 Charge =  0 Multiplicity = 2

 SCF Done:  E(UM062X) =  -862.184219941     A.U. after   17 cycles
 SCF Done:  E(UM062X) =  -862.190012751     A.U. after   13 cycles
 SCF Done:  E(UM062X) =  -862.192382066     A.U. after   14 cycles
 SCF Done:  E(UM062X) =  -862.192908385     A.U. after   12 cycles
 SCF Done:  E(UM062X) =  -862.193367690     A.U. after   13 cycles
 SCF Done:  E(UM062X) =  -862.193563265     A.U. after   12 cycles
 SCF Done:  E(UM062X) =  -862.193609249     A.U. after   11 cycles
 SCF Done:  E(UM062X) =  -862.193621324     A.U. after   11 cycles
 SCF Done:  E(UM062X) =  -862.193622159     A.U. after    8 cycles
 SCF Done:  E(UM062X) =  -862.193622179     A.U. after    6 cycles
 SCF Done:  E(UM062X) =  -862.193622180     A.U. after    4 cycles
 Optimization completed.
    -- Stationary point found.
 Normal termination of Gaussian 16 at Sat May 24 00:42:31 2025.

 ---------------------------------------------------------------------
 #P Geom=AllCheck Guess=TCheck SCRF=Check GenChk UM062X/def2TZVPP Freq
 ---------------------------------------------------------------------

 Structure from the checkpoint file:  "/tmp/Gau-42543.chk"
 ------------------------------
 Gaussian input prepared by ASE
 ------------------------------
 Charge =  0 Multiplicity = 2

                          Input orientation:
 ---------------------------------------------------------------------
 Center     Atomic      Atomic             Coordinates (Angstroms)
 Number     Number       Type             X           Y           Z
 ---------------------------------------------------------------------
      1          6           0        1.881264   -0.654075    1.676509
      2          9           0        1.172088   -0.241280    2.692486
      3          9           0        3.166457   -0.647510    1.938492
      4         16           0        1.443985    0.050320    0.094215
      5          8           0        2.284343   -0.569266   -0.867113
      6          8           0        0.034088    0.047018    0.028729
      7          8           0        1.902216    1.555515    0.260419
      8          1           0        2.791479    1.667848   -0.104326
 ---------------------------------------------------------------------

 SCF Done:  E(UM062X) =  -862.193622180     A.U. after    1 cycles

 Isotropic polarizability for W=    0.000000       39.84 Bohr**3.
 End of Minotr F.D. properties file   721 does not exist.

                      1                      2                      3
                      A                      A                      A
 Frequencies --     65.1472               176.0814               193.2379
 Red. masses --     14.5662                 7.4874                13.4349
 Frc consts  --      0.0364                 0.1368                 0.2956
 IR Inten    --      1.0525                 4.5066                 4.6972

                      4                      5                      6
                      A                      A                      A
 Frequencies --    314.2844               342.2515               400.4441
 Red. masses --      1.6263                16.9084                 3.4159
 Frc consts  --      0.0946                 1.1669                 0.3227
 IR Inten    --     63.8815                 0.3927                25.7685

                      7                      8                      9
                      A                      A                      A
 Frequencies --    487.4493               490.5060               582.9967
 Red. masses --      9.6595                 6.5576                17.1674
 Frc consts  --      1.3523                 0.9296                 3.4378
 IR Inten    --     38.4460                10.3959                60.0745

                     10                     11                     12
                      A                      A                      A
 Frequencies --    606.4463               725.6932               886.2810
 Red. masses --     14.2877                16.7553                17.7650
 Frc consts  --      3.0960                 5.1989                 8.2216
 IR Inten    --     39.3658                35.2334               228.6252

                     13                     14                     15
                      A                      A                      A
 Frequencies --   1135.5463              1241.2095              1322.2719
 Red. masses --      1.1857                16.5852                14.1281
 Frc consts  --      0.9008                15.0543                14.5538
 IR Inten    --     74.4260               272.7897                76.9661

                     16                     17                     18
                      A                      A                      A
 Frequencies --   1341.0306              1503.4286              3815.9388
 Red. masses --     13.5184                15.3827                 1.0657
 Frc consts  --     14.3236                20.4855                 9.1431
 IR Inten    --    129.5037               301.9846               181.8020

 - Thermochemistry -
 -------------------
 Temperature   298.150 Kelvin.  Pressure   1.00000 Atm.
 Atom     1 has atomic number  6 and mass  12.00000

 Molecular mass:   130.96145 amu.
 Principal axes and moments of inertia in atomic units:
                           1         2         3
     Eigenvalues --   520.89043 866.789601028.90737
           X            0.27522   0.93076   0.24072
           Y           -0.25527  -0.17065   0.95169
           Z            0.92687  -0.32337   0.19063
 This molecule is an asymmetric top.
 Rotational symmetry number  1.
 Warning -- assumption of classical behavior for rotation
           may cause significant error
 Rotational temperatures (Kelvin)      0.16628     0.09992     0.08418
 Rotational constants (GHZ):           3.46472     2.08210     1.75404
 Zero-point vibrational energy      93489.6 (Joules/Mol)
                                   22.34456 (Kcal/Mol)
 Warning -- explicit consideration of  10 degrees of freedom as
           vibrations may cause significant error
 Vibrational temperatures:     93.73   253.34   278.03   452.19   492.42
          (Kelvin)            576.15   701.33   705.73   838.80   872.54
                             1044.11  1275.16  1633.80  1785.82  1902.45
                             1929.44  2163.10  5490.28

 Zero-point correction=                           0.035608 (Hartree/Particle)
 Thermal correction to Energy=                    0.042507
 Thermal correction to Enthalpy=                  0.043451
 Thermal correction to Gibbs Free Energy=         0.003180
 Sum of electronic and zero-point Energies=           -862.158014
 Sum of electronic and thermal Energies=              -862.151115
 Sum of electronic and thermal Enthalpies=            -862.150171
 Sum of electronic and thermal Free Energies=         -862.190442

                     E (Thermal)             CV                S
                      KCal/Mol        Cal/Mol-Kelvin    Cal/Mol-Kelvin
 Total                   26.674             23.066             84.758
 Electronic               0.000              0.000              1.377
 Translational            0.889              2.981             40.522
 Rotational               0.889              2.981             27.632
 Vibrational             24.896             17.105             15.227
 Vibration     1          0.597              1.971              4.295
 Vibration     2          0.628              1.872              2.370
 Vibration     3          0.635              1.849              2.197
 Vibration     4          0.702              1.646              1.340
 Vibration     5          0.721              1.591              1.202
 Vibration     6          0.766              1.469              0.961
 Vibration     7          0.843              1.278              0.690
 Vibration     8          0.846              1.271              0.682
 Vibration     9          0.940              1.068              0.480
 Vibration    10          0.965              1.018              0.439

 Optimization completed.
    -- Stationary point found.
 Normal termination of Gaussian 16 at Sat May 24 00:44:30 2025.
