 Gaussian 16, Revision C.01,
 Gaussian 16:  ES64L-G16RevC.01  3-Jul-2019

 ----------------------------------------------------------------------
 #P M062X/Def2TZVPP Symm(None) scf(xqc) pop(None) freq opt(CalcFC, Tigh
 t)
 ----------------------------------------------------------------------

 ------------------------------
 Gaussian input prepared by ASE
 ------------------------------
 Symbolic Z-matrix:
 Charge =  0 Multiplicity = 1

 SCF Done:  E(RM062X) =  -962.135396190     A.U. after   14 cycles
 SCF Done:  E(RM062X) =  -962.138710984     A.U. after   15 cycles
 SCF Done:  E(RM062X) =  -962.115274691     A.U. after   15 cycles
 SCF Done:  E(RM062X) =  -962.140052103     A.U. after   13 cycles
 SCF Done:  E(RM062X) =  -962.144109484     A.U. after   14 cycles
 SCF Done:  E(RM062X) =  -962.145022895     A.U. after   12 cycles
 SCF Done:  E(RM062X) =  -962.145140254     A.U. after   11 cycles
 SCF Done:  E(RM062X) =  -962.145152212     A.U. after   10 cycles
 SCF Done:  E(RM062X) =  -962.145154557     A.U. after    8 cycles
 SCF Done:  E(RM062X) =  -962.145155161     A.U. after    7 cycles
 SCF Done:  E(RM062X) =  -962.145155446     A.U. after    8 cycles
 SCF Done:  E(RM062X) =  -962.145155476     A.U. after    6 cycles
 SCF Done:  E(RM062X) =  -962.145155485     A.U. after    5 cycles
 SCF Done:  E(RM062X) =  -962.145155494     A.U. after    5 cycles
 SCF Done:  E(RM062X) =  -962.145155496     A.U. after    5 cycles
 Optimization completed.
    -- Stationary point found.
 Normal termination of Gaussian 16 at Sat May 24 10:31:13 2025.

 ---------------------------------------------------------------------
 #P Geom=AllCheck Guess=TCheck SCRF=Check GenChk RM062X/def2TZVPP Freq
 ---------------------------------------------------------------------

 Structure from the checkpoint file:  "/tmp/Gau-68442.chk"
 ------------------------------
 Gaussian input prepared by ASE
 ------------------------------
 Charge =  0 Multiplicity = 1

                          Input orientation:
 ---------------------------------------------------------------------
 Center     Atomic      Atomic             Coordinates (Angstroms)
 Number     Number       Type             X           Y           Z
 ---------------------------------------------------------------------
      1          6           0       -0.757095    0.742416    0.928435
      2         16           0        1.641009    0.047928   -0.052308
      3          8           0       -0.036467   -0.005361    0.057312
      4          8           0        2.155326   -0.579516    1.129386
      5          8           0        1.849180    1.621560    0.123599
      6          9           0       -1.875629    0.106024    1.217034
      7          9           0       -0.095568    0.973146    2.067088
      8          9           0       -1.068734    1.922751    0.406408
      9          1           0        1.916028    1.843294    1.067141
 ---------------------------------------------------------------------

 SCF Done:  E(RM062X) =  -962.145155496     A.U. after    1 cycles

 Isotropic polarizability for W=    0.000000       42.62 Bohr**3.
 End of Minotr F.D. properties file   721 does not exist.

                      1                      2                      3
                      A                      A                      A
 Frequencies --     61.3407                93.4280               179.8666
 Red. masses --     15.0104                12.1916                11.2803
 Frc consts  --      0.0333                 0.0627                 0.2150
 IR Inten    --      0.3953                 0.5145                 0.6178

                      4                      5                      6
                      A                      A                      A
 Frequencies --    313.5686               316.9852               347.0019
 Red. masses --      7.8854                15.9589                 1.7556
 Frc consts  --      0.4568                 0.9448                 0.1245
 IR Inten    --     14.1360                 2.2166                12.6196

                      7                      8                      9
                      A                      A                      A
 Frequencies --    456.4173               490.5683               525.2467
 Red. masses --     17.0230                 3.7249                10.9535
 Frc consts  --      2.0893                 0.5282                 1.7804
 IR Inten    --      4.3328                36.8726               126.4405

                     10                     11                     12
                      A                      A                      A
 Frequencies --    545.1713               631.1860               702.6803
 Red. masses --      4.9071                17.4617                14.5300
 Frc consts  --      0.8593                 4.0987                 4.2270
 IR Inten    --     95.9694                 7.4052                 7.3068

                     13                     14                     15
                      A                      A                      A
 Frequencies --    749.8641               847.8740               978.2765
 Red. masses --     16.3331                14.7487                16.6235
 Frc consts  --      5.4111                 6.2469                 9.3733
 IR Inten    --    134.0585               164.5514               101.6617

                     16                     17                     18
                      A                      A                      A
 Frequencies --   1124.0427              1222.2098              1258.9982
 Red. masses --      1.2938                13.0994                11.9504
 Frc consts  --      0.9631                11.5290                11.1605
 IR Inten    --     63.7113               407.9281               516.1154

                     19                     20                     21
                      A                      A                      A
 Frequencies --   1310.2013              1334.1245              3752.7153
 Red. masses --     12.0988                10.5118                 1.0646
 Frc consts  --     12.2368                11.0235                 8.8333
 IR Inten    --    416.2795               239.9293               126.0917

 - Thermochemistry -
 -------------------
 Temperature   298.150 Kelvin.  Pressure   1.00000 Atm.
 Atom     1 has atomic number  6 and mass  12.00000

 Molecular mass:   149.95985 amu.
 Principal axes and moments of inertia in atomic units:
                           1         2         3
     Eigenvalues --   535.073741351.043221468.40295
           X            0.95464   0.10566   0.27837
           Y           -0.19921   0.92150   0.33339
           Z           -0.22129  -0.37372   0.90076
 This molecule is an asymmetric top.
 Rotational symmetry number  1.
 Warning -- assumption of classical behavior for rotation
           may cause significant error
 Rotational temperatures (Kelvin)      0.16187     0.06411     0.05899
 Rotational constants (GHZ):           3.37288     1.33581     1.22905
 Zero-point vibrational energy     103128.7 (Joules/Mol)
                                   24.64834 (Kcal/Mol)
 Warning -- explicit consideration of  10 degrees of freedom as
           vibrations may cause significant error
 Vibrational temperatures:     88.26   134.42   258.79   451.16   456.07
          (Kelvin)            499.26   656.68   705.82   755.71   784.38
                              908.14  1011.00  1078.89  1219.90  1407.52
                             1617.25  1758.49  1811.42  1885.09  1919.51
                             5399.32

 Zero-point correction=                           0.039280 (Hartree/Particle)
 Thermal correction to Energy=                    0.046846
 Thermal correction to Enthalpy=                  0.047791
 Thermal correction to Gibbs Free Energy=         0.006182
 Sum of electronic and zero-point Energies=           -962.105876
 Sum of electronic and thermal Energies=              -962.098309
 Sum of electronic and thermal Enthalpies=            -962.097365
 Sum of electronic and thermal Free Energies=         -962.138974

                     E (Thermal)             CV                S
                      KCal/Mol        Cal/Mol-Kelvin    Cal/Mol-Kelvin
 Total                   29.397             25.987             87.573
 Electronic               0.000              0.000              0.000
 Translational            0.889              2.981             40.926
 Rotational               0.889              2.981             28.453
 Vibrational             27.619             20.026             18.194
 Vibration     1          0.597              1.973              4.414
 Vibration     2          0.602              1.954              3.587
 Vibration     3          0.629              1.867              2.330
 Vibration     4          0.701              1.648              1.343
 Vibration     5          0.704              1.641              1.326
 Vibration     6          0.725              1.581              1.180
 Vibration     7          0.815              1.347              0.777
 Vibration     8          0.846              1.271              0.682
 Vibration     9          0.880              1.194              0.598
 Vibration    10          0.900              1.150              0.554

 Optimization completed.
    -- Stationary point found.
 Normal termination of Gaussian 16 at Sat May 24 10:33:07 2025.
