 Gaussian 16, Revision C.01,
 Gaussian 16:  ES64L-G16RevC.01  3-Jul-2019

 ----------------------------------------------------------------------
 #P M062X/Def2TZVPP Symm(None) scf(xqc) pop(None) freq opt(CalcFC, Tigh
 t)
 ----------------------------------------------------------------------

 ------------------------------
 Gaussian input prepared by ASE
 ------------------------------
 Symbolic Z-matrix:
 Charge =  0 Multiplicity = 1

 SCF Done:  E(RM062X) =  -962.117187958     A.U. after   13 cycles
 SCF Done:  E(RM062X) =  -962.123661127     A.U. after   13 cycles
 SCF Done:  E(RM062X) =  -962.125115173     A.U. after   11 cycles
 SCF Done:  E(RM062X) =  -962.125628512     A.U. after   11 cycles
 SCF Done:  E(RM062X) =  -962.125805898     A.U. after   10 cycles
 SCF Done:  E(RM062X) =  -962.125871920     A.U. after   10 cycles
 SCF Done:  E(RM062X) =  -962.125885729     A.U. after    9 cycles
 SCF Done:  E(RM062X) =  -962.125889433     A.U. after    9 cycles
 SCF Done:  E(RM062X) =  -962.125890077     A.U. after    8 cycles
 SCF Done:  E(RM062X) =  -962.125890079     A.U. after    5 cycles
 Optimization completed.
    -- Stationary point found.
 Normal termination of Gaussian 16 at Sat May 24 06:22:52 2025.

 ---------------------------------------------------------------------
 #P Geom=AllCheck Guess=TCheck SCRF=Check GenChk RM062X/def2TZVPP Freq
 ---------------------------------------------------------------------

 Structure from the checkpoint file:  "/tmp/Gau-208228.chk"
 ------------------------------
 Gaussian input prepared by ASE
 ------------------------------
 Charge =  0 Multiplicity = 1

                          Input orientation:
 ---------------------------------------------------------------------
 Center     Atomic      Atomic             Coordinates (Angstroms)
 Number     Number       Type             X           Y           Z
 ---------------------------------------------------------------------
      1          6           0       -0.069257   -0.060157   -0.063264
      2          9           0       -0.544220    0.437729   -1.188229
      3          9           0       -0.570797    0.617583    0.960520
      4         16           0        1.766143    0.067001   -0.032533
      5          8           0        2.185665   -0.388551    1.244113
      6          8           0        2.241622   -0.462652   -1.251210
      7          8           0        1.912831    1.631229   -0.100117
      8          9           0       -0.410941   -1.329657    0.040919
      9          1           0        1.960130    1.999827    0.793814
 ---------------------------------------------------------------------

 SCF Done:  E(RM062X) =  -962.125890079     A.U. after    1 cycles

 Isotropic polarizability for W=    0.000000       41.21 Bohr**3.
 End of Minotr F.D. properties file   721 does not exist.

                      1                      2                      3
                      A                      A                      A
 Frequencies --     60.5828               186.6755               194.7592
 Red. masses --     13.4585                 6.9734                15.9952
 Frc consts  --      0.0291                 0.1432                 0.3575
 IR Inten    --      1.4050                10.3104                 3.4740

                      4                      5                      6
                      A                      A                      A
 Frequencies --    309.6878               318.8225               342.3130
 Red. masses --      9.0041                 2.7792                13.6424
 Frc consts  --      0.5088                 0.1664                 0.9419
 IR Inten    --      1.8519                35.9599                 1.6593

                      7                      8                      9
                      A                      A                      A
 Frequencies --    371.5910               471.3675               506.8828
 Red. masses --      2.3250                 4.4040                15.0604
 Frc consts  --      0.1891                 0.5765                 2.2798
 IR Inten    --     43.9274                27.4460                26.5848

                     10                     11                     12
                      A                      A                      A
 Frequencies --    571.1998               576.9857               631.9197
 Red. masses --     15.6506                16.3883                20.0025
 Frc consts  --      3.0086                 3.2145                 4.7061
 IR Inten    --      0.8918                 2.8230               159.1706

                     13                     14                     15
                      A                      A                      A
 Frequencies --    794.4539               906.9751              1138.9944
 Red. masses --     17.7159                17.5993                 1.1841
 Frc consts  --      6.5880                 8.5298                 0.9051
 IR Inten    --      3.7508               218.0791                87.4317

                     16                     17                     18
                      A                      A                      A
 Frequencies --   1197.8218              1275.2825              1295.7084
 Red. masses --     14.8193                13.3735                13.4071
 Frc consts  --     12.5274                12.8147                13.2617
 IR Inten    --    265.5676               162.7568               128.7093

                     19                     20                     21
                      A                      A                      A
 Frequencies --   1308.1897              1503.0832              3810.6340
 Red. masses --     15.2077                15.4002                 1.0657
 Frc consts  --     15.3340                20.4994                 9.1175
 IR Inten    --    241.1093               292.7821               186.4879

 - Thermochemistry -
 -------------------
 Temperature   298.150 Kelvin.  Pressure   1.00000 Atm.
 Atom     1 has atomic number  6 and mass  12.00000

 Molecular mass:   149.95985 amu.
 Principal axes and moments of inertia in atomic units:
                           1         2         3
     Eigenvalues --   673.856261131.931231139.38525
           X            0.99058  -0.09123  -0.10211
           Y            0.13556   0.54833   0.82520
           Z            0.01929   0.83127  -0.55553
 This molecule is an asymmetric top.
 Rotational symmetry number  1.
 Warning -- assumption of classical behavior for rotation
           may cause significant error
 Rotational temperatures (Kelvin)      0.12853     0.07652     0.07602
 Rotational constants (GHZ):           2.67823     1.59439     1.58396
 Zero-point vibrational energy     106311.7 (Joules/Mol)
                                   25.40911 (Kcal/Mol)
 Warning -- explicit consideration of  11 degrees of freedom as
           vibrations may cause significant error
 Vibrational temperatures:     87.17   268.58   280.22   445.57   458.71
          (Kelvin)            492.51   534.64   678.19   729.29   821.83
                              830.15   909.19  1143.04  1304.93  1638.76
                             1723.40  1834.85  1864.24  1882.19  2162.60
                             5482.65

 Zero-point correction=                           0.040492 (Hartree/Particle)
 Thermal correction to Energy=                    0.047970
 Thermal correction to Enthalpy=                  0.048914
 Thermal correction to Gibbs Free Energy=         0.007901
 Sum of electronic and zero-point Energies=           -962.085398
 Sum of electronic and thermal Energies=              -962.077920
 Sum of electronic and thermal Enthalpies=            -962.076976
 Sum of electronic and thermal Free Energies=         -962.117989

                     E (Thermal)             CV                S
                      KCal/Mol        Cal/Mol-Kelvin    Cal/Mol-Kelvin
 Total                   30.102             25.876             86.320
 Electronic               0.000              0.000              0.000
 Translational            0.889              2.981             40.926
 Rotational               0.889              2.981             28.254
 Vibrational             28.324             19.914             17.140
 Vibration     1          0.597              1.973              4.438
 Vibration     2          0.632              1.858              2.261
 Vibration     3          0.635              1.847              2.182
 Vibration     4          0.699              1.655              1.364
 Vibration     5          0.705              1.638              1.316
 Vibration     6          0.721              1.591              1.201
 Vibration     7          0.743              1.531              1.073
 Vibration     8          0.828              1.314              0.734
 Vibration     9          0.862              1.235              0.641
 Vibration    10          0.927              1.094              0.502
 Vibration    11          0.933              1.081              0.491

 Optimization completed.
    -- Stationary point found.
 Normal termination of Gaussian 16 at Sat May 24 06:24:49 2025.
