 Gaussian 16, Revision C.01,
 Gaussian 16:  ES64L-G16RevC.01  3-Jul-2019

 ----------------------------------------------------------------------
 #P M062X/Def2TZVPP Symm(None) scf(xqc) pop(None) freq opt(CalcFC, Tigh
 t)
 ----------------------------------------------------------------------

 ------------------------------
 Gaussian input prepared by ASE
 ------------------------------
 Symbolic Z-matrix:
 Charge =  0 Multiplicity = 1

 SCF Done:  E(RM062X) =  -962.146116891     A.U. after   14 cycles
 SCF Done:  E(RM062X) =  -962.146117001     A.U. after    7 cycles
 Optimization completed.
    -- Stationary point found.
 Normal termination of Gaussian 16 at Sat May 24 10:27:44 2025.

 ---------------------------------------------------------------------
 #P Geom=AllCheck Guess=TCheck SCRF=Check GenChk RM062X/def2TZVPP Freq
 ---------------------------------------------------------------------

 Structure from the checkpoint file:  "/tmp/Gau-217070.chk"
 ------------------------------
 Gaussian input prepared by ASE
 ------------------------------
 Charge =  0 Multiplicity = 1

                          Input orientation:
 ---------------------------------------------------------------------
 Center     Atomic      Atomic             Coordinates (Angstroms)
 Number     Number       Type             X           Y           Z
 ---------------------------------------------------------------------
      1          6           0       -0.633660   -1.189347    0.151946
      2         16           0        1.699479   -0.000100    0.000553
      3          8           0       -0.000121    0.000006   -0.001242
      4          8           0        2.076537   -0.481181    1.296001
      5          8           0        1.752093    1.583142    0.000042
      6          9           0       -1.852016   -1.083441   -0.347920
      7          9           0        0.004586   -2.171727   -0.490671
      8          9           0       -0.731945   -1.537955    1.426016
      9          1           0        1.413095    1.939036    0.837916
 ---------------------------------------------------------------------

 SCF Done:  E(RM062X) =  -962.146117001     A.U. after    1 cycles

 Isotropic polarizability for W=    0.000000       43.29 Bohr**3.
 End of Minotr F.D. properties file   721 does not exist.

                      1                      2                      3
                      A                      A                      A
 Frequencies --     43.7264                78.7264               155.2836
 Red. masses --     13.0252                14.4397                12.0362
 Frc consts  --      0.0147                 0.0527                 0.1710
 IR Inten    --      0.6424                 0.1332                 0.6944

                      4                      5                      6
                      A                      A                      A
 Frequencies --    251.3351               323.2507               360.0568
 Red. masses --      1.7798                15.9291                 3.9778
 Frc consts  --      0.0662                 0.9807                 0.3038
 IR Inten    --     44.0947                 1.0597                16.5598

                      7                      8                      9
                      A                      A                      A
 Frequencies --    424.5492               485.3912               514.0388
 Red. masses --     10.3279                 5.9463                 5.8638
 Frc consts  --      1.0968                 0.8254                 0.9129
 IR Inten    --     21.3151                56.0486                52.3215

                     10                     11                     12
                      A                      A                      A
 Frequencies --    565.0621               641.1482               691.7683
 Red. masses --     13.0229                16.4751                15.9217
 Frc consts  --      2.4499                 3.9902                 4.4891
 IR Inten    --     92.8323                12.5389                 3.1037

                     13                     14                     15
                      A                      A                      A
 Frequencies --    759.7728               880.4990               975.4896
 Red. masses --     17.2984                14.3112                17.2418
 Frc consts  --      5.8833                 6.5371                 9.6667
 IR Inten    --    162.8052               237.7990                43.2329

                     16                     17                     18
                      A                      A                      A
 Frequencies --   1127.2790              1247.0920              1263.5280
 Red. masses --      1.3398                 7.8779                11.9681
 Frc consts  --      1.0031                 7.2187                11.2576
 IR Inten    --    126.1796               346.3131               303.3185

                     19                     20                     21
                      A                      A                      A
 Frequencies --   1311.3633              1339.0140              3750.5110
 Red. masses --     12.9559                14.6045                 1.0646
 Frc consts  --     13.1269                15.4279                 8.8226
 IR Inten    --    494.2711               363.6669               122.6116

 - Thermochemistry -
 -------------------
 Temperature   298.150 Kelvin.  Pressure   1.00000 Atm.
 Atom     1 has atomic number  6 and mass  12.00000

 Molecular mass:   149.95985 amu.
 Principal axes and moments of inertia in atomic units:
                           1         2         3
     Eigenvalues --   509.293341488.899111615.87080
           X            0.81822  -0.45258  -0.35452
           Y            0.57276   0.69493   0.43476
           Z            0.04960  -0.55878   0.82783
 This molecule is an asymmetric top.
 Rotational symmetry number  1.
 Warning -- assumption of classical behavior for rotation
           may cause significant error
 Rotational temperatures (Kelvin)      0.17007     0.05817     0.05360
 Rotational constants (GHZ):           3.54362     1.21213     1.11688
 Zero-point vibrational energy     102812.4 (Joules/Mol)
                                   24.57275 (Kcal/Mol)
 Warning -- explicit consideration of  10 degrees of freedom as
           vibrations may cause significant error
 Vibrational temperatures:     62.91   113.27   223.42   361.62   465.09
          (Kelvin)            518.04   610.83   698.37   739.59   813.00
                              922.47   995.30  1093.14  1266.84  1403.51
                             1621.90  1794.29  1817.93  1886.76  1926.54
                             5396.15

 Zero-point correction=                           0.039159 (Hartree/Particle)
 Thermal correction to Energy=                    0.046906
 Thermal correction to Enthalpy=                  0.047850
 Thermal correction to Gibbs Free Energy=         0.005399
 Sum of electronic and zero-point Energies=           -962.106958
 Sum of electronic and thermal Energies=              -962.099211
 Sum of electronic and thermal Enthalpies=            -962.098267
 Sum of electronic and thermal Free Energies=         -962.140718

                     E (Thermal)             CV                S
                      KCal/Mol        Cal/Mol-Kelvin    Cal/Mol-Kelvin
 Total                   29.434             26.086             89.347
 Electronic               0.000              0.000              0.000
 Translational            0.889              2.981             40.926
 Rotational               0.889              2.981             28.595
 Vibrational             27.657             20.124             19.826
 Vibration     1          0.595              1.980              5.083
 Vibration     2          0.600              1.963              3.922
 Vibration     3          0.620              1.897              2.606
 Vibration     4          0.663              1.761              1.721
 Vibration     5          0.708              1.629              1.294
 Vibration     6          0.735              1.555              1.122
 Vibration     7          0.787              1.417              0.877
 Vibration     8          0.841              1.282              0.696
 Vibration     9          0.869              1.219              0.624
 Vibration    10          0.921              1.107              0.514

 Optimization completed.
    -- Stationary point found.
 Normal termination of Gaussian 16 at Sat May 24 10:29:31 2025.
