 Gaussian 16, Revision C.01,
 Gaussian 16:  ES64L-G16RevC.01  3-Jul-2019

 ----------------------------------------------------------------------
 #P M062X/Def2TZVPP Symm(None) scf(xqc) pop(None) freq opt(CalcFC, Tigh
 t)
 ----------------------------------------------------------------------

 ------------------------------
 Gaussian input prepared by ASE
 ------------------------------
 Symbolic Z-matrix:
 Charge =  0 Multiplicity = 1

 SCF Done:  E(RM062X) =  -962.128221908     A.U. after   14 cycles
 SCF Done:  E(RM062X) =  -962.131904004     A.U. after   14 cycles
 SCF Done:  E(RM062X) =  -962.126692463     A.U. after   15 cycles
 SCF Done:  E(RM062X) =  -962.139306364     A.U. after   14 cycles
 SCF Done:  E(RM062X) =  -962.115172678     A.U. after   14 cycles
 SCF Done:  E(RM062X) =  -962.140780593     A.U. after   13 cycles
 SCF Done:  E(RM062X) =  -962.116424619     A.U. after   14 cycles
 SCF Done:  E(RM062X) =  -962.141722062     A.U. after   12 cycles
 SCF Done:  E(RM062X) =  -962.141920404     A.U. after   11 cycles
 SCF Done:  E(RM062X) =  -962.142084116     A.U. after   11 cycles
 SCF Done:  E(RM062X) =  -962.142185365     A.U. after   11 cycles
 SCF Done:  E(RM062X) =  -962.142266136     A.U. after   10 cycles
 SCF Done:  E(RM062X) =  -962.142329353     A.U. after   11 cycles
 SCF Done:  E(RM062X) =  -962.142335417     A.U. after    9 cycles
 SCF Done:  E(RM062X) =  -962.142337306     A.U. after    9 cycles
 SCF Done:  E(RM062X) =  -962.142337567     A.U. after    7 cycles
 SCF Done:  E(RM062X) =  -962.142337574     A.U. after    5 cycles
 SCF Done:  E(RM062X) =  -962.142337575     A.U. after    5 cycles
 SCF Done:  E(RM062X) =  -962.142337575     A.U. after    4 cycles
 Optimization completed.
    -- Stationary point found.
 Normal termination of Gaussian 16 at Sat May 24 10:32:27 2025.

 ---------------------------------------------------------------------
 #P Geom=AllCheck Guess=TCheck SCRF=Check GenChk RM062X/def2TZVPP Freq
 ---------------------------------------------------------------------

 Structure from the checkpoint file:  "/tmp/Gau-235894.chk"
 ------------------------------
 Gaussian input prepared by ASE
 ------------------------------
 Charge =  0 Multiplicity = 1

                          Input orientation:
 ---------------------------------------------------------------------
 Center     Atomic      Atomic             Coordinates (Angstroms)
 Number     Number       Type             X           Y           Z
 ---------------------------------------------------------------------
      1          6           0       -0.750968    0.424418   -1.090733
      2         16           0        1.626563    0.060951   -0.089697
      3          8           0       -0.068421    0.183269    0.043375
      4          8           0        1.985813   -0.575639    1.131263
      5          8           0        1.945561    1.610013    0.155525
      6          9           0       -2.012689    0.660168   -0.801841
      7          9           0       -0.259302    1.500598   -1.740148
      8          9           0       -0.690141   -0.593008   -1.946071
      9          1           0        1.751743    2.127141   -0.639686
 ---------------------------------------------------------------------

 SCF Done:  E(RM062X) =  -962.142337575     A.U. after    1 cycles

 Isotropic polarizability for W=    0.000000       43.63 Bohr**3.
 End of Minotr F.D. properties file   721 does not exist.

                      1                      2                      3
                      A                      A                      A
 Frequencies --     54.8141                86.2620               165.4761
 Red. masses --     11.4287                13.2019                11.1992
 Frc consts  --      0.0202                 0.0579                 0.1807
 IR Inten    --      3.8081                 2.2231                 9.9783

                      4                      5                      6
                      A                      A                      A
 Frequencies --    264.5595               305.7424               358.3264
 Red. masses --      1.7174                13.0141                 2.6315
 Frc consts  --      0.0708                 0.7168                 0.1991
 IR Inten    --     51.2224                 7.8421                58.6969

                      7                      8                      9
                      A                      A                      A
 Frequencies --    415.9413               464.5309               504.9897
 Red. masses --     18.3388                11.7879                12.5885
 Frc consts  --      1.8693                 1.4987                 1.8914
 IR Inten    --     29.2740                20.2484                10.3502

                     10                     11                     12
                      A                      A                      A
 Frequencies --    557.4835               638.3366               688.1355
 Red. masses --     17.4911                17.0663                16.1575
 Frc consts  --      3.2028                 4.0972                 4.5079
 IR Inten    --     71.0730                 8.1702                 1.4320

                     13                     14                     15
                      A                      A                      A
 Frequencies --    751.3315               855.7342               963.7557
 Red. masses --     17.3646                11.2972                17.4029
 Frc consts  --      5.7753                 4.8742                 9.5237
 IR Inten    --    188.6876               110.9000                34.6313

                     16                     17                     18
                      A                      A                      A
 Frequencies --   1110.3770              1208.1237              1270.6341
 Red. masses --      1.2203                 9.7406                12.7119
 Frc consts  --      0.8864                 8.3764                12.0921
 IR Inten    --    230.1552               268.6648               605.8200

                     19                     20                     21
                      A                      A                      A
 Frequencies --   1323.6825              1370.1620              3807.3779
 Red. masses --     13.9590                14.1253                 1.0657
 Frc consts  --     14.4103                15.6240                 9.1021
 IR Inten    --    565.1053               104.1335               141.8131

 - Thermochemistry -
 -------------------
 Temperature   298.150 Kelvin.  Pressure   1.00000 Atm.
 Atom     1 has atomic number  6 and mass  12.00000

 Molecular mass:   149.95985 amu.
 Principal axes and moments of inertia in atomic units:
                           1         2         3
     Eigenvalues --   508.749041500.086481647.18672
           X            0.86063   0.21001  -0.46391
           Y           -0.06541   0.94904   0.30829
           Z            0.50502  -0.23498   0.83051
 This molecule is an asymmetric top.
 Rotational symmetry number  1.
 Warning -- assumption of classical behavior for rotation
           may cause significant error
 Rotational temperatures (Kelvin)      0.17025     0.05774     0.05258
 Rotational constants (GHZ):           3.54741     1.20309     1.09565
 Zero-point vibrational energy     102674.1 (Joules/Mol)
                                   24.53971 (Kcal/Mol)
 Warning -- explicit consideration of  10 degrees of freedom as
           vibrations may cause significant error
 Vibrational temperatures:     78.87   124.11   238.08   380.64   439.90
          (Kelvin)            515.55   598.45   668.36   726.57   802.09
                              918.42   990.07  1081.00  1231.21  1386.63
                             1597.58  1738.22  1828.16  1904.48  1971.36
                             5477.97

 Zero-point correction=                           0.039107 (Hartree/Particle)
 Thermal correction to Energy=                    0.046853
 Thermal correction to Enthalpy=                  0.047798
 Thermal correction to Gibbs Free Energy=         0.005605
 Sum of electronic and zero-point Energies=           -962.103231
 Sum of electronic and thermal Energies=              -962.095484
 Sum of electronic and thermal Enthalpies=            -962.094540
 Sum of electronic and thermal Free Energies=         -962.136732

                     E (Thermal)             CV                S
                      KCal/Mol        Cal/Mol-Kelvin    Cal/Mol-Kelvin
 Total                   29.401             26.274             88.801
 Electronic               0.000              0.000              0.000
 Translational            0.889              2.981             40.926
 Rotational               0.889              2.981             28.621
 Vibrational             27.624             20.313             19.254
 Vibration     1          0.596              1.976              4.636
 Vibration     2          0.601              1.959              3.743
 Vibration     3          0.624              1.885              2.486
 Vibration     4          0.671              1.738              1.631
 Vibration     5          0.696              1.663              1.385
 Vibration     6          0.733              1.558              1.129
 Vibration     7          0.779              1.436              0.906
 Vibration     8          0.822              1.329              0.753
 Vibration     9          0.860              1.239              0.646
 Vibration    10          0.913              1.123              0.529

 Optimization completed.
    -- Stationary point found.
 Normal termination of Gaussian 16 at Sat May 24 10:34:14 2025.
