 Gaussian 16, Revision C.01,
 Gaussian 16:  ES64L-G16RevC.01  3-Jul-2019

 ----------------------------------------------------------------------
 #P M062X/Def2TZVPP Symm(None) scf(xqc) pop(None) freq opt(CalcFC, Tigh
 t)
 ----------------------------------------------------------------------

 ------------------------------
 Gaussian input prepared by ASE
 ------------------------------
 Symbolic Z-matrix:
 Charge =  0 Multiplicity = 1

 SCF Done:  E(RM062X) =  -962.136886451     A.U. after   14 cycles
 SCF Done:  E(RM062X) =  -962.139160695     A.U. after   14 cycles
 SCF Done:  E(RM062X) =  -962.138138771     A.U. after   13 cycles
 SCF Done:  E(RM062X) =  -962.139518697     A.U. after   12 cycles
 SCF Done:  E(RM062X) =  -962.139566348     A.U. after   11 cycles
 SCF Done:  E(RM062X) =  -962.140046439     A.U. after   15 cycles
 SCF Done:  E(RM062X) =  -962.140353742     A.U. after   12 cycles
 SCF Done:  E(RM062X) =  -962.140742252     A.U. after   13 cycles
 SCF Done:  E(RM062X) =  -962.140893081     A.U. after   13 cycles
 SCF Done:  E(RM062X) =  -962.140980105     A.U. after   11 cycles
 SCF Done:  E(RM062X) =  -962.140982738     A.U. after    9 cycles
 SCF Done:  E(RM062X) =  -962.140982970     A.U. after    8 cycles
 SCF Done:  E(RM062X) =  -962.140982975     A.U. after    5 cycles
 SCF Done:  E(RM062X) =  -962.140982975     A.U. after    5 cycles
 SCF Done:  E(RM062X) =  -962.140982975     A.U. after    4 cycles
 SCF Done:  E(RM062X) =  -962.140982975     A.U. after    5 cycles
 SCF Done:  E(RM062X) =  -962.140982975     A.U. after    5 cycles
 SCF Done:  E(RM062X) =  -962.140982975     A.U. after    1 cycles
 Optimization completed.
    -- Stationary point found.
 Normal termination of Gaussian 16 at Sat May 24 10:32:21 2025.

 ---------------------------------------------------------------------
 #P Geom=AllCheck Guess=TCheck SCRF=Check GenChk RM062X/def2TZVPP Freq
 ---------------------------------------------------------------------

 Structure from the checkpoint file:  "/tmp/Gau-123265.chk"
 ------------------------------
 Gaussian input prepared by ASE
 ------------------------------
 Charge =  0 Multiplicity = 1

                          Input orientation:
 ---------------------------------------------------------------------
 Center     Atomic      Atomic             Coordinates (Angstroms)
 Number     Number       Type             X           Y           Z
 ---------------------------------------------------------------------
      1          6           0       -0.580017   -1.108549    0.106466
      2         16           0        1.855207   -0.134907    0.233943
      3          8           0        0.166071    0.022065    0.102152
      4          8           0        2.135688   -0.549282    1.568098
      5          8           0        2.046328    1.451983    0.246158
      6          9           0       -1.761916   -0.833992   -0.417244
      7          9           0       -0.012232   -2.077876   -0.620093
      8          9           0       -0.759063   -1.580121    1.330571
      9          1           0        1.888806    1.827871   -0.630904
 ---------------------------------------------------------------------

 SCF Done:  E(RM062X) =  -962.140982975     A.U. after    1 cycles

 Isotropic polarizability for W=    0.000000       43.67 Bohr**3.
 End of Minotr F.D. properties file   721 does not exist.

                      1                      2                      3
                      A                      A                      A
 Frequencies --     24.5597                79.9177               150.8480
 Red. masses --     12.3792                12.9257                 5.6506
 Frc consts  --      0.0044                 0.0486                 0.0758
 IR Inten    --      4.3040                 5.7102                 6.7086

                      4                      5                      6
                      A                      A                      A
 Frequencies --    214.2213               305.6975               341.8108
 Red. masses --      1.4488                12.4916                 5.2285
 Frc consts  --      0.0392                 0.6878                 0.3599
 IR Inten    --     79.5518                11.7705                21.4985

                      7                      8                      9
                      A                      A                      A
 Frequencies --    412.5051               463.0815               508.8497
 Red. masses --     19.1393                12.1386                12.6392
 Frc consts  --      1.9188                 1.5337                 1.9282
 IR Inten    --     30.0348                 5.7167                 8.8432

                     10                     11                     12
                      A                      A                      A
 Frequencies --    569.7781               642.7150               689.1768
 Red. masses --     18.5879                17.4374                16.9037
 Frc consts  --      3.5554                 4.2439                 4.7303
 IR Inten    --     79.4761                15.1655                 7.3876

                     13                     14                     15
                      A                      A                      A
 Frequencies --    754.7546               864.8074               973.8455
 Red. masses --     17.1614                12.4089                17.3368
 Frc consts  --      5.7599                 5.4679                 9.6872
 IR Inten    --    184.8779               136.4590                42.8516

                     16                     17                     18
                      A                      A                      A
 Frequencies --   1099.1926              1236.8425              1266.2749
 Red. masses --      1.1765                13.0412                13.3013
 Frc consts  --      0.8375                11.7543                12.5661
 IR Inten    --    166.1406               457.9007               385.1966

                     19                     20                     21
                      A                      A                      A
 Frequencies --   1310.5885              1362.9818              3817.8031
 Red. masses --     12.9220                15.1673                 1.0659
 Frc consts  --     13.0771                16.6012                 9.1533
 IR Inten    --    500.0645               238.2778               154.4236

 - Thermochemistry -
 -------------------
 Temperature   298.150 Kelvin.  Pressure   1.00000 Atm.
 Atom     1 has atomic number  6 and mass  12.00000

 Molecular mass:   149.95985 amu.
 Principal axes and moments of inertia in atomic units:
                           1         2         3
     Eigenvalues --   510.993351510.397201649.00249
           X            0.85679  -0.30902  -0.41281
           Y            0.49565   0.71438   0.49396
           Z            0.14226  -0.62783   0.76524
 This molecule is an asymmetric top.
 Rotational symmetry number  1.
 Warning -- assumption of classical behavior for rotation
           may cause significant error
 Rotational temperatures (Kelvin)      0.16950     0.05735     0.05253
 Rotational constants (GHZ):           3.53183     1.19488     1.09444
 Zero-point vibrational energy     102222.4 (Joules/Mol)
                                   24.43174 (Kcal/Mol)
 Warning -- explicit consideration of  10 degrees of freedom as
           vibrations may cause significant error
 Vibrational temperatures:     35.34   114.98   217.04   308.22   439.83
          (Kelvin)            491.79   593.50   666.27   732.12   819.78
                              924.72   991.57  1085.92  1244.26  1401.15
                             1581.49  1779.54  1821.89  1885.64  1961.03
                             5492.97

 Zero-point correction=                           0.038934 (Hartree/Particle)
 Thermal correction to Energy=                    0.046861
 Thermal correction to Enthalpy=                  0.047805
 Thermal correction to Gibbs Free Energy=         0.004501
 Sum of electronic and zero-point Energies=           -962.102049
 Sum of electronic and thermal Energies=              -962.094122
 Sum of electronic and thermal Enthalpies=            -962.093178
 Sum of electronic and thermal Free Energies=         -962.136482

                     E (Thermal)             CV                S
                      KCal/Mol        Cal/Mol-Kelvin    Cal/Mol-Kelvin
 Total                   29.406             26.356             91.142
 Electronic               0.000              0.000              0.000
 Translational            0.889              2.981             40.926
 Rotational               0.889              2.981             28.633
 Vibrational             27.628             20.394             21.583
 Vibration     1          0.593              1.985              6.226
 Vibration     2          0.600              1.963              3.893
 Vibration     3          0.618              1.902              2.662
 Vibration     4          0.644              1.819              2.007
 Vibration     5          0.696              1.663              1.386
 Vibration     6          0.721              1.592              1.204
 Vibration     7          0.776              1.443              0.918
 Vibration     8          0.821              1.332              0.757
 Vibration     9          0.864              1.230              0.636
 Vibration    10          0.926              1.097              0.505

                           ! Non-Optimized Parameters !
 Normal termination of Gaussian 16 at Sat May 24 10:34:14 2025.
