 Gaussian 16, Revision C.01,
 Gaussian 16:  ES64L-G16RevC.01  3-Jul-2019

 ----------------------------------------------------------------------
 #P M062X/Def2TZVPP Symm(None) scf(xqc) pop(None) freq opt(CalcFC, Tigh
 t)
 ----------------------------------------------------------------------

 ------------------------------
 Gaussian input prepared by ASE
 ------------------------------
 Symbolic Z-matrix:
 Charge =  0 Multiplicity = 1

 SCF Done:  E(RM062X) =  -962.121658095     A.U. after   13 cycles
 SCF Done:  E(RM062X) =  -962.125053677     A.U. after   13 cycles
 SCF Done:  E(RM062X) =  -962.125540509     A.U. after   11 cycles
 SCF Done:  E(RM062X) =  -962.125610408     A.U. after   10 cycles
 SCF Done:  E(RM062X) =  -962.125623156     A.U. after    8 cycles
 SCF Done:  E(RM062X) =  -962.125688176     A.U. after    9 cycles
 SCF Done:  E(RM062X) =  -962.125830107     A.U. after   11 cycles
 SCF Done:  E(RM062X) =  -962.125872251     A.U. after    8 cycles
 SCF Done:  E(RM062X) =  -962.125894303     A.U. after    9 cycles
 SCF Done:  E(RM062X) =  -962.125895300     A.U. after    7 cycles
 SCF Done:  E(RM062X) =  -962.125895318     A.U. after    6 cycles
 SCF Done:  E(RM062X) =  -962.125895318     A.U. after    4 cycles
 Optimization completed.
    -- Stationary point found.
 Normal termination of Gaussian 16 at Sat May 24 06:23:09 2025.

 ---------------------------------------------------------------------
 #P Geom=AllCheck Guess=TCheck SCRF=Check GenChk RM062X/def2TZVPP Freq
 ---------------------------------------------------------------------

 Structure from the checkpoint file:  "/tmp/Gau-69181.chk"
 ------------------------------
 Gaussian input prepared by ASE
 ------------------------------
 Charge =  0 Multiplicity = 1

                          Input orientation:
 ---------------------------------------------------------------------
 Center     Atomic      Atomic             Coordinates (Angstroms)
 Number     Number       Type             X           Y           Z
 ---------------------------------------------------------------------
      1          6           0        0.063710    0.044222   -0.001040
      2          9           0       -0.409662    0.630926   -1.083011
      3          9           0       -0.287116    0.748343    1.066707
      4         16           0        1.899002   -0.060077   -0.081917
      5          8           0        2.332104   -0.604275    1.154797
      6          8           0        2.230748   -0.606597   -1.340107
      7          8           0        2.238622    1.474859   -0.121816
      8          9           0       -0.429101   -1.175218    0.095944
      9          1           0        2.385836    1.806604    0.775664
 ---------------------------------------------------------------------

 SCF Done:  E(RM062X) =  -962.125895318     A.U. after    1 cycles

 Isotropic polarizability for W=    0.000000       41.22 Bohr**3.
 End of Minotr F.D. properties file   721 does not exist.

                      1                      2                      3
                      A                      A                      A
 Frequencies --     61.8069               187.9702               194.6917
 Red. masses --     13.4330                 7.4967                15.6343
 Frc consts  --      0.0302                 0.1561                 0.3492
 IR Inten    --      1.4388                 9.2756                 3.4973

                      4                      5                      6
                      A                      A                      A
 Frequencies --    310.0808               324.2966               342.4595
 Red. masses --     11.6729                 3.1872                12.9746
 Frc consts  --      0.6613                 0.1975                 0.8965
 IR Inten    --      0.5800                28.9433                 2.0666

                      7                      8                      9
                      A                      A                      A
 Frequencies --    376.7652               471.0817               507.2653
 Red. masses --      1.9854                 4.3670                14.9976
 Frc consts  --      0.1661                 0.5710                 2.2738
 IR Inten    --     52.5646                27.5214                26.5589

                     10                     11                     12
                      A                      A                      A
 Frequencies --    571.3844               577.0585               632.1107
 Red. masses --     15.7210                16.3594                19.9233
 Frc consts  --      3.0240                 3.2097                 4.6903
 IR Inten    --      0.7886                 2.8744               159.4443

                     13                     14                     15
                      A                      A                      A
 Frequencies --    794.7443               907.5711              1141.0657
 Red. masses --     17.7093                17.6062                 1.1842
 Frc consts  --      6.5903                 8.5443                 0.9084
 IR Inten    --      3.7172               218.0937                86.9935

                     16                     17                     18
                      A                      A                      A
 Frequencies --   1198.5610              1275.9372              1296.6012
 Red. masses --     14.7274                13.3765                13.3989
 Frc consts  --     12.4651                12.8307                13.2719
 IR Inten    --    267.1681               163.9906               127.5607

                     19                     20                     21
                      A                      A                      A
 Frequencies --   1309.3335              1504.9539              3809.7874
 Red. masses --     15.2146                15.4040                 1.0657
 Frc consts  --     15.3678                20.5556                 9.1135
 IR Inten    --    241.0454               292.7749               186.3121

 - Thermochemistry -
 -------------------
 Temperature   298.150 Kelvin.  Pressure   1.00000 Atm.
 Atom     1 has atomic number  6 and mass  12.00000

 Molecular mass:   149.95985 amu.
 Principal axes and moments of inertia in atomic units:
                           1         2         3
     Eigenvalues --   673.839241131.982321139.37768
           X            0.99917   0.02818  -0.02936
           Y            0.01004   0.52831   0.84899
           Z           -0.03944   0.84858  -0.52759
 This molecule is an asymmetric top.
 Rotational symmetry number  1.
 Warning -- assumption of classical behavior for rotation
           may cause significant error
 Rotational temperatures (Kelvin)      0.12854     0.07652     0.07602
 Rotational constants (GHZ):           2.67830     1.59432     1.58397
 Zero-point vibrational energy     106440.9 (Joules/Mol)
                                   25.43998 (Kcal/Mol)
 Warning -- explicit consideration of  11 degrees of freedom as
           vibrations may cause significant error
 Vibrational temperatures:     88.93   270.45   280.12   446.14   466.59
          (Kelvin)            492.72   542.08   677.78   729.84   822.09
                              830.26   909.47  1143.46  1305.79  1641.74
                             1724.46  1835.79  1865.52  1883.84  2165.29
                             5481.43

 Zero-point correction=                           0.040541 (Hartree/Particle)
 Thermal correction to Energy=                    0.048001
 Thermal correction to Enthalpy=                  0.048945
 Thermal correction to Gibbs Free Energy=         0.007982
 Sum of electronic and zero-point Energies=           -962.085354
 Sum of electronic and thermal Energies=              -962.077894
 Sum of electronic and thermal Enthalpies=            -962.076950
 Sum of electronic and thermal Free Energies=         -962.117913

                     E (Thermal)             CV                S
                      KCal/Mol        Cal/Mol-Kelvin    Cal/Mol-Kelvin
 Total                   30.121             25.845             86.214
 Electronic               0.000              0.000              0.000
 Translational            0.889              2.981             40.926
 Rotational               0.889              2.981             28.254
 Vibrational             28.344             19.883             17.034
 Vibration     1          0.597              1.973              4.399
 Vibration     2          0.633              1.856              2.248
 Vibration     3          0.635              1.847              2.183
 Vibration     4          0.699              1.655              1.362
 Vibration     5          0.709              1.627              1.288
 Vibration     6          0.722              1.591              1.201
 Vibration     7          0.747              1.520              1.052
 Vibration     8          0.828              1.314              0.735
 Vibration     9          0.862              1.234              0.640
 Vibration    10          0.928              1.093              0.502
 Vibration    11          0.934              1.081              0.491

 Optimization completed.
    -- Stationary point found.
 Normal termination of Gaussian 16 at Sat May 24 06:25:02 2025.
