 Gaussian 16, Revision C.01,
 Gaussian 16:  ES64L-G16RevC.01  3-Jul-2019

 ----------------------------------------------------------------------
 #P M062X/Def2TZVPP Symm(None) scf(xqc) pop(None) freq opt(CalcFC, Tigh
 t)
 ----------------------------------------------------------------------

 ------------------------------
 Gaussian input prepared by ASE
 ------------------------------
 Symbolic Z-matrix:
 Charge =  0 Multiplicity = 1

 SCF Done:  E(RM062X) =  -962.125889243     A.U. after   13 cycles
 SCF Done:  E(RM062X) =  -962.125889293     A.U. after    6 cycles
 Optimization completed.
    -- Stationary point found.
 Normal termination of Gaussian 16 at Sat May 24 06:19:58 2025.

 ---------------------------------------------------------------------
 #P Geom=AllCheck Guess=TCheck SCRF=Check GenChk RM062X/def2TZVPP Freq
 ---------------------------------------------------------------------

 Structure from the checkpoint file:  "/tmp/Gau-34130.chk"
 ------------------------------
 Gaussian input prepared by ASE
 ------------------------------
 Charge =  0 Multiplicity = 1

                          Input orientation:
 ---------------------------------------------------------------------
 Center     Atomic      Atomic             Coordinates (Angstroms)
 Number     Number       Type             X           Y           Z
 ---------------------------------------------------------------------
      1          6           0       -0.000098   -0.000133    0.000101
      2          9           0       -0.436971    0.664089   -1.061429
      3          9           0       -0.457835    0.578354    1.093191
      4         16           0        1.839986    0.000141    0.000024
      5          8           0        2.256768   -0.503553    1.250755
      6          8           0        2.248756   -0.541683   -1.245985
      7          8           0        2.092940    1.552242   -0.000232
      8          9           0       -0.426718   -1.246815   -0.055838
      9          1           0        2.183148    1.874386   -0.908692
 ---------------------------------------------------------------------

 SCF Done:  E(RM062X) =  -962.125889293     A.U. after    1 cycles

 Isotropic polarizability for W=    0.000000       41.21 Bohr**3.
 End of Minotr F.D. properties file   721 does not exist.

                      1                      2                      3
                      A                      A                      A
 Frequencies --     60.7289               187.7550               195.0676
 Red. masses --     13.4366                 6.9255                16.4642
 Frc consts  --      0.0292                 0.1438                 0.3691
 IR Inten    --      1.4419                10.4208                 3.1948

                      4                      5                      6
                      A                      A                      A
 Frequencies --    309.7281               320.7563               342.3842
 Red. masses --     10.2164                 2.8161                13.2122
 Frc consts  --      0.5774                 0.1707                 0.9125
 IR Inten    --      1.1257                34.7832                 1.9276

                      7                      8                      9
                      A                      A                      A
 Frequencies --    372.3136               470.7456               506.9675
 Red. masses --      2.2177                 4.5086                15.0568
 Frc consts  --      0.1811                 0.5887                 2.2800
 IR Inten    --     46.2549                26.5838                26.8600

                     10                     11                     12
                      A                      A                      A
 Frequencies --    571.1562               577.0467               631.9815
 Red. masses --     15.6858                16.3896                19.9476
 Frc consts  --      3.0149                 3.2154                 4.6941
 IR Inten    --      0.8767                 2.7949               159.4949

                     13                     14                     15
                      A                      A                      A
 Frequencies --    794.6493               908.1003              1141.7219
 Red. masses --     17.7080                17.5748                 1.1840
 Frc consts  --      6.5882                 8.5390                 0.9094
 IR Inten    --      3.6329               217.5501                87.5524

                     16                     17                     18
                      A                      A                      A
 Frequencies --   1198.1581              1275.8799              1296.8362
 Red. masses --     14.7540                13.3697                13.3802
 Frc consts  --     12.4792                12.8231                13.2582
 IR Inten    --    265.6281               163.4242               131.2922

                     19                     20                     21
                      A                      A                      A
 Frequencies --   1308.8264              1503.8809              3809.8994
 Red. masses --     15.2573                15.3506                 1.0657
 Frc consts  --     15.3990                20.4551                 9.1140
 IR Inten    --    238.9275               293.1249               186.3846

 - Thermochemistry -
 -------------------
 Temperature   298.150 Kelvin.  Pressure   1.00000 Atm.
 Atom     1 has atomic number  6 and mass  12.00000

 Molecular mass:   149.95985 amu.
 Principal axes and moments of inertia in atomic units:
                           1         2         3
     Eigenvalues --   673.860901131.915241139.37736
           X            0.99775   0.03949  -0.05418
           Y            0.06678  -0.51464   0.85480
           Z           -0.00587   0.85650   0.51612
 This molecule is an asymmetric top.
 Rotational symmetry number  1.
 Warning -- assumption of classical behavior for rotation
           may cause significant error
 Rotational temperatures (Kelvin)      0.12853     0.07652     0.07602
 Rotational constants (GHZ):           2.67821     1.59441     1.58397
 Zero-point vibrational energy     106375.4 (Joules/Mol)
                                   25.42434 (Kcal/Mol)
 Warning -- explicit consideration of  11 degrees of freedom as
           vibrations may cause significant error
 Vibrational temperatures:     87.38   270.14   280.66   445.63   461.50
          (Kelvin)            492.61   535.68   677.30   729.41   821.77
                              830.24   909.28  1143.32  1306.55  1642.68
                             1723.88  1835.71  1865.86  1883.11  2163.75
                             5481.60

 Zero-point correction=                           0.040516 (Hartree/Particle)
 Thermal correction to Energy=                    0.047988
 Thermal correction to Enthalpy=                  0.048932
 Thermal correction to Gibbs Free Energy=         0.007934
 Sum of electronic and zero-point Energies=           -962.085373
 Sum of electronic and thermal Energies=              -962.077901
 Sum of electronic and thermal Enthalpies=            -962.076957
 Sum of electronic and thermal Free Energies=         -962.117955

                     E (Thermal)             CV                S
                      KCal/Mol        Cal/Mol-Kelvin    Cal/Mol-Kelvin
 Total                   30.113             25.864             86.288
 Electronic               0.000              0.000              0.000
 Translational            0.889              2.981             40.926
 Rotational               0.889              2.981             28.254
 Vibrational             28.336             19.903             17.108
 Vibration     1          0.597              1.973              4.433
 Vibration     2          0.632              1.857              2.250
 Vibration     3          0.636              1.847              2.179
 Vibration     4          0.699              1.655              1.364
 Vibration     5          0.706              1.634              1.306
 Vibration     6          0.722              1.591              1.201
 Vibration     7          0.744              1.529              1.070
 Vibration     8          0.828              1.315              0.735
 Vibration     9          0.862              1.235              0.641
 Vibration    10          0.927              1.094              0.502
 Vibration    11          0.934              1.081              0.491

 Optimization completed.
    -- Stationary point found.
 Normal termination of Gaussian 16 at Sat May 24 06:21:45 2025.
