 Gaussian 16, Revision C.01,
 Gaussian 16:  ES64L-G16RevC.01  3-Jul-2019

 ----------------------------------------------------------------------
 #P M062X/Def2TZVPP Symm(None) scf(xqc) pop(None) freq opt(CalcFC, Tigh
 t)
 ----------------------------------------------------------------------

 ------------------------------
 Gaussian input prepared by ASE
 ------------------------------
 Symbolic Z-matrix:
 Charge =  0 Multiplicity = 1

 SCF Done:  E(RM062X) =  -962.133403280     A.U. after   14 cycles
 SCF Done:  E(RM062X) =  -962.130513407     A.U. after   15 cycles
 SCF Done:  E(RM062X) =  -962.139432506     A.U. after   14 cycles
 SCF Done:  E(RM062X) =  -962.141219617     A.U. after   15 cycles
 SCF Done:  E(RM062X) =  -962.105879281     A.U. after   14 cycles
 SCF Done:  E(RM062X) =  -962.142656477     A.U. after   13 cycles
 SCF Done:  E(RM062X) =  -962.144177616     A.U. after   13 cycles
 SCF Done:  E(RM062X) =  -962.144368545     A.U. after   13 cycles
 SCF Done:  E(RM062X) =  -962.143792222     A.U. after   13 cycles
 SCF Done:  E(RM062X) =  -962.144970617     A.U. after   12 cycles
 SCF Done:  E(RM062X) =  -962.145142069     A.U. after   12 cycles
 SCF Done:  E(RM062X) =  -962.145154427     A.U. after    9 cycles
 SCF Done:  E(RM062X) =  -962.145161386     A.U. after    9 cycles
 SCF Done:  E(RM062X) =  -962.145161851     A.U. after    8 cycles
 SCF Done:  E(RM062X) =  -962.145161949     A.U. after    6 cycles
 SCF Done:  E(RM062X) =  -962.145162019     A.U. after    6 cycles
 SCF Done:  E(RM062X) =  -962.145162057     A.U. after    6 cycles
 SCF Done:  E(RM062X) =  -962.145162069     A.U. after    5 cycles
 SCF Done:  E(RM062X) =  -962.145162071     A.U. after    5 cycles
 Optimization completed.
    -- Stationary point found.
 Normal termination of Gaussian 16 at Sat May 24 10:32:33 2025.

 ---------------------------------------------------------------------
 #P Geom=AllCheck Guess=TCheck SCRF=Check GenChk RM062X/def2TZVPP Freq
 ---------------------------------------------------------------------

 Structure from the checkpoint file:  "/tmp/Gau-66596.chk"
 ------------------------------
 Gaussian input prepared by ASE
 ------------------------------
 Charge =  0 Multiplicity = 1

                          Input orientation:
 ---------------------------------------------------------------------
 Center     Atomic      Atomic             Coordinates (Angstroms)
 Number     Number       Type             X           Y           Z
 ---------------------------------------------------------------------
      1          6           0       -0.595754    0.807845    0.934661
      2         16           0        1.661911   -0.081612   -0.209158
      3          8           0        0.003120   -0.042135    0.064928
      4          8           0        2.265614   -0.632436    0.968549
      5          8           0        1.950937    1.488987   -0.193693
      6          9           0       -1.703879    0.251435    1.384042
      7          9           0        0.185685    1.098623    1.979612
      8          9           0       -0.911418    1.955324    0.346079
      9          1           0        2.122656    1.784971    0.715582
 ---------------------------------------------------------------------

 SCF Done:  E(RM062X) =  -962.145162071     A.U. after    1 cycles

 Isotropic polarizability for W=    0.000000       42.61 Bohr**3.
 End of Minotr F.D. properties file   721 does not exist.

                      1                      2                      3
                      A                      A                      A
 Frequencies --     61.1977                90.9126               177.8307
 Red. masses --     15.0640                12.0206                 9.9956
 Frc consts  --      0.0332                 0.0585                 0.1862
 IR Inten    --      0.2914                 0.5762                 1.2274

                      4                      5                      6
                      A                      A                      A
 Frequencies --    311.6793               317.3159               335.0698
 Red. masses --      4.7782                15.8453                 1.8657
 Frc consts  --      0.2735                 0.9400                 0.1234
 IR Inten    --     20.3639                 2.2958                11.2629

                      7                      8                      9
                      A                      A                      A
 Frequencies --    456.7471               481.1504               524.4994
 Red. masses --     17.2529                 3.7888                10.9691
 Frc consts  --      2.1206                 0.5168                 1.7779
 IR Inten    --      4.6239                48.1808               127.2774

                     10                     11                     12
                      A                      A                      A
 Frequencies --    541.8125               631.2534               703.1057
 Red. masses --      6.4963                17.4640                14.4715
 Frc consts  --      1.1236                 4.1002                 4.2151
 IR Inten    --     81.2608                 7.3402                 7.6842

                     13                     14                     15
                      A                      A                      A
 Frequencies --    750.2822               849.1202               978.2302
 Red. masses --     16.5433                14.8437                16.5494
 Frc consts  --      5.4868                 6.3057                 9.3307
 IR Inten    --    132.6176               165.4169               102.4523

                     16                     17                     18
                      A                      A                      A
 Frequencies --   1118.2994              1222.4103              1258.6439
 Red. masses --      1.2986                13.1047                12.0113
 Frc consts  --      0.9568                11.5375                11.2110
 IR Inten    --     58.9724               408.0202               517.5016

                     19                     20                     21
                      A                      A                      A
 Frequencies --   1311.2678              1334.4533              3752.7059
 Red. masses --     12.1618                10.7303                 1.0646
 Frc consts  --     12.3205                11.2582                 8.8335
 IR Inten    --    416.4895               240.3125               126.0869

 - Thermochemistry -
 -------------------
 Temperature   298.150 Kelvin.  Pressure   1.00000 Atm.
 Atom     1 has atomic number  6 and mass  12.00000

 Molecular mass:   149.95985 amu.
 Principal axes and moments of inertia in atomic units:
                           1         2         3
     Eigenvalues --   535.177591351.202101468.62089
           X            0.91879   0.10398   0.38081
           Y           -0.26281   0.88093   0.39356
           Z           -0.29454  -0.46168   0.83672
 This molecule is an asymmetric top.
 Rotational symmetry number  1.
 Warning -- assumption of classical behavior for rotation
           may cause significant error
 Rotational temperatures (Kelvin)      0.16184     0.06410     0.05898
 Rotational constants (GHZ):           3.37223     1.33566     1.22887
 Zero-point vibrational energy     102926.6 (Joules/Mol)
                                   24.60005 (Kcal/Mol)
 Warning -- explicit consideration of  10 degrees of freedom as
           vibrations may cause significant error
 Vibrational temperatures:     88.05   130.80   255.86   448.44   456.55
          (Kelvin)            482.09   657.16   692.27   754.64   779.55
                              908.23  1011.61  1079.49  1221.69  1407.46
                             1608.98  1758.78  1810.91  1886.62  1919.98
                             5399.31

 Zero-point correction=                           0.039203 (Hartree/Particle)
 Thermal correction to Energy=                    0.046803
 Thermal correction to Enthalpy=                  0.047747
 Thermal correction to Gibbs Free Energy=         0.006055
 Sum of electronic and zero-point Energies=           -962.105959
 Sum of electronic and thermal Energies=              -962.098359
 Sum of electronic and thermal Enthalpies=            -962.097415
 Sum of electronic and thermal Free Energies=         -962.139107

                     E (Thermal)             CV                S
                      KCal/Mol        Cal/Mol-Kelvin    Cal/Mol-Kelvin
 Total                   29.369             26.048             87.749
 Electronic               0.000              0.000              0.000
 Translational            0.889              2.981             40.926
 Rotational               0.889              2.981             28.453
 Vibrational             27.592             20.087             18.370
 Vibration     1          0.597              1.973              4.418
 Vibration     2          0.602              1.956              3.640
 Vibration     3          0.628              1.870              2.351
 Vibration     4          0.700              1.651              1.353
 Vibration     5          0.704              1.641              1.324
 Vibration     6          0.716              1.605              1.236
 Vibration     7          0.815              1.346              0.776
 Vibration     8          0.837              1.292              0.707
 Vibration     9          0.879              1.196              0.600
 Vibration    10          0.897              1.158              0.561

 Optimization completed.
    -- Stationary point found.
 Normal termination of Gaussian 16 at Sat May 24 10:34:30 2025.
