 Gaussian 16, Revision C.01,
 Gaussian 16:  ES64L-G16RevC.01  3-Jul-2019

 ----------------------------------------------------------------------
 #P M062X/Def2TZVPP Symm(None) scf(xqc) pop(None) freq opt(CalcFC, Tigh
 t)
 ----------------------------------------------------------------------

 ------------------------------
 Gaussian input prepared by ASE
 ------------------------------
 Symbolic Z-matrix:
 Charge =  0 Multiplicity = 1

 SCF Done:  E(RM062X) =  -962.139266774     A.U. after   14 cycles
 SCF Done:  E(RM062X) =  -962.140805860     A.U. after   14 cycles
 SCF Done:  E(RM062X) =  -962.140003866     A.U. after   14 cycles
 SCF Done:  E(RM062X) =  -962.140965051     A.U. after   12 cycles
 SCF Done:  E(RM062X) =  -962.140975611     A.U. after   10 cycles
 SCF Done:  E(RM062X) =  -962.140977094     A.U. after    9 cycles
 SCF Done:  E(RM062X) =  -962.140977710     A.U. after   10 cycles
 SCF Done:  E(RM062X) =  -962.140977722     A.U. after    8 cycles
 SCF Done:  E(RM062X) =  -962.140977723     A.U. after    6 cycles
 Optimization completed.
    -- Stationary point found.
 Normal termination of Gaussian 16 at Sat May 24 10:29:57 2025.

 ---------------------------------------------------------------------
 #P Geom=AllCheck Guess=TCheck SCRF=Check GenChk RM062X/def2TZVPP Freq
 ---------------------------------------------------------------------

 Structure from the checkpoint file:  "/tmp/Gau-126183.chk"
 ------------------------------
 Gaussian input prepared by ASE
 ------------------------------
 Charge =  0 Multiplicity = 1

                          Input orientation:
 ---------------------------------------------------------------------
 Center     Atomic      Atomic             Coordinates (Angstroms)
 Number     Number       Type             X           Y           Z
 ---------------------------------------------------------------------
      1          6           0       -0.658516   -1.218351    0.151091
      2         16           0        1.662864    0.003915    0.051134
      3          8           0       -0.038585   -0.017246    0.061472
      4          8           0        2.095296   -0.342906    1.363800
      5          8           0        1.687372    1.601760    0.017523
      6          9           0       -1.903554   -1.081062   -0.270248
      7          9           0       -0.056737   -2.142362   -0.606541
      8          9           0       -0.680427   -1.673904    1.394026
      9          1           0        1.420445    1.935180   -0.850194
 ---------------------------------------------------------------------

 SCF Done:  E(RM062X) =  -962.140977723     A.U. after    1 cycles

 Isotropic polarizability for W=    0.000000       43.68 Bohr**3.
 End of Minotr F.D. properties file   721 does not exist.

                      1                      2                      3
                      A                      A                      A
 Frequencies --     21.5955                78.7240               146.3090
 Red. masses --     12.2759                11.3849                 3.5085
 Frc consts  --      0.0034                 0.0416                 0.0442
 IR Inten    --      4.4328                 7.6958                16.4306

                      4                      5                      6
                      A                      A                      A
 Frequencies --    195.0424               305.4515               338.4747
 Red. masses --      1.6535                12.3204                 6.3513
 Frc consts  --      0.0371                 0.6773                 0.4287
 IR Inten    --     72.5484                12.1413                17.3759

                      7                      8                      9
                      A                      A                      A
 Frequencies --    412.5965               462.7166               508.5027
 Red. masses --     19.1040                12.1535                12.6493
 Frc consts  --      1.9161                 1.5331                 1.9271
 IR Inten    --     29.6422                 5.8492                 8.7561

                     10                     11                     12
                      A                      A                      A
 Frequencies --    569.6653               642.5875               689.1863
 Red. masses --     18.6210                17.4351                16.9133
 Frc consts  --      3.5603                 4.2417                 4.7332
 IR Inten    --     79.1422                15.1025                 7.2139

                     13                     14                     15
                      A                      A                      A
 Frequencies --    754.4423               865.5070               973.6492
 Red. masses --     17.2003                12.3621                17.3330
 Frc consts  --      5.7682                 5.4561                 9.6812
 IR Inten    --    184.2761               137.2587                42.7265

                     16                     17                     18
                      A                      A                      A
 Frequencies --   1096.1156              1236.6888              1266.1972
 Red. masses --      1.1776                13.0404                13.2999
 Frc consts  --      0.8336                11.7507                12.5633
 IR Inten    --    166.2215               457.3782               385.2273

                     19                     20                     21
                      A                      A                      A
 Frequencies --   1310.8905              1363.3947              3821.4609
 Red. masses --     12.9236                15.2292                 1.0659
 Frc consts  --     13.0848                16.6790                 9.1709
 IR Inten    --    499.9586               238.1114               154.2575

 - Thermochemistry -
 -------------------
 Temperature   298.150 Kelvin.  Pressure   1.00000 Atm.
 Atom     1 has atomic number  6 and mass  12.00000

 Molecular mass:   149.95985 amu.
 Principal axes and moments of inertia in atomic units:
                           1         2         3
     Eigenvalues --   510.949991510.204801648.75997
           X            0.80889  -0.43350  -0.39720
           Y            0.58499   0.66118   0.46972
           Z            0.05899  -0.61231   0.78842
 This molecule is an asymmetric top.
 Rotational symmetry number  1.
 Warning -- assumption of classical behavior for rotation
           may cause significant error
 Rotational temperatures (Kelvin)      0.16952     0.05735     0.05253
 Rotational constants (GHZ):           3.53213     1.19503     1.09461
 Zero-point vibrational energy     102036.7 (Joules/Mol)
                                   24.38735 (Kcal/Mol)
 Warning -- explicit consideration of  10 degrees of freedom as
           vibrations may cause significant error
 Vibrational temperatures:     31.07   113.27   210.51   280.62   439.48
          (Kelvin)            486.99   593.63   665.75   731.62   819.62
                              924.54   991.59  1085.47  1245.27  1400.86
                             1577.07  1779.32  1821.78  1886.08  1961.62
                             5498.23

 Zero-point correction=                           0.038864 (Hartree/Particle)
 Thermal correction to Energy=                    0.046842
 Thermal correction to Enthalpy=                  0.047786
 Thermal correction to Gibbs Free Energy=         0.004228
 Sum of electronic and zero-point Energies=           -962.102114
 Sum of electronic and thermal Energies=              -962.094136
 Sum of electronic and thermal Enthalpies=            -962.093192
 Sum of electronic and thermal Free Energies=         -962.136750

                     E (Thermal)             CV                S
                      KCal/Mol        Cal/Mol-Kelvin    Cal/Mol-Kelvin
 Total                   29.394             26.401             91.676
 Electronic               0.000              0.000              0.000
 Translational            0.889              2.981             40.926
 Rotational               0.889              2.981             28.633
 Vibrational             27.616             20.439             22.118
 Vibration     1          0.593              1.985              6.482
 Vibration     2          0.600              1.963              3.922
 Vibration     3          0.617              1.907              2.720
 Vibration     4          0.636              1.847              2.179
 Vibration     5          0.696              1.663              1.387
 Vibration     6          0.719              1.599              1.219
 Vibration     7          0.776              1.443              0.917
 Vibration     8          0.820              1.333              0.758
 Vibration     9          0.864              1.231              0.637
 Vibration    10          0.926              1.097              0.505

 Optimization completed.
    -- Stationary point found.
 Normal termination of Gaussian 16 at Sat May 24 10:31:43 2025.
