 Gaussian 16, Revision C.01,
 Gaussian 16:  ES64L-G16RevC.01  3-Jul-2019

 ----------------------------------------------------------------------
 #P M062X/Def2TZVPP Symm(None) scf(xqc) pop(None) opt(CalcAll, Tight,Ca
 rtesian)
 ----------------------------------------------------------------------

 ------------------------------
 Gaussian input prepared by ASE
 ------------------------------
 Symbolic Z-matrix:
 Charge =  0 Multiplicity = 1

 SCF Done:  E(RM062X) =  -962.139439613     A.U. after   14 cycles
 SCF Done:  E(RM062X) =  -962.139728234     A.U. after   13 cycles
 SCF Done:  E(RM062X) =  -962.140185830     A.U. after   12 cycles
 SCF Done:  E(RM062X) =  -962.135162903     A.U. after   13 cycles
 SCF Done:  E(RM062X) =  -962.140008112     A.U. after   12 cycles
 SCF Done:  E(RM062X) =  -962.140226009     A.U. after    9 cycles
 SCF Done:  E(RM062X) =  -962.140535086     A.U. after   11 cycles
 SCF Done:  E(RM062X) =  -962.140664283     A.U. after   12 cycles
 SCF Done:  E(RM062X) =  -962.141097095     A.U. after   11 cycles
 SCF Done:  E(RM062X) =  -962.141495469     A.U. after   12 cycles
 SCF Done:  E(RM062X) =  -962.141076993     A.U. after   12 cycles
 SCF Done:  E(RM062X) =  -962.142057520     A.U. after   12 cycles
 SCF Done:  E(RM062X) =  -962.140306767     A.U. after   13 cycles
 SCF Done:  E(RM062X) =  -962.141760908     A.U. after   11 cycles
 SCF Done:  E(RM062X) =  -962.140637295     A.U. after   12 cycles
 SCF Done:  E(RM062X) =  -962.142244723     A.U. after    9 cycles
 SCF Done:  E(RM062X) =  -962.142325387     A.U. after   11 cycles
 SCF Done:  E(RM062X) =  -962.142341215     A.U. after    9 cycles
 SCF Done:  E(RM062X) =  -962.142341901     A.U. after    8 cycles
 SCF Done:  E(RM062X) =  -962.142341905     A.U. after    5 cycles

 Isotropic polarizability for W=    0.000000       43.63 Bohr**3.
 End of Minotr F.D. properties file   721 does not exist.

 Optimization completed.
    -- Stationary point found.

                          Input orientation:
 ---------------------------------------------------------------------
 Center     Atomic      Atomic             Coordinates (Angstroms)
 Number     Number       Type             X           Y           Z
 ---------------------------------------------------------------------
      1          6           0       -0.556635    0.505906   -1.107536
      2         16           0        1.704366   -0.035934    0.067018
      3          8           0        0.018471    0.215382    0.073657
      4          8           0        1.922312   -0.695652    1.308855
      5          8           0        2.120728    1.484975    0.340751
      6          9           0       -1.812228    0.847021   -0.912335
      7          9           0        0.068936    1.534102   -1.718530
      8          9           0       -0.517787   -0.517854   -1.956489
      9          1           0        2.030708    2.012134   -0.466318
 ---------------------------------------------------------------------

                      1                      2                      3
                      A                      A                      A
 Frequencies --     55.2389                89.0911               168.3941
 Red. masses --     11.4310                13.1681                11.8628
 Frc consts  --      0.0206                 0.0616                 0.1982
 IR Inten    --      3.4490                 2.6883                 8.6870

                      4                      5                      6
                      A                      A                      A
 Frequencies --    268.2079               305.4111               359.8561
 Red. masses --      1.7741                12.7161                 2.5033
 Frc consts  --      0.0752                 0.6988                 0.1910
 IR Inten    --     48.6544                 8.1796                63.1675

                      7                      8                      9
                      A                      A                      A
 Frequencies --    416.5166               464.5833               505.5815
 Red. masses --     17.9601                12.0930                12.3807
 Frc consts  --      1.8358                 1.5378                 1.8646
 IR Inten    --     27.1923                19.5612                10.7851

                     10                     11                     12
                      A                      A                      A
 Frequencies --    557.8885               638.4187               688.2843
 Red. masses --     17.2875                16.9984                16.2031
 Frc consts  --      3.1701                 4.0820                 4.5225
 IR Inten    --     71.2550                 8.3899                 1.3395

                     13                     14                     15
                      A                      A                      A
 Frequencies --    751.0744               856.6633               963.4963
 Red. masses --     17.3976                11.3011                17.3999
 Frc consts  --      5.7824                 4.8864                 9.5169
 IR Inten    --    189.0022               111.2378                34.2611

                     16                     17                     18
                      A                      A                      A
 Frequencies --   1114.0453              1208.4866              1270.7127
 Red. masses --      1.2213                 9.5983                12.6843
 Frc consts  --      0.8930                 8.2590                12.0674
 IR Inten    --    232.6376               265.8694               604.5821

                     19                     20                     21
                      A                      A                      A
 Frequencies --   1324.7213              1372.1859              3807.4955
 Red. masses --     13.8996                14.1649                 1.0656
 Frc consts  --     14.3715                15.7141                 9.1019
 IR Inten    --    572.0719                98.7116               142.0099

 - Thermochemistry -
 -------------------
 Temperature   298.150 Kelvin.  Pressure   1.00000 Atm.
 Atom     1 has atomic number  6 and mass  12.00000

 Molecular mass:   149.95985 amu.
 Principal axes and moments of inertia in atomic units:
                           1         2         3
     Eigenvalues --   508.711351499.848241646.93244
           X            0.81291   0.29871  -0.49995
           Y           -0.12994   0.92984   0.34426
           Z            0.56771  -0.21489   0.79469
 This molecule is an asymmetric top.
 Rotational symmetry number  1.
 Warning -- assumption of classical behavior for rotation
           may cause significant error
 Rotational temperatures (Kelvin)      0.17026     0.05775     0.05259
 Rotational constants (GHZ):           3.54767     1.20328     1.09582
 Zero-point vibrational energy     102797.2 (Joules/Mol)
                                   24.56913 (Kcal/Mol)
 Warning -- explicit consideration of  10 degrees of freedom as
           vibrations may cause significant error
 Vibrational temperatures:     79.48   128.18   242.28   385.89   439.42
          (Kelvin)            517.75   599.27   668.43   727.42   802.68
                              918.54   990.29  1080.63  1232.55  1386.26
                             1602.86  1738.74  1828.27  1905.98  1974.27
                             5478.14

 Zero-point correction=                           0.039153 (Hartree/Particle)
 Thermal correction to Energy=                    0.046881
 Thermal correction to Enthalpy=                  0.047825
 Thermal correction to Gibbs Free Energy=         0.005702
 Sum of electronic and zero-point Energies=           -962.103189
 Sum of electronic and thermal Energies=              -962.095461
 Sum of electronic and thermal Enthalpies=            -962.094517
 Sum of electronic and thermal Free Energies=         -962.136640

                     E (Thermal)             CV                S
                      KCal/Mol        Cal/Mol-Kelvin    Cal/Mol-Kelvin
 Total                   29.418             26.251             88.655
 Electronic               0.000              0.000              0.000
 Translational            0.889              2.981             40.926
 Rotational               0.889              2.981             28.621
 Vibrational             27.641             20.289             19.108
 Vibration     1          0.596              1.975              4.620
 Vibration     2          0.602              1.957              3.680
 Vibration     3          0.625              1.881              2.453
 Vibration     4          0.673              1.732              1.608
 Vibration     5          0.696              1.663              1.387
 Vibration     6          0.734              1.555              1.123
 Vibration     7          0.780              1.434              0.904
 Vibration     8          0.822              1.329              0.753
 Vibration     9          0.861              1.238              0.644
 Vibration    10          0.913              1.122              0.528

 Normal termination of Gaussian 16 at Sat May 24 11:16:00 2025.
