 Gaussian 16, Revision C.01,
 Gaussian 16:  ES64L-G16RevC.01  3-Jul-2019

 ----------------------------------------------------------------------
 #P M062X/Def2TZVPP Symm(None) scf(xqc) pop(None) freq opt(CalcFC, Tigh
 t)
 ----------------------------------------------------------------------

 ------------------------------
 Gaussian input prepared by ASE
 ------------------------------
 Symbolic Z-matrix:
 Charge =  0 Multiplicity = 1

 SCF Done:  E(RM062X) =  -962.132530756     A.U. after   14 cycles
 SCF Done:  E(RM062X) =  -962.133047217     A.U. after   15 cycles
 SCF Done:  E(RM062X) =  -962.140610369     A.U. after   14 cycles
 SCF Done:  E(RM062X) =  -962.132158846     A.U. after   14 cycles
 SCF Done:  E(RM062X) =  -962.141074445     A.U. after   12 cycles
 SCF Done:  E(RM062X) =  -962.141247080     A.U. after   11 cycles
 SCF Done:  E(RM062X) =  -962.141271898     A.U. after   10 cycles
 SCF Done:  E(RM062X) =  -962.141276489     A.U. after    9 cycles
 SCF Done:  E(RM062X) =  -962.141277433     A.U. after    8 cycles
 SCF Done:  E(RM062X) =  -962.141277610     A.U. after    8 cycles
 SCF Done:  E(RM062X) =  -962.141277790     A.U. after    8 cycles
 SCF Done:  E(RM062X) =  -962.141277838     A.U. after    6 cycles
 SCF Done:  E(RM062X) =  -962.141277842     A.U. after    5 cycles
 SCF Done:  E(RM062X) =  -962.141277843     A.U. after    4 cycles
 Optimization completed.
    -- Stationary point found.
 Normal termination of Gaussian 16 at Sat May 24 10:30:27 2025.

 ---------------------------------------------------------------------
 #P Geom=AllCheck Guess=TCheck SCRF=Check GenChk RM062X/def2TZVPP Freq
 ---------------------------------------------------------------------

 Structure from the checkpoint file:  "/tmp/Gau-66595.chk"
 ------------------------------
 Gaussian input prepared by ASE
 ------------------------------
 Charge =  0 Multiplicity = 1

                          Input orientation:
 ---------------------------------------------------------------------
 Center     Atomic      Atomic             Coordinates (Angstroms)
 Number     Number       Type             X           Y           Z
 ---------------------------------------------------------------------
      1          6           0       -0.717625    0.723576    0.993744
      2         16           0        1.637215   -0.024164   -0.061026
      3          8           0       -0.034813   -0.041259    0.097780
      4          8           0        2.214580   -0.537973    1.136288
      5          8           0        1.853580    1.567329    0.063135
      6          9           0       -1.905484    0.177758    1.182493
      7          9           0       -0.101592    0.826510    2.158323
      8          9           0       -0.902918    1.956012    0.514905
      9          1           0        1.485214    2.031045   -0.702126
 ---------------------------------------------------------------------

 SCF Done:  E(RM062X) =  -962.141277843     A.U. after    1 cycles

 Isotropic polarizability for W=    0.000000       43.01 Bohr**3.
 End of Minotr F.D. properties file   721 does not exist.

                      1                      2                      3
                      A                      A                      A
 Frequencies --     60.0063               100.6567               168.3723
 Red. masses --     12.0481                 9.1904                12.9931
 Frc consts  --      0.0256                 0.0549                 0.2170
 IR Inten    --      3.5553                 4.4156                 0.3541

                      4                      5                      6
                      A                      A                      A
 Frequencies --    271.5398               314.2624               343.8975
 Red. masses --      1.8693                12.3695                 2.5114
 Frc consts  --      0.0812                 0.7198                 0.1750
 IR Inten    --     55.8925                 8.3161                50.3339

                      7                      8                      9
                      A                      A                      A
 Frequencies --    449.8663               467.6597               522.0042
 Red. masses --     10.7282                12.7346                18.6740
 Frc consts  --      1.2792                 1.6409                 2.9980
 IR Inten    --     32.2658                 6.5887               102.8100

                     10                     11                     12
                      A                      A                      A
 Frequencies --    537.6334               635.5762               706.8996
 Red. masses --     14.7298                16.8140                17.2963
 Frc consts  --      2.5085                 4.0018                 5.0924
 IR Inten    --     15.8568                 7.2289                14.4667

                     13                     14                     15
                      A                      A                      A
 Frequencies --    751.2695               831.5120               976.5797
 Red. masses --     16.9805                12.7449                17.3011
 Frc consts  --      5.6467                 5.1919                 9.7216
 IR Inten    --    124.6703                96.3254               117.3268

                     16                     17                     18
                      A                      A                      A
 Frequencies --   1093.8987              1224.0909              1260.7319
 Red. masses --      1.1787                12.4728                13.1592
 Frc consts  --      0.8310                11.0113                12.3233
 IR Inten    --    108.9815               714.0655               260.7831

                     19                     20                     21
                      A                      A                      A
 Frequencies --   1311.2211              1362.5120              3812.8029
 Red. masses --     12.9931                15.1348                 1.0658
 Frc consts  --     13.1618                16.5542                 9.1292
 IR Inten    --    359.7042               246.7088               134.7833

 - Thermochemistry -
 -------------------
 Temperature   298.150 Kelvin.  Pressure   1.00000 Atm.
 Atom     1 has atomic number  6 and mass  12.00000

 Molecular mass:   149.95985 amu.
 Principal axes and moments of inertia in atomic units:
                           1         2         3
     Eigenvalues --   537.506731350.290821473.05868
           X            0.94547   0.06638   0.31886
           Y           -0.20349   0.88481   0.41917
           Z           -0.25431  -0.46120   0.85007
 This molecule is an asymmetric top.
 Rotational symmetry number  1.
 Warning -- assumption of classical behavior for rotation
           may cause significant error
 Rotational temperatures (Kelvin)      0.16114     0.06414     0.05880
 Rotational constants (GHZ):           3.35762     1.33656     1.22517
 Zero-point vibrational energy     102896.7 (Joules/Mol)
                                   24.59291 (Kcal/Mol)
 Warning -- explicit consideration of  10 degrees of freedom as
           vibrations may cause significant error
 Vibrational temperatures:     86.34   144.82   242.25   390.69   452.15
          (Kelvin)            494.79   647.26   672.86   751.05   773.53
                              914.45  1017.07  1080.91  1196.36  1405.08
                             1573.88  1761.19  1813.91  1886.55  1960.35
                             5485.77

 Zero-point correction=                           0.039191 (Hartree/Particle)
 Thermal correction to Energy=                    0.046858
 Thermal correction to Enthalpy=                  0.047803
 Thermal correction to Gibbs Free Energy=         0.006000
 Sum of electronic and zero-point Energies=           -962.102087
 Sum of electronic and thermal Energies=              -962.094419
 Sum of electronic and thermal Enthalpies=            -962.093475
 Sum of electronic and thermal Free Energies=         -962.135278

                     E (Thermal)             CV                S
                      KCal/Mol        Cal/Mol-Kelvin    Cal/Mol-Kelvin
 Total                   29.404             26.194             87.982
 Electronic               0.000              0.000              0.000
 Translational            0.889              2.981             40.926
 Rotational               0.889              2.981             28.460
 Vibrational             27.627             20.232             18.596
 Vibration     1          0.597              1.973              4.457
 Vibration     2          0.604              1.949              3.442
 Vibration     3          0.625              1.881              2.454
 Vibration     4          0.675              1.726              1.586
 Vibration     5          0.702              1.646              1.340
 Vibration     6          0.723              1.588              1.194
 Vibration     7          0.809              1.361              0.796
 Vibration     8          0.825              1.322              0.744
 Vibration     9          0.877              1.201              0.605
 Vibration    10          0.893              1.167              0.570

 Optimization completed.
    -- Stationary point found.
 Normal termination of Gaussian 16 at Sat May 24 10:32:21 2025.
