 Gaussian 16, Revision C.01,
 Gaussian 16:  ES64L-G16RevC.01  3-Jul-2019

 ----------------------------------------------------------------------
 #P M062X/Def2TZVPP Symm(None) scf(xqc) pop(None) freq opt(CalcFC, Tigh
 t)
 ----------------------------------------------------------------------

 ------------------------------
 Gaussian input prepared by ASE
 ------------------------------
 Symbolic Z-matrix:
 Charge =  0 Multiplicity = 1

 SCF Done:  E(RM062X) =  -962.137505774     A.U. after   14 cycles
 SCF Done:  E(RM062X) =  -962.140304348     A.U. after   15 cycles
 SCF Done:  E(RM062X) =  -962.142884350     A.U. after   15 cycles
 SCF Done:  E(RM062X) =  -962.145598881     A.U. after   12 cycles
 SCF Done:  E(RM062X) =  -962.138265122     A.U. after   15 cycles
 SCF Done:  E(RM062X) =  -962.145702743     A.U. after   12 cycles
 SCF Done:  E(RM062X) =  -962.145636672     A.U. after   12 cycles
 SCF Done:  E(RM062X) =  -962.145828429     A.U. after   11 cycles
 SCF Done:  E(RM062X) =  -962.145918381     A.U. after   10 cycles
 SCF Done:  E(RM062X) =  -962.146049215     A.U. after   11 cycles
 SCF Done:  E(RM062X) =  -962.146101539     A.U. after   10 cycles
 SCF Done:  E(RM062X) =  -962.146138644     A.U. after   11 cycles
 SCF Done:  E(RM062X) =  -962.146153401     A.U. after   11 cycles
 SCF Done:  E(RM062X) =  -962.146159846     A.U. after   11 cycles
 SCF Done:  E(RM062X) =  -962.146160560     A.U. after    8 cycles
 SCF Done:  E(RM062X) =  -962.146160654     A.U. after    7 cycles
 SCF Done:  E(RM062X) =  -962.146160655     A.U. after    5 cycles
 Optimization completed.
    -- Stationary point found.
 Normal termination of Gaussian 16 at Sat May 24 10:32:13 2025.

 ---------------------------------------------------------------------
 #P Geom=AllCheck Guess=TCheck SCRF=Check GenChk RM062X/def2TZVPP Freq
 ---------------------------------------------------------------------

 Structure from the checkpoint file:  "/tmp/Gau-123264.chk"
 ------------------------------
 Gaussian input prepared by ASE
 ------------------------------
 Charge =  0 Multiplicity = 1

                          Input orientation:
 ---------------------------------------------------------------------
 Center     Atomic      Atomic             Coordinates (Angstroms)
 Number     Number       Type             X           Y           Z
 ---------------------------------------------------------------------
      1          6           0       -0.718544    0.542287   -1.008129
      2         16           0        1.565242   -0.181105    0.117619
      3          8           0       -0.094112    0.158498    0.130656
      4          8           0        1.812990   -0.330121    1.517946
      5          8           0        2.070688    1.258724   -0.337524
      6          9           0       -1.992404    0.205678   -0.930762
      7          9           0       -0.646018    1.859091   -1.182331
      8          9           0       -0.190769   -0.035723   -2.089052
      9          1           0        1.920975    1.913994    0.364144
 ---------------------------------------------------------------------

 SCF Done:  E(RM062X) =  -962.146160655     A.U. after    1 cycles

 Isotropic polarizability for W=    0.000000       43.32 Bohr**3.
 End of Minotr F.D. properties file   721 does not exist.

                      1                      2                      3
                      A                      A                      A
 Frequencies --     39.9591                83.5492               161.5185
 Red. masses --     11.5475                10.9731                16.3237
 Frc consts  --      0.0109                 0.0451                 0.2509
 IR Inten    --      1.2471                 0.4024                 2.3892

                      4                      5                      6
                      A                      A                      A
 Frequencies --    279.2102               326.5725               357.9787
 Red. masses --      2.2901                16.0215                 3.3563
 Frc consts  --      0.1052                 1.0067                 0.2534
 IR Inten    --     25.8472                 9.3741                 6.2940

                      7                      8                      9
                      A                      A                      A
 Frequencies --    421.1072               494.6008               504.8189
 Red. masses --     11.3714                 9.3336                 3.0829
 Frc consts  --      1.1881                 1.3453                 0.4629
 IR Inten    --     24.7435                13.9620               104.0303

                     10                     11                     12
                      A                      A                      A
 Frequencies --    564.4940               639.6702               692.4519
 Red. masses --     13.2443                15.5778                16.3188
 Frc consts  --      2.4866                 3.7555                 4.6102
 IR Inten    --     96.5023                13.1400                 0.7236

                     13                     14                     15
                      A                      A                      A
 Frequencies --    765.5012               856.1072               974.1346
 Red. masses --     17.5759                14.3217                17.4284
 Frc consts  --      6.0682                 6.1844                 9.7442
 IR Inten    --    164.3265               176.4427                53.4062

                     16                     17                     18
                      A                      A                      A
 Frequencies --   1109.7562              1251.3299              1256.8609
 Red. masses --      1.2922                12.2995                11.1650
 Frc consts  --      0.9376                11.3470                10.3917
 IR Inten    --     55.6720               371.3088               694.0504

                     19                     20                     21
                      A                      A                      A
 Frequencies --   1303.7676              1344.3301              3749.0190
 Red. masses --     12.3688                14.3717                 1.0646
 Frc consts  --     12.3873                15.3028                 8.8160
 IR Inten    --    441.9189               147.6372               123.3314

 - Thermochemistry -
 -------------------
 Temperature   298.150 Kelvin.  Pressure   1.00000 Atm.
 Atom     1 has atomic number  6 and mass  12.00000

 Molecular mass:   149.95985 amu.
 Principal axes and moments of inertia in atomic units:
                           1         2         3
     Eigenvalues --   505.997961481.923151611.62601
           X            0.83616   0.45777  -0.30214
           Y           -0.15577   0.72636   0.66943
           Z            0.52591  -0.51269   0.67866
 This molecule is an asymmetric top.
 Rotational symmetry number  1.
 Warning -- assumption of classical behavior for rotation
           may cause significant error
 Rotational temperatures (Kelvin)      0.17117     0.05845     0.05374
 Rotational constants (GHZ):           3.56670     1.21784     1.11983
 Zero-point vibrational energy     102739.7 (Joules/Mol)
                                   24.55538 (Kcal/Mol)
 Warning -- explicit consideration of  10 degrees of freedom as
           vibrations may cause significant error
 Vibrational temperatures:     57.49   120.21   232.39   401.72   469.87
          (Kelvin)            515.05   605.88   711.62   726.32   812.18
                              920.34   996.28  1101.39  1231.75  1401.56
                             1596.69  1800.38  1808.34  1875.83  1934.19
                             5394.00

 Zero-point correction=                           0.039131 (Hartree/Particle)
 Thermal correction to Energy=                    0.046836
 Thermal correction to Enthalpy=                  0.047780
 Thermal correction to Gibbs Free Energy=         0.005418
 Sum of electronic and zero-point Energies=           -962.107029
 Sum of electronic and thermal Energies=              -962.099325
 Sum of electronic and thermal Enthalpies=            -962.098380
 Sum of electronic and thermal Free Energies=         -962.140742

                     E (Thermal)             CV                S
                      KCal/Mol        Cal/Mol-Kelvin    Cal/Mol-Kelvin
 Total                   29.390             26.081             89.158
 Electronic               0.000              0.000              0.000
 Translational            0.889              2.981             40.926
 Rotational               0.889              2.981             28.582
 Vibrational             27.613             20.119             19.650
 Vibration     1          0.594              1.981              5.261
 Vibration     2          0.600              1.961              3.806
 Vibration     3          0.622              1.890              2.532
 Vibration     4          0.680              1.712              1.539
 Vibration     5          0.710              1.622              1.277
 Vibration     6          0.733              1.559              1.131
 Vibration     7          0.784              1.424              0.888
 Vibration     8          0.850              1.262              0.672
 Vibration     9          0.860              1.239              0.646
 Vibration    10          0.920              1.108              0.515

 Optimization completed.
    -- Stationary point found.
 Normal termination of Gaussian 16 at Sat May 24 10:34:08 2025.
