 Gaussian 16, Revision C.01,
 Gaussian 16:  ES64L-G16RevC.01  3-Jul-2019

 -------------------------------------------------------------
 #P M062X/Def2TZVPP scf(xqc) pop(None) freq opt(CalcFC, Tight)
 -------------------------------------------------------------

 ------------------------------
 Gaussian input prepared by ASE
 ------------------------------
 Symbolic Z-matrix:
 Charge =  0 Multiplicity = 2

 SCF Done:  E(UM062X) =  -75.7334900004     A.U. after   13 cycles
 Optimization completed.
    -- Stationary point found.
 Normal termination of Gaussian 16 at Sat May 24 00:59:57 2025.

 ---------------------------------------------------------------------
 #P Geom=AllCheck Guess=TCheck SCRF=Check GenChk UM062X/def2TZVPP Freq
 ---------------------------------------------------------------------

 Structure from the checkpoint file:  "/tmp/Gau-5366.chk"
 ------------------------------
 Gaussian input prepared by ASE
 ------------------------------
 Charge =  0 Multiplicity = 2

                         Standard orientation:
 ---------------------------------------------------------------------
 Center     Atomic      Atomic             Coordinates (Angstroms)
 Number     Number       Type             X           Y           Z
 ---------------------------------------------------------------------
      1          8           0        0.000000   -0.000000    0.107909
      2          1           0       -0.000000    0.000000   -0.863271
 ---------------------------------------------------------------------

 SCF Done:  E(UM062X) =  -75.7334900004     A.U. after    1 cycles

 Isotropic polarizability for W=    0.000000        5.29 Bohr**3.
 End of Minotr F.D. properties file   721 does not exist.

                      1
                     SG
 Frequencies --   3779.9792
 Red. masses --      1.0671
 Frc consts  --      8.9832
 IR Inten    --     20.2016

 - Thermochemistry -
 -------------------
 Temperature   298.150 Kelvin.  Pressure   1.00000 Atm.
 Atom     1 has atomic number  8 and mass  15.99491

 Molecular mass:    17.00274 amu.
 Principal axes and moments of inertia in atomic units:
                           1         2         3
     Eigenvalues --     0.00000   3.19334   3.19334
           X            0.00000   0.96170  -0.27410
           Y            0.00000   0.27410   0.96170
           Z            1.00000  -0.00000  -0.00000
 This molecule is a prolate symmetric top.
 Rotational symmetry number  1.
 Rotational temperature (Kelvin)     27.12328
 Rotational constant (GHZ):         565.157371
 Zero-point vibrational energy      22609.3 (Joules/Mol)
                                    5.40375 (Kcal/Mol)
 Vibrational temperatures:   5438.55
          (Kelvin)

 Zero-point correction=                           0.008611 (Hartree/Particle)
 Thermal correction to Energy=                    0.010972
 Thermal correction to Enthalpy=                  0.011916
 Thermal correction to Gibbs Free Energy=        -0.008308
 Sum of electronic and zero-point Energies=            -75.724879
 Sum of electronic and thermal Energies=               -75.722518
 Sum of electronic and thermal Enthalpies=             -75.721574
 Sum of electronic and thermal Free Energies=          -75.741798

                     E (Thermal)             CV                S
                      KCal/Mol        Cal/Mol-Kelvin    Cal/Mol-Kelvin
 Total                    6.885              4.968             42.565
 Electronic               0.000              0.000              1.377
 Translational            0.889              2.981             34.437
 Rotational               0.592              1.987              6.751
 Vibrational              5.404              0.000              0.000

 Optimization completed.
    -- Stationary point found.
 Normal termination of Gaussian 16 at Sat May 24 00:59:59 2025.
