 Gaussian 16, Revision C.01,
 Gaussian 16:  ES64L-G16RevC.01  3-Jul-2019

 ----------------------------------------------------------------------
 #P M062X/Def2TZVPP Symm(None) scf(xqc) pop(None) freq opt(CalcFC, Tigh
 t)
 ----------------------------------------------------------------------

 ------------------------------
 Gaussian input prepared by ASE
 ------------------------------
 Symbolic Z-matrix:
 Charge =  0 Multiplicity = 2

 SCF Done:  E(UM062X) =  -1099.99812802     A.U. after   17 cycles
 SCF Done:  E(UM062X) =  -1100.00406580     A.U. after   14 cycles
 SCF Done:  E(UM062X) =  -1100.00504317     A.U. after   13 cycles
 SCF Done:  E(UM062X) =  -1100.00531154     A.U. after   12 cycles
 SCF Done:  E(UM062X) =  -1100.00547306     A.U. after   13 cycles
 SCF Done:  E(UM062X) =  -1100.00557517     A.U. after   12 cycles
 SCF Done:  E(UM062X) =  -1100.00561874     A.U. after   10 cycles
 SCF Done:  E(UM062X) =  -1100.00562795     A.U. after   11 cycles
 SCF Done:  E(UM062X) =  -1100.00562840     A.U. after    8 cycles
 SCF Done:  E(UM062X) =  -1100.00562841     A.U. after    7 cycles
 SCF Done:  E(UM062X) =  -1100.00562841     A.U. after    5 cycles
 Optimization completed.
    -- Stationary point found.
 Normal termination of Gaussian 16 at Sat May 24 01:10:13 2025.

 ---------------------------------------------------------------------
 #P Geom=AllCheck Guess=TCheck SCRF=Check GenChk UM062X/def2TZVPP Freq
 ---------------------------------------------------------------------

 Structure from the checkpoint file:  "/tmp/Gau-234398.chk"
 ------------------------------
 Gaussian input prepared by ASE
 ------------------------------
 Charge =  0 Multiplicity = 2

                          Input orientation:
 ---------------------------------------------------------------------
 Center     Atomic      Atomic             Coordinates (Angstroms)
 Number     Number       Type             X           Y           Z
 ---------------------------------------------------------------------
      1          6           0       -0.536322   -1.459211   -0.150834
      2          6           0       -0.062960   -0.027528   -0.085660
      3          9           0       -0.514297    0.632670   -1.150010
      4          9           0       -0.508397    0.595076    1.025948
      5         16           0        1.771755    0.069188   -0.070089
      6          8           0        2.218893   -0.489038    1.156152
      7          8           0        2.218587   -0.370575   -1.336276
      8          8           0        1.940343    1.631460   -0.022225
      9          9           0       -0.245002   -2.182207    0.901374
     10          9           0       -1.790479   -1.590725   -0.511726
     11          1           0        1.974165    1.934172    0.896751
 ---------------------------------------------------------------------

 SCF Done:  E(UM062X) =  -1100.00562841     A.U. after    1 cycles

 Isotropic polarizability for W=    0.000000       52.10 Bohr**3.
 End of Minotr F.D. properties file   721 does not exist.

                      1                      2                      3
                      A                      A                      A
 Frequencies --     27.1838                60.6228               129.5699
 Red. masses --     15.8671                13.0121                13.0757
 Frc consts  --      0.0069                 0.0282                 0.1293
 IR Inten    --      1.1474                 1.5441                 1.7737

                      4                      5                      6
                      A                      A                      A
 Frequencies --    192.2737               216.7651               237.2546
 Red. masses --      9.5137                17.9095                 8.7888
 Frc consts  --      0.2072                 0.4958                 0.2915
 IR Inten    --      8.9487                 1.6738                11.6565

                      7                      8                      9
                      A                      A                      A
 Frequencies --    295.3444               317.1036               332.6022
 Red. masses --      9.6107                 3.4406                 5.5741
 Frc consts  --      0.4939                 0.2038                 0.3633
 IR Inten    --      0.2963                28.9635                13.4979

                     10                     11                     12
                      A                      A                      A
 Frequencies --    373.3071               446.8253               496.0539
 Red. masses --      2.7964                 5.9747                 6.9902
 Frc consts  --      0.2296                 0.7028                 1.0134
 IR Inten    --     39.0535                 4.8990                34.9028

                     13                     14                     15
                      A                      A                      A
 Frequencies --    510.9132               595.9748               605.4673
 Red. masses --     15.1876                16.4944                17.3901
 Frc consts  --      2.3358                 3.4518                 3.7561
 IR Inten    --     26.7678                20.3717                53.9935

                     16                     17                     18
                      A                      A                      A
 Frequencies --    651.7181               790.5686               895.2696
 Red. masses --     17.7974                14.4809                16.4441
 Frc consts  --      4.4538                 5.3324                 7.7655
 IR Inten    --     86.2399                14.2503               239.2484

                     19                     20                     21
                      A                      A                      A
 Frequencies --   1049.4724              1139.4001              1155.1360
 Red. masses --     13.8740                 1.1894                12.5138
 Frc consts  --      9.0031                 0.9098                 9.8380
 IR Inten    --     29.3798               102.1283               171.5513

                     22                     23                     24
                      A                      A                      A
 Frequencies --   1244.8726              1275.8263              1353.9119
 Red. masses --     14.6831                15.9569                13.4334
 Frc consts  --     13.4066                15.3032                14.5083
 IR Inten    --    183.0670                46.6396               230.3978

                     25                     26                     27
                      A                      A                      A
 Frequencies --   1412.1348              1495.8541              3810.8202
 Red. masses --     12.8772                15.2042                 1.0656
 Frc consts  --     15.1295                20.0444                 9.1180
 IR Inten    --     73.3619               286.2462               189.7280

 - Thermochemistry -
 -------------------
 Temperature   298.150 Kelvin.  Pressure   1.00000 Atm.
 Atom     1 has atomic number  6 and mass  12.00000

 Molecular mass:   180.95825 amu.
 Principal axes and moments of inertia in atomic units:
                           1         2         3
     Eigenvalues --   950.527401856.951802058.56419
           X            0.86208  -0.45659  -0.21988
           Y            0.50653   0.76272   0.40210
           Z           -0.01588  -0.45801   0.88880
 This molecule is an asymmetric top.
 Rotational symmetry number  1.
 Warning -- assumption of classical behavior for rotation
           may cause significant error
 Rotational temperatures (Kelvin)      0.09112     0.04664     0.04207
 Rotational constants (GHZ):           1.89867     0.97188     0.87670
 Zero-point vibrational energy     126279.3 (Joules/Mol)
                                   30.18147 (Kcal/Mol)
 Warning -- explicit consideration of  15 degrees of freedom as
           vibrations may cause significant error
 Vibrational temperatures:     39.11    87.22   186.42   276.64   311.88
          (Kelvin)            341.36   424.93   456.24   478.54   537.11
                              642.88   713.71   735.09   857.47   871.13
                              937.68  1137.45  1288.09  1509.96  1639.34
                             1661.98  1791.09  1835.63  1947.98  2031.75
                             2152.20  5482.92

 Zero-point correction=                           0.048097 (Hartree/Particle)
 Thermal correction to Energy=                    0.057879
 Thermal correction to Enthalpy=                  0.058823
 Thermal correction to Gibbs Free Energy=         0.010800
 Sum of electronic and zero-point Energies=          -1099.957531
 Sum of electronic and thermal Energies=             -1099.947750
 Sum of electronic and thermal Enthalpies=           -1099.946806
 Sum of electronic and thermal Free Energies=        -1099.994829

                     E (Thermal)             CV                S
                      KCal/Mol        Cal/Mol-Kelvin    Cal/Mol-Kelvin
 Total                   36.319             33.213            101.073
 Electronic               0.000              0.000              1.377
 Translational            0.889              2.981             41.486
 Rotational               0.889              2.981             29.676
 Vibrational             34.542             27.251             28.534
 Vibration     1          0.593              1.984              6.025
 Vibration     2          0.597              1.973              4.437
 Vibration     3          0.612              1.924              2.952
 Vibration     4          0.634              1.851              2.206
 Vibration     5          0.646              1.816              1.986
 Vibration     6          0.656              1.784              1.823
 Vibration     7          0.690              1.682              1.443
 Vibration     8          0.704              1.641              1.325
 Vibration     9          0.715              1.610              1.247
 Vibration    10          0.745              1.527              1.066
 Vibration    11          0.806              1.368              0.805
 Vibration    12          0.852              1.259              0.668
 Vibration    13          0.866              1.226              0.631
 Vibration    14          0.954              1.040              0.457
 Vibration    15          0.964              1.020              0.440

 Optimization completed.
    -- Stationary point found.
 Normal termination of Gaussian 16 at Sat May 24 01:15:34 2025.
