 Gaussian 16, Revision C.01,
 Gaussian 16:  ES64L-G16RevC.01  3-Jul-2019

 ----------------------------------------------------------------------
 #P M062X/Def2TZVPP Symm(None) scf(xqc) pop(None) freq opt(CalcFC, Tigh
 t)
 ----------------------------------------------------------------------

 ------------------------------
 Gaussian input prepared by ASE
 ------------------------------
 Symbolic Z-matrix:
 Charge =  0 Multiplicity = 2

 SCF Done:  E(UM062X) =  -1100.01636756     A.U. after   16 cycles
 SCF Done:  E(UM062X) =  -1100.01952722     A.U. after   14 cycles
 SCF Done:  E(UM062X) =  -1099.97814428     A.U. after   15 cycles
 SCF Done:  E(UM062X) =  -1100.02010023     A.U. after   13 cycles
 SCF Done:  E(UM062X) =  -1100.02036472     A.U. after   13 cycles
 SCF Done:  E(UM062X) =  -1100.02038659     A.U. after   11 cycles
 SCF Done:  E(UM062X) =  -1100.02040186     A.U. after   11 cycles
 SCF Done:  E(UM062X) =  -1100.02040329     A.U. after    9 cycles
 SCF Done:  E(UM062X) =  -1100.02040381     A.U. after    8 cycles
 SCF Done:  E(UM062X) =  -1100.02040382     A.U. after    7 cycles
 SCF Done:  E(UM062X) =  -1100.02040382     A.U. after    5 cycles
 SCF Done:  E(UM062X) =  -1100.02040382     A.U. after    3 cycles
 Optimization completed.
    -- Stationary point found.
 Normal termination of Gaussian 16 at Sat May 24 01:25:01 2025.

 ---------------------------------------------------------------------
 #P Geom=AllCheck Guess=TCheck SCRF=Check GenChk UM062X/def2TZVPP Freq
 ---------------------------------------------------------------------

 Structure from the checkpoint file:  "/tmp/Gau-39441.chk"
 ------------------------------
 Gaussian input prepared by ASE
 ------------------------------
 Charge =  0 Multiplicity = 2

                          Input orientation:
 ---------------------------------------------------------------------
 Center     Atomic      Atomic             Coordinates (Angstroms)
 Number     Number       Type             X           Y           Z
 ---------------------------------------------------------------------
      1          6           0        1.075755   -0.258788    2.825904
      2          6           0        1.897028   -0.425401    1.568326
      3          9           0        3.198353   -0.372205    1.722670
      4         16           0        1.308957   -0.004709   -0.033691
      5          8           0        2.054030   -0.763605   -0.974703
      6          8           0       -0.101234   -0.013744    0.045292
      7          8           0        1.768956    1.501318   -0.159106
      8          9           0        0.716492    1.013776    3.004886
      9          9           0       -0.022191   -0.995531    2.777551
     10          9           0        1.801627   -0.633891    3.872637
     11          1           0        2.584783    1.552272   -0.677007
 ---------------------------------------------------------------------

 SCF Done:  E(UM062X) =  -1100.02040382     A.U. after    1 cycles

 Isotropic polarizability for W=    0.000000       51.74 Bohr**3.
 End of Minotr F.D. properties file   721 does not exist.

                      1                      2                      3
                      A                      A                      A
 Frequencies --     32.1467                41.0054               115.6684
 Red. masses --     15.8225                12.8675                14.5937
 Frc consts  --      0.0096                 0.0127                 0.1150
 IR Inten    --      0.9545                 0.9491                 1.4806

                      4                      5                      6
                      A                      A                      A
 Frequencies --    141.9447               236.6204               257.7869
 Red. masses --     10.4556                 6.4419                 9.9806
 Frc consts  --      0.1241                 0.2125                 0.3908
 IR Inten    --      3.2994                14.3227                 8.2719

                      7                      8                      9
                      A                      A                      A
 Frequencies --    301.6359               317.2705               343.3917
 Red. masses --      4.3052                 3.2083                 4.2156
 Frc consts  --      0.2308                 0.1903                 0.2929
 IR Inten    --      9.0327                29.7774                23.6854

                     10                     11                     12
                      A                      A                      A
 Frequencies --    441.1526               467.9197               496.4682
 Red. masses --      8.9736                 5.2246                10.8666
 Frc consts  --      1.0289                 0.6740                 1.5781
 IR Inten    --     10.5060                16.3651                19.8783

                     13                     14                     15
                      A                      A                      A
 Frequencies --    524.5016               594.8859               613.4591
 Red. masses --     15.0786                15.9306                14.7781
 Frc consts  --      2.4440                 3.3216                 3.2767
 IR Inten    --     13.6477                 6.2300                 7.0896

                     16                     17                     18
                      A                      A                      A
 Frequencies --    631.5291               766.4820               887.5786
 Red. masses --     19.0514                17.1289                17.0518
 Frc consts  --      4.4768                 5.9290                 7.9147
 IR Inten    --    144.3896                10.9315               200.7471

                     19                     20                     21
                      A                      A                      A
 Frequencies --   1041.5364              1140.5120              1219.9766
 Red. masses --     13.4555                 1.1995                13.3172
 Frc consts  --      8.6000                 0.9193                11.6779
 IR Inten    --     55.4939                68.6999               218.1282

                     22                     23                     24
                      A                      A                      A
 Frequencies --   1248.3315              1273.6197              1298.2255
 Red. masses --     15.9175                13.3457                12.9575
 Frc consts  --     14.6145                12.7547                12.8668
 IR Inten    --    131.7907               300.3915               262.3741

                     25                     26                     27
                      A                      A                      A
 Frequencies --   1433.0116              1497.7736              3815.1475
 Red. masses --     12.9834                15.1443                 1.0657
 Frc consts  --     15.7087                20.0166                 9.1394
 IR Inten    --     93.9000               283.3243               195.3510

 - Thermochemistry -
 -------------------
 Temperature   298.150 Kelvin.  Pressure   1.00000 Atm.
 Atom     1 has atomic number  6 and mass  12.00000

 Molecular mass:   180.95825 amu.
 Principal axes and moments of inertia in atomic units:
                           1         2         3
     Eigenvalues --   900.692431990.395722231.41828
           X           -0.10555   0.98963   0.09746
           Y           -0.11755  -0.10973   0.98699
           Z            0.98744   0.09272   0.12792
 This molecule is an asymmetric top.
 Rotational symmetry number  1.
 Warning -- assumption of classical behavior for rotation
           may cause significant error
 Rotational temperatures (Kelvin)      0.09616     0.04352     0.03882
 Rotational constants (GHZ):           2.00373     0.90672     0.80879
 Zero-point vibrational energy     126682.0 (Joules/Mol)
                                   30.27773 (Kcal/Mol)
 Warning -- explicit consideration of  15 degrees of freedom as
           vibrations may cause significant error
 Vibrational temperatures:     46.25    59.00   166.42   204.23   340.44
          (Kelvin)            370.90   433.99   456.48   494.06   634.72
                              673.23   714.31   754.64   855.91   882.63
                              908.63  1102.80  1277.03  1498.54  1640.94
                             1755.27  1796.07  1832.45  1867.86  2061.78
                             2154.96  5489.15

 Zero-point correction=                           0.048251 (Hartree/Particle)
 Thermal correction to Energy=                    0.058014
 Thermal correction to Enthalpy=                  0.058958
 Thermal correction to Gibbs Free Energy=         0.010634
 Sum of electronic and zero-point Energies=          -1099.972153
 Sum of electronic and thermal Energies=             -1099.962390
 Sum of electronic and thermal Enthalpies=           -1099.961445
 Sum of electronic and thermal Free Energies=        -1100.009770

                     E (Thermal)             CV                S
                      KCal/Mol        Cal/Mol-Kelvin    Cal/Mol-Kelvin
 Total                   36.404             33.028            101.708
 Electronic               0.000              0.000              1.377
 Translational            0.889              2.981             41.486
 Rotational               0.889              2.981             29.771
 Vibrational             34.627             27.067             29.074
 Vibration     1          0.594              1.983              5.692
 Vibration     2          0.594              1.981              5.210
 Vibration     3          0.608              1.936              3.171
 Vibration     4          0.615              1.911              2.777
 Vibration     5          0.656              1.785              1.828
 Vibration     6          0.667              1.750              1.677
 Vibration     7          0.694              1.671              1.408
 Vibration     8          0.704              1.641              1.324
 Vibration     9          0.722              1.589              1.196
 Vibration    10          0.801              1.380              0.823
 Vibration    11          0.825              1.321              0.743
 Vibration    12          0.852              1.258              0.667
 Vibration    13          0.879              1.196              0.600
 Vibration    14          0.953              1.043              0.459
 Vibration    15          0.973              1.003              0.427

 Optimization completed.
    -- Stationary point found.
 Normal termination of Gaussian 16 at Sat May 24 01:30:49 2025.
