 Gaussian 16, Revision C.01,
 Gaussian 16:  ES64L-G16RevC.01  3-Jul-2019

 ----------------------------------------------------------------------
 #P M062X/Def2TZVPP Symm(None) scf(xqc) pop(None) freq opt(CalcFC, Tigh
 t)
 ----------------------------------------------------------------------

 ------------------------------
 Gaussian input prepared by ASE
 ------------------------------
 Symbolic Z-matrix:
 Charge =  0 Multiplicity = 2

 SCF Done:  E(UM062X) =  -1100.01137679     A.U. after   16 cycles
 SCF Done:  E(UM062X) =  -1100.01791529     A.U. after   14 cycles
 SCF Done:  E(UM062X) =  -1100.01948268     A.U. after   13 cycles
 SCF Done:  E(UM062X) =  -1100.01996843     A.U. after   13 cycles
 SCF Done:  E(UM062X) =  -1100.02018433     A.U. after   13 cycles
 SCF Done:  E(UM062X) =  -1100.02035159     A.U. after   13 cycles
 SCF Done:  E(UM062X) =  -1100.02039491     A.U. after   11 cycles
 SCF Done:  E(UM062X) =  -1100.02040299     A.U. after   11 cycles
 SCF Done:  E(UM062X) =  -1100.02040487     A.U. after   11 cycles
 SCF Done:  E(UM062X) =  -1100.02040491     A.U. after    6 cycles
 SCF Done:  E(UM062X) =  -1100.02040492     A.U. after    5 cycles
 SCF Done:  E(UM062X) =  -1100.02040492     A.U. after    3 cycles
 SCF Done:  E(UM062X) =  -1100.02040492     A.U. after    3 cycles
 Optimization completed.
    -- Stationary point found.
 Normal termination of Gaussian 16 at Sat May 24 01:24:35 2025.

 ---------------------------------------------------------------------
 #P Geom=AllCheck Guess=TCheck SCRF=Check GenChk UM062X/def2TZVPP Freq
 ---------------------------------------------------------------------

 Structure from the checkpoint file:  "/tmp/Gau-28611.chk"
 ------------------------------
 Gaussian input prepared by ASE
 ------------------------------
 Charge =  0 Multiplicity = 2

                          Input orientation:
 ---------------------------------------------------------------------
 Center     Atomic      Atomic             Coordinates (Angstroms)
 Number     Number       Type             X           Y           Z
 ---------------------------------------------------------------------
      1          6           0        1.001787   -0.335327    2.904708
      2          6           0        1.904347   -0.480646    1.701190
      3          9           0        3.191813   -0.509692    1.949047
      4         16           0        1.456931    0.055215    0.088229
      5          8           0        2.228283   -0.693009   -0.840046
      6          8           0        0.046095    0.119933    0.068353
      7          8           0        2.001753    1.538031    0.080092
      8          9           0        0.683611    0.942339    3.120335
      9          9           0       -0.119606   -1.018827    2.742627
     10          9           0        1.633415   -0.790941    3.980124
     11          1           0        2.854450    1.570755   -0.376216
 ---------------------------------------------------------------------

 SCF Done:  E(UM062X) =  -1100.02040492     A.U. after    1 cycles

 Isotropic polarizability for W=    0.000000       51.74 Bohr**3.
 End of Minotr F.D. properties file   721 does not exist.

                      1                      2                      3
                      A                      A                      A
 Frequencies --     35.2210                41.8444               114.9845
 Red. masses --     17.0763                12.1930                14.5962
 Frc consts  --      0.0125                 0.0126                 0.1137
 IR Inten    --      0.6557                 1.1760                 1.4678

                      4                      5                      6
                      A                      A                      A
 Frequencies --    140.0524               237.3147               258.6809
 Red. masses --     10.6568                 7.0777                10.5807
 Frc consts  --      0.1232                 0.2349                 0.4172
 IR Inten    --      3.2426                12.8231                 7.8126

                      7                      8                      9
                      A                      A                      A
 Frequencies --    302.6871               319.9336               344.3931
 Red. masses --      5.4240                 3.0117                 3.4583
 Frc consts  --      0.2928                 0.1816                 0.2417
 IR Inten    --      5.5251                30.0260                29.2360

                     10                     11                     12
                      A                      A                      A
 Frequencies --    440.5610               467.2776               496.0973
 Red. masses --      8.9575                 5.2666                10.9984
 Frc consts  --      1.0243                 0.6775                 1.5948
 IR Inten    --     10.6727                16.3330                19.1925

                     13                     14                     15
                      A                      A                      A
 Frequencies --    524.7983               594.9691               612.8584
 Red. masses --     15.0371                15.9516                14.7893
 Frc consts  --      2.4401                 3.3269                 3.2728
 IR Inten    --     13.8824                 6.3123                 7.0447

                     16                     17                     18
                      A                      A                      A
 Frequencies --    631.3399               766.4566               886.4424
 Red. masses --     19.0553                17.1184                17.1054
 Frc consts  --      4.4750                 5.9250                 7.9193
 IR Inten    --    144.1664                10.9788               201.3695

                     19                     20                     21
                      A                      A                      A
 Frequencies --   1041.3164              1140.1759              1221.2509
 Red. masses --     13.4306                 1.1996                13.3161
 Frc consts  --      8.5805                 0.9188                11.7013
 IR Inten    --     55.1641                68.3901               217.7794

                     22                     23                     24
                      A                      A                      A
 Frequencies --   1248.6059              1272.3212              1298.0219
 Red. masses --     15.9063                13.3578                12.9589
 Frc consts  --     14.6106                12.7402                12.8642
 IR Inten    --    127.7201               306.6206               261.1202

                     25                     26                     27
                      A                      A                      A
 Frequencies --   1433.5410              1498.4164              3816.3967
 Red. masses --     12.9851                15.1668                 1.0657
 Frc consts  --     15.7223                20.0637                 9.1454
 IR Inten    --     94.4821               283.1506               195.4799

 - Thermochemistry -
 -------------------
 Temperature   298.150 Kelvin.  Pressure   1.00000 Atm.
 Atom     1 has atomic number  6 and mass  12.00000

 Molecular mass:   180.95825 amu.
 Principal axes and moments of inertia in atomic units:
                           1         2         3
     Eigenvalues --   900.878241989.752692231.00773
           X           -0.18382   0.97307   0.13910
           Y           -0.16330  -0.16978   0.97186
           Z            0.96930   0.15593   0.19011
 This molecule is an asymmetric top.
 Rotational symmetry number  1.
 Warning -- assumption of classical behavior for rotation
           may cause significant error
 Rotational temperatures (Kelvin)      0.09614     0.04353     0.03882
 Rotational constants (GHZ):           2.00331     0.90702     0.80894
 Zero-point vibrational energy     126720.2 (Joules/Mol)
                                   30.28685 (Kcal/Mol)
 Warning -- explicit consideration of  15 degrees of freedom as
           vibrations may cause significant error
 Vibrational temperatures:     50.68    60.20   165.44   201.50   341.44
          (Kelvin)            372.18   435.50   460.31   495.50   633.87
                              672.31   713.77   755.07   856.03   881.77
                              908.36  1102.76  1275.39  1498.22  1640.46
                             1757.11  1796.47  1830.59  1867.56  2062.55
                             2155.89  5490.94

 Zero-point correction=                           0.048265 (Hartree/Particle)
 Thermal correction to Energy=                    0.058019
 Thermal correction to Enthalpy=                  0.058963
 Thermal correction to Gibbs Free Energy=         0.010740
 Sum of electronic and zero-point Energies=          -1099.972140
 Sum of electronic and thermal Energies=             -1099.962386
 Sum of electronic and thermal Enthalpies=           -1099.961442
 Sum of electronic and thermal Free Energies=        -1100.009665

                     E (Thermal)             CV                S
                      KCal/Mol        Cal/Mol-Kelvin    Cal/Mol-Kelvin
 Total                   36.407             33.024            101.494
 Electronic               0.000              0.000              1.377
 Translational            0.889              2.981             41.486
 Rotational               0.889              2.981             29.771
 Vibrational             34.630             27.062             28.860
 Vibration     1          0.594              1.982              5.511
 Vibration     2          0.594              1.980              5.170
 Vibration     3          0.608              1.937              3.183
 Vibration     4          0.615              1.913              2.803
 Vibration     5          0.656              1.784              1.823
 Vibration     6          0.667              1.748              1.671
 Vibration     7          0.694              1.669              1.402
 Vibration     8          0.706              1.635              1.310
 Vibration     9          0.723              1.587              1.192
 Vibration    10          0.800              1.382              0.825
 Vibration    11          0.825              1.323              0.745
 Vibration    12          0.852              1.259              0.668
 Vibration    13          0.880              1.195              0.599
 Vibration    14          0.953              1.042              0.458
 Vibration    15          0.972              1.005              0.428

                           ! Non-Optimized Parameters !
 Normal termination of Gaussian 16 at Sat May 24 01:30:01 2025.
