 Gaussian 16, Revision C.01,
 Gaussian 16:  ES64L-G16RevC.01  3-Jul-2019

 ----------------------------------------------------------------------
 #P M062X/Def2TZVPP Symm(None) scf(xqc) pop(None) freq opt(CalcFC, Tigh
 t)
 ----------------------------------------------------------------------

 ------------------------------
 Gaussian input prepared by ASE
 ------------------------------
 Symbolic Z-matrix:
 Charge =  0 Multiplicity = 2

 SCF Done:  E(UM062X) =  -1100.00569926     A.U. after   16 cycles
 SCF Done:  E(UM062X) =  -1100.00569929     A.U. after    6 cycles
 SCF Done:  E(UM062X) =  -1100.00569929     A.U. after    4 cycles
 SCF Done:  E(UM062X) =  -1100.00569929     A.U. after    3 cycles
 Optimization completed.
    -- Stationary point found.
 Normal termination of Gaussian 16 at Sat May 24 01:02:35 2025.

 ---------------------------------------------------------------------
 #P Geom=AllCheck Guess=TCheck SCRF=Check GenChk UM062X/def2TZVPP Freq
 ---------------------------------------------------------------------

 Structure from the checkpoint file:  "/tmp/Gau-299678.chk"
 ------------------------------
 Gaussian input prepared by ASE
 ------------------------------
 Charge =  0 Multiplicity = 2

                          Input orientation:
 ---------------------------------------------------------------------
 Center     Atomic      Atomic             Coordinates (Angstroms)
 Number     Number       Type             X           Y           Z
 ---------------------------------------------------------------------
      1          6           0       -0.546947   -1.387650   -0.226577
      2          6           0        0.000090    0.000032    0.000204
      3          9           0       -0.405671    0.794943   -1.000240
      4          9           0       -0.429596    0.524445    1.156591
      5         16           0        1.838841   -0.000067    0.000138
      6          8           0        2.282554   -0.499058    1.243822
      7          8           0        2.233483   -0.544044   -1.251542
      8          8           0        2.090551    1.551416   -0.000297
      9          9           0       -0.140639   -2.282123    0.640599
     10          9           0       -1.847009   -1.419453   -0.402049
     11          1           0        2.098133    1.890099   -0.907237
 ---------------------------------------------------------------------

 SCF Done:  E(UM062X) =  -1100.00569929     A.U. after    1 cycles

 Isotropic polarizability for W=    0.000000       52.01 Bohr**3.
 End of Minotr F.D. properties file   721 does not exist.

                      1                      2                      3
                      A                      A                      A
 Frequencies --     30.8503                62.3502               129.9791
 Red. masses --     16.2257                13.1942                14.1383
 Frc consts  --      0.0091                 0.0302                 0.1407
 IR Inten    --      0.9153                 1.1931                 1.5561

                      4                      5                      6
                      A                      A                      A
 Frequencies --    192.7336               215.9916               235.4169
 Red. masses --      8.9856                17.2802                 7.2057
 Frc consts  --      0.1967                 0.4750                 0.2353
 IR Inten    --      8.8049                 1.2602                15.3184

                      7                      8                      9
                      A                      A                      A
 Frequencies --    296.0231               322.4804               334.5343
 Red. masses --     14.2935                 5.1260                 4.4169
 Frc consts  --      0.7380                 0.3141                 0.2912
 IR Inten    --      0.9415                14.9476                20.0228

                     10                     11                     12
                      A                      A                      A
 Frequencies --    373.0194               444.6005               494.3341
 Red. masses --      2.4735                 6.0480                 6.5894
 Frc consts  --      0.2028                 0.7044                 0.9487
 IR Inten    --     32.7741                30.7326                 6.3942

                     13                     14                     15
                      A                      A                      A
 Frequencies --    510.1049               595.8377               613.4620
 Red. masses --     14.6115                16.8887                17.1106
 Frc consts  --      2.2401                 3.5327                 3.7939
 IR Inten    --     37.1521                16.8605                78.8158

                     16                     17                     18
                      A                      A                      A
 Frequencies --    655.2604               792.8995               898.2968
 Red. masses --     17.8215                14.3213                16.4145
 Frc consts  --      4.5084                 5.3048                 7.8040
 IR Inten    --     69.6238                13.0696               234.7601

                     19                     20                     21
                      A                      A                      A
 Frequencies --   1053.0656              1140.7773              1181.1107
 Red. masses --     13.7264                 1.1838                13.3955
 Frc consts  --      8.9685                 0.9077                11.0101
 IR Inten    --     29.8017                98.7472               192.0579

                     22                     23                     24
                      A                      A                      A
 Frequencies --   1224.7726              1269.0465              1351.1869
 Red. masses --     13.3802                17.2072                13.4329
 Frc consts  --     11.8256                16.3274                14.4494
 IR Inten    --    171.6180                41.1967               246.6959

                     25                     26                     27
                      A                      A                      A
 Frequencies --   1409.6766              1497.4017              3809.7218
 Red. masses --     12.8515                15.3922                 1.0656
 Frc consts  --     15.0468                20.3342                 9.1127
 IR Inten    --     74.5374               276.9661               185.5195

 - Thermochemistry -
 -------------------
 Temperature   298.150 Kelvin.  Pressure   1.00000 Atm.
 Atom     1 has atomic number  6 and mass  12.00000

 Molecular mass:   180.95825 amu.
 Principal axes and moments of inertia in atomic units:
                           1         2         3
     Eigenvalues --   950.729171831.147032063.37032
           X            0.88721  -0.43996  -0.13888
           Y            0.46136   0.84640   0.26599
           Z            0.00052  -0.30006   0.95392
 This molecule is an asymmetric top.
 Rotational symmetry number  1.
 Warning -- assumption of classical behavior for rotation
           may cause significant error
 Rotational temperatures (Kelvin)      0.09110     0.04730     0.04198
 Rotational constants (GHZ):           1.89827     0.98558     0.87466
 Zero-point vibrational energy     126415.0 (Joules/Mol)
                                   30.21391 (Kcal/Mol)
 Warning -- explicit consideration of  15 degrees of freedom as
           vibrations may cause significant error
 Vibrational temperatures:     44.39    89.71   187.01   277.30   310.76
          (Kelvin)            338.71   425.91   463.98   481.32   536.69
                              639.68   711.24   733.93   857.28   882.63
                              942.77  1140.81  1292.45  1515.13  1641.32
                             1699.35  1762.17  1825.87  1944.06  2028.21
                             2154.43  5481.34

 Zero-point correction=                           0.048149 (Hartree/Particle)
 Thermal correction to Energy=                    0.057908
 Thermal correction to Enthalpy=                  0.058852
 Thermal correction to Gibbs Free Energy=         0.010999
 Sum of electronic and zero-point Energies=          -1099.957550
 Sum of electronic and thermal Energies=             -1099.947792
 Sum of electronic and thermal Enthalpies=           -1099.946847
 Sum of electronic and thermal Free Energies=        -1099.994700

                     E (Thermal)             CV                S
                      KCal/Mol        Cal/Mol-Kelvin    Cal/Mol-Kelvin
 Total                   36.338             33.172            100.715
 Electronic               0.000              0.000              1.377
 Translational            0.889              2.981             41.486
 Rotational               0.889              2.981             29.664
 Vibrational             34.560             27.210             28.187
 Vibration     1          0.594              1.984              5.774
 Vibration     2          0.597              1.972              4.381
 Vibration     3          0.612              1.923              2.946
 Vibration     4          0.635              1.850              2.201
 Vibration     5          0.645              1.817              1.992
 Vibration     6          0.655              1.787              1.837
 Vibration     7          0.690              1.681              1.439
 Vibration     8          0.707              1.630              1.297
 Vibration     9          0.716              1.607              1.238
 Vibration    10          0.744              1.528              1.067
 Vibration    11          0.804              1.373              0.812
 Vibration    12          0.850              1.263              0.672
 Vibration    13          0.865              1.228              0.633
 Vibration    14          0.954              1.041              0.457
 Vibration    15          0.973              1.003              0.427

                           ! Non-Optimized Parameters !
 Normal termination of Gaussian 16 at Sat May 24 01:08:23 2025.
