 Gaussian 16, Revision C.01,
 Gaussian 16:  ES64L-G16RevC.01  3-Jul-2019

 ----------------------------------------------------------------------
 #P M062X/Def2TZVPP Symm(None) scf(xqc) pop(None) freq opt(CalcFC, Tigh
 t)
 ----------------------------------------------------------------------

 ------------------------------
 Gaussian input prepared by ASE
 ------------------------------
 Symbolic Z-matrix:
 Charge =  0 Multiplicity = 2

 SCF Done:  E(UM062X) =  -1100.02088960     A.U. after   16 cycles
 SCF Done:  E(UM062X) =  -1100.02088993     A.U. after    8 cycles
 SCF Done:  E(UM062X) =  -1100.02088993     A.U. after    5 cycles
 Optimization completed on the basis of negligible forces.
    -- Stationary point found.
 Normal termination of Gaussian 16 at Sat May 24 01:16:15 2025.

 ---------------------------------------------------------------------
 #P Geom=AllCheck Guess=TCheck SCRF=Check GenChk UM062X/def2TZVPP Freq
 ---------------------------------------------------------------------

 Structure from the checkpoint file:  "/tmp/Gau-186987.chk"
 ------------------------------
 Gaussian input prepared by ASE
 ------------------------------
 Charge =  0 Multiplicity = 2

                          Input orientation:
 ---------------------------------------------------------------------
 Center     Atomic      Atomic             Coordinates (Angstroms)
 Number     Number       Type             X           Y           Z
 ---------------------------------------------------------------------
      1          6           0        1.072268   -0.250060    2.824279
      2          6           0        1.898787   -0.561429    1.597428
      3          9           0        3.176036   -0.757546    1.792916
      4         16           0        1.419943   -0.000193    0.000338
      5          8           0        2.213427   -0.686123   -0.944167
      6          8           0       -0.000094   -0.000265    0.000886
      7          8           0        1.922877    1.496955   -0.001014
      8          9           0        0.736228    1.050116    2.849139
      9          9           0       -0.048608   -0.953289    2.846405
     10          9           0        1.770456   -0.515375    3.917511
     11          1           0        1.234572    2.074555    0.360325
 ---------------------------------------------------------------------

 SCF Done:  E(UM062X) =  -1100.02088993     A.U. after    1 cycles

 Isotropic polarizability for W=    0.000000       51.64 Bohr**3.
 End of Minotr F.D. properties file   721 does not exist.

                      1                      2                      3
                      A                      A                      A
 Frequencies --     32.9364                55.4568               111.4559
 Red. masses --     18.2540                11.5386                 8.4261
 Frc consts  --      0.0117                 0.0209                 0.0617
 IR Inten    --      0.2211                 2.8622                 6.5411

                      4                      5                      6
                      A                      A                      A
 Frequencies --    141.4379               245.0681               267.5863
 Red. masses --     16.6671                14.7104                 8.3693
 Frc consts  --      0.1964                 0.5205                 0.3531
 IR Inten    --      1.8302                 0.8299                 2.7635

                      7                      8                      9
                      A                      A                      A
 Frequencies --    308.0172               326.4937               364.6288
 Red. masses --     11.9335                 6.0188                 1.7315
 Frc consts  --      0.6671                 0.3780                 0.1356
 IR Inten    --      9.3387                15.4131                65.2959

                     10                     11                     12
                      A                      A                      A
 Frequencies --    443.1047               469.1783               497.4290
 Red. masses --      7.9172                 5.3377                11.0519
 Frc consts  --      0.9159                 0.6923                 1.6112
 IR Inten    --     14.2049                32.7038                 2.1011

                     13                     14                     15
                      A                      A                      A
 Frequencies --    523.1387               593.5249               614.9959
 Red. masses --     16.1448                16.5883                15.0629
 Frc consts  --      2.6033                 3.4429                 3.3566
 IR Inten    --     11.8072                 4.2564                11.0710

                     16                     17                     18
                      A                      A                      A
 Frequencies --    631.1041               764.5362               885.3419
 Red. masses --     17.8905                17.4468                16.6296
 Frc consts  --      4.1983                 6.0084                 7.6799
 IR Inten    --    149.0569                 8.8147               179.7364

                     19                     20                     21
                      A                      A                      A
 Frequencies --   1032.7950              1150.5450              1199.8798
 Red. masses --     13.3700                 1.2243                 9.6007
 Frc consts  --      8.4025                 0.9549                 8.1438
 IR Inten    --     47.7957               149.5743               183.4356

                     22                     23                     24
                      A                      A                      A
 Frequencies --   1247.8984              1272.6978              1310.2801
 Red. masses --     17.2629                13.5190                12.9385
 Frc consts  --     15.8388                12.9017                13.0877
 IR Inten    --     89.3985               324.4574               245.2521

                     25                     26                     27
                      A                      A                      A
 Frequencies --   1445.0125              1502.2142              3803.6887
 Red. masses --     13.0082                15.2037                 1.0656
 Frc consts  --     16.0034                20.2145                 9.0839
 IR Inten    --     93.8083               285.2506               164.2692

 - Thermochemistry -
 -------------------
 Temperature   298.150 Kelvin.  Pressure   1.00000 Atm.
 Atom     1 has atomic number  6 and mass  12.00000

 Molecular mass:   180.95825 amu.
 Principal axes and moments of inertia in atomic units:
                           1         2         3
     Eigenvalues --   910.672861950.373732197.58074
           X           -0.13941   0.94235   0.30421
           Y           -0.11535  -0.32057   0.94017
           Z            0.98349   0.09598   0.15339
 This molecule is an asymmetric top.
 Rotational symmetry number  1.
 Warning -- assumption of classical behavior for rotation
           may cause significant error
 Rotational temperatures (Kelvin)      0.09511     0.04441     0.03941
 Rotational constants (GHZ):           1.98177     0.92533     0.82124
 Zero-point vibrational energy     127046.1 (Joules/Mol)
                                   30.36474 (Kcal/Mol)
 Warning -- explicit consideration of  15 degrees of freedom as
           vibrations may cause significant error
 Vibrational temperatures:     47.39    79.79   160.36   203.50   352.60
          (Kelvin)            385.00   443.17   469.75   524.62   637.53
                              675.04   715.69   752.68   853.95   884.84
                              908.02  1100.00  1273.81  1485.96  1655.38
                             1726.36  1795.45  1831.13  1885.20  2079.05
                             2161.35  5472.66

 Zero-point correction=                           0.048389 (Hartree/Particle)
 Thermal correction to Energy=                    0.058061
 Thermal correction to Enthalpy=                  0.059006
 Thermal correction to Gibbs Free Energy=         0.011107
 Sum of electronic and zero-point Energies=          -1099.972501
 Sum of electronic and thermal Energies=             -1099.962828
 Sum of electronic and thermal Enthalpies=           -1099.961884
 Sum of electronic and thermal Free Energies=        -1100.009783

                     E (Thermal)             CV                S
                      KCal/Mol        Cal/Mol-Kelvin    Cal/Mol-Kelvin
 Total                   36.434             32.927            100.811
 Electronic               0.000              0.000              1.377
 Translational            0.889              2.981             41.486
 Rotational               0.889              2.981             29.747
 Vibrational             34.657             26.965             28.201
 Vibration     1          0.594              1.983              5.644
 Vibration     2          0.596              1.975              4.613
 Vibration     3          0.607              1.940              3.243
 Vibration     4          0.615              1.912              2.784
 Vibration     5          0.660              1.771              1.766
 Vibration     6          0.673              1.733              1.612
 Vibration     7          0.698              1.658              1.373
 Vibration     8          0.710              1.623              1.277
 Vibration     9          0.738              1.545              1.102
 Vibration    10          0.803              1.376              0.817
 Vibration    11          0.826              1.318              0.740
 Vibration    12          0.853              1.256              0.665
 Vibration    13          0.878              1.199              0.603
 Vibration    14          0.951              1.046              0.461
 Vibration    15          0.974              1.000              0.425

 Optimization completed.
    -- Stationary point found.
 Normal termination of Gaussian 16 at Sat May 24 01:21:46 2025.
