 Gaussian 16, Revision C.01,
 Gaussian 16:  ES64L-G16RevC.01  3-Jul-2019

 ----------------------------------------------------------------------
 #P M062X/Def2TZVPP Symm(None) scf(xqc) pop(None) freq opt(CalcFC, Tigh
 t)
 ----------------------------------------------------------------------

 ------------------------------
 Gaussian input prepared by ASE
 ------------------------------
 Symbolic Z-matrix:
 Charge =  0 Multiplicity = 2

 SCF Done:  E(UM062X) =  -1100.00039233     A.U. after   17 cycles
 SCF Done:  E(UM062X) =  -1100.00343570     A.U. after   12 cycles
 SCF Done:  E(UM062X) =  -1099.95029938     A.U. after   15 cycles
 SCF Done:  E(UM062X) =  -1100.00441582     A.U. after   12 cycles
 SCF Done:  E(UM062X) =  -1100.00521068     A.U. after   13 cycles
 SCF Done:  E(UM062X) =  -1100.00526813     A.U. after   11 cycles
 SCF Done:  E(UM062X) =  -1100.00523599     A.U. after   12 cycles
 SCF Done:  E(UM062X) =  -1100.00529419     A.U. after   11 cycles
 SCF Done:  E(UM062X) =  -1100.00529469     A.U. after    8 cycles
 SCF Done:  E(UM062X) =  -1100.00529477     A.U. after    7 cycles
 SCF Done:  E(UM062X) =  -1100.00529477     A.U. after    6 cycles
 Optimization completed.
    -- Stationary point found.
 Normal termination of Gaussian 16 at Sat May 24 01:08:30 2025.

 ---------------------------------------------------------------------
 #P Geom=AllCheck Guess=TCheck SCRF=Check GenChk UM062X/def2TZVPP Freq
 ---------------------------------------------------------------------

 Structure from the checkpoint file:  "/tmp/Gau-299066.chk"
 ------------------------------
 Gaussian input prepared by ASE
 ------------------------------
 Charge =  0 Multiplicity = 2

                          Input orientation:
 ---------------------------------------------------------------------
 Center     Atomic      Atomic             Coordinates (Angstroms)
 Number     Number       Type             X           Y           Z
 ---------------------------------------------------------------------
      1          6           0       -0.470852    0.504422    1.318092
      2          6           0        0.040224   -0.002108   -0.009739
      3          9           0       -0.393691   -1.249733   -0.191929
      4          9           0       -0.398641    0.757222   -1.025230
      5         16           0        1.880769   -0.050151   -0.061591
      6          8           0        2.306428   -0.524262    1.208988
      7          8           0        2.236464   -0.658044   -1.284742
      8          8           0        2.216646    1.479897   -0.184667
      9          9           0        0.054048    1.655144    1.699018
     10          9           0       -1.775691    0.509206    1.423565
     11          1           0        2.321124    1.871486    0.694688
 ---------------------------------------------------------------------

 SCF Done:  E(UM062X) =  -1100.00529477     A.U. after    1 cycles

 Isotropic polarizability for W=    0.000000       51.98 Bohr**3.
 End of Minotr F.D. properties file   721 does not exist.

                      1                      2                      3
                      A                      A                      A
 Frequencies --     59.2345                67.1822               140.4842
 Red. masses --     16.0136                13.1268                12.2599
 Frc consts  --      0.0331                 0.0349                 0.1426
 IR Inten    --      0.5658                 1.7556                 4.1992

                      4                      5                      6
                      A                      A                      A
 Frequencies --    199.8497               216.6914               239.4766
 Red. masses --     13.9928                16.4116                 9.0770
 Frc consts  --      0.3293                 0.4540                 0.3067
 IR Inten    --      4.3076                 2.2555                 2.5411

                      7                      8                      9
                      A                      A                      A
 Frequencies --    297.7566               307.8047               325.4132
 Red. masses --     15.0475                 2.9647                 5.2870
 Frc consts  --      0.7860                 0.1655                 0.3299
 IR Inten    --      8.5455                37.3915                20.2654

                     10                     11                     12
                      A                      A                      A
 Frequencies --    377.6126               440.4863               474.7435
 Red. masses --      2.6369                16.4961                 4.2343
 Frc consts  --      0.2215                 1.8858                 0.5623
 IR Inten    --     44.0349                 6.2152                34.1412

                     13                     14                     15
                      A                      A                      A
 Frequencies --    528.5169               596.1019               616.1449
 Red. masses --     16.0073                15.4618                18.7069
 Frc consts  --      2.6344                 3.2371                 4.1843
 IR Inten    --     16.2448                16.3213                91.6094

                     16                     17                     18
                      A                      A                      A
 Frequencies --    657.1116               790.8692               902.0665
 Red. masses --     16.5939                14.2342                16.8505
 Frc consts  --      4.2216                 5.2456                 8.0787
 IR Inten    --     60.7768                11.2668               187.5464

                     19                     20                     21
                      A                      A                      A
 Frequencies --   1049.8993              1143.6495              1176.7679
 Red. masses --     12.1704                 1.1934                13.7314
 Frc consts  --      7.9041                 0.9196                11.2033
 IR Inten    --     87.0469               109.5150               152.5245

                     22                     23                     24
                      A                      A                      A
 Frequencies --   1232.3345              1279.1169              1329.7682
 Red. masses --     14.0833                16.3886                12.8435
 Frc consts  --     12.6012                15.7984                13.3810
 IR Inten    --     54.6905               248.5328               155.9555

                     25                     26                     27
                      A                      A                      A
 Frequencies --   1408.1982              1496.5665              3809.6532
 Red. masses --     12.8825                15.2115                 1.0656
 Frc consts  --     15.0514                20.0731                 9.1121
 IR Inten    --    107.2029               261.2229               169.7891

 - Thermochemistry -
 -------------------
 Temperature   298.150 Kelvin.  Pressure   1.00000 Atm.
 Atom     1 has atomic number  6 and mass  12.00000

 Molecular mass:   180.95825 amu.
 Principal axes and moments of inertia in atomic units:
                           1         2         3
     Eigenvalues --   967.792501766.145832041.16687
           X            0.90115   0.41430  -0.12763
           Y           -0.19293   0.64692   0.73775
           Z           -0.38822   0.64020  -0.66290
 This molecule is an asymmetric top.
 Rotational symmetry number  1.
 Warning -- assumption of classical behavior for rotation
           may cause significant error
 Rotational temperatures (Kelvin)      0.08950     0.04904     0.04243
 Rotational constants (GHZ):           1.86480     1.02185     0.88417
 Zero-point vibrational energy     126585.8 (Joules/Mol)
                                   30.25474 (Kcal/Mol)
 Warning -- explicit consideration of  15 degrees of freedom as
           vibrations may cause significant error
 Vibrational temperatures:     85.23    96.66   202.13   287.54   311.77
          (Kelvin)            344.55   428.41   442.86   468.20   543.30
                              633.76   683.05   760.42   857.66   886.50
                              945.44  1137.88  1297.87  1510.57  1645.46
                             1693.11  1773.05  1840.36  1913.24  2026.08
                             2153.23  5481.24

 Zero-point correction=                           0.048214 (Hartree/Particle)
 Thermal correction to Energy=                    0.057891
 Thermal correction to Enthalpy=                  0.058835
 Thermal correction to Gibbs Free Energy=         0.011748
 Sum of electronic and zero-point Energies=          -1099.957081
 Sum of electronic and thermal Energies=             -1099.947404
 Sum of electronic and thermal Enthalpies=           -1099.946460
 Sum of electronic and thermal Free Energies=        -1099.993547

                     E (Thermal)             CV                S
                      KCal/Mol        Cal/Mol-Kelvin    Cal/Mol-Kelvin
 Total                   36.327             33.169             99.103
 Electronic               0.000              0.000              1.377
 Translational            0.889              2.981             41.486
 Rotational               0.889              2.981             29.635
 Vibrational             34.550             27.208             26.604
 Vibration     1          0.597              1.974              4.483
 Vibration     2          0.598              1.970              4.234
 Vibration     3          0.615              1.913              2.797
 Vibration     4          0.638              1.840              2.134
 Vibration     5          0.646              1.816              1.987
 Vibration     6          0.657              1.780              1.807
 Vibration     7          0.691              1.678              1.429
 Vibration     8          0.698              1.659              1.374
 Vibration     9          0.710              1.625              1.283
 Vibration    10          0.748              1.518              1.049
 Vibration    11          0.800              1.382              0.825
 Vibration    12          0.831              1.306              0.724
 Vibration    13          0.883              1.187              0.591
 Vibration    14          0.954              1.040              0.456
 Vibration    15          0.976              0.998              0.423

                           ! Non-Optimized Parameters !
 Normal termination of Gaussian 16 at Sat May 24 01:14:17 2025.
