 Gaussian 16, Revision C.01,
 Gaussian 16:  ES64L-G16RevC.01  3-Jul-2019

 ----------------------------------------------------------------------
 #P M062X/Def2TZVPP Symm(None) scf(xqc) pop(None) freq opt(CalcFC, Tigh
 t)
 ----------------------------------------------------------------------

 ------------------------------
 Gaussian input prepared by ASE
 ------------------------------
 Symbolic Z-matrix:
 Charge =  0 Multiplicity = 2

 SCF Done:  E(UM062X) =  -1099.99978513     A.U. after   16 cycles
 SCF Done:  E(UM062X) =  -1100.00331835     A.U. after   14 cycles
 SCF Done:  E(UM062X) =  -1099.97959483     A.U. after   16 cycles
 SCF Done:  E(UM062X) =  -1100.00403284     A.U. after   13 cycles
 SCF Done:  E(UM062X) =  -1100.00420555     A.U. after   13 cycles
 SCF Done:  E(UM062X) =  -1100.00464161     A.U. after   11 cycles
 SCF Done:  E(UM062X) =  -1100.00470006     A.U. after   12 cycles
 SCF Done:  E(UM062X) =  -1100.00496163     A.U. after   13 cycles
 SCF Done:  E(UM062X) =  -1100.00513500     A.U. after   14 cycles
 SCF Done:  E(UM062X) =  -1100.00518340     A.U. after   11 cycles
 SCF Done:  E(UM062X) =  -1100.00520225     A.U. after   12 cycles
 SCF Done:  E(UM062X) =  -1100.00520538     A.U. after    9 cycles
 SCF Done:  E(UM062X) =  -1100.00520551     A.U. after    6 cycles
 SCF Done:  E(UM062X) =  -1100.00520551     A.U. after    5 cycles
 Optimization completed.
    -- Stationary point found.
 Normal termination of Gaussian 16 at Sat May 24 01:12:05 2025.

 ---------------------------------------------------------------------
 #P Geom=AllCheck Guess=TCheck SCRF=Check GenChk UM062X/def2TZVPP Freq
 ---------------------------------------------------------------------

 Structure from the checkpoint file:  "/tmp/Gau-67628.chk"
 ------------------------------
 Gaussian input prepared by ASE
 ------------------------------
 Charge =  0 Multiplicity = 2

                          Input orientation:
 ---------------------------------------------------------------------
 Center     Atomic      Atomic             Coordinates (Angstroms)
 Number     Number       Type             X           Y           Z
 ---------------------------------------------------------------------
      1          6           0       -0.503153    0.797490   -1.214928
      2          6           0        0.089201    0.066838   -0.030807
      3          9           0       -0.233748    0.716567    1.092986
      4          9           0       -0.358531   -1.193840    0.050547
      5         16           0        1.923352   -0.016854   -0.117899
      6          8           0        2.362906   -0.695984    1.047744
      7          8           0        2.271772   -0.406689   -1.430703
      8          8           0        2.254077    1.517033    0.020354
      9          9           0       -0.491922    0.122119   -2.334576
     10          9           0       -1.672668    1.346065   -0.978981
     11          1           0        2.375542    1.748454    0.952519
 ---------------------------------------------------------------------

 SCF Done:  E(UM062X) =  -1100.00520551     A.U. after    1 cycles

 Isotropic polarizability for W=    0.000000       52.17 Bohr**3.
 End of Minotr F.D. properties file   721 does not exist.

                      1                      2                      3
                      A                      A                      A
 Frequencies --     43.2939                55.4605               130.9854
 Red. masses --     15.9062                13.4876                16.7979
 Frc consts  --      0.0176                 0.0244                 0.1698
 IR Inten    --      1.1233                 1.1065                 0.7515

                      4                      5                      6
                      A                      A                      A
 Frequencies --    185.4898               224.1336               246.4908
 Red. masses --      6.1692                17.9686                12.1731
 Frc consts  --      0.1251                 0.5318                 0.4358
 IR Inten    --     12.1740                 0.8636                10.1519

                      7                      8                      9
                      A                      A                      A
 Frequencies --    301.1530               317.4936               339.8322
 Red. masses --     10.8988                 5.2168                 8.0352
 Frc consts  --      0.5824                 0.3098                 0.5467
 IR Inten    --      0.6655                15.3707                 7.0383

                     10                     11                     12
                      A                      A                      A
 Frequencies --    356.0134               449.5255               481.5392
 Red. masses --      1.9234                 6.5427                 6.7261
 Frc consts  --      0.1436                 0.7790                 0.9189
 IR Inten    --     48.8900                32.2244                10.2419

                     13                     14                     15
                      A                      A                      A
 Frequencies --    527.0458               595.3417               596.7272
 Red. masses --     14.0861                16.8620                15.5834
 Frc consts  --      2.3054                 3.5212                 3.2694
 IR Inten    --     24.2437                33.1416                31.8173

                     16                     17                     18
                      A                      A                      A
 Frequencies --    650.1762               790.9345               895.8830
 Red. masses --     18.7924                14.3725                16.7018
 Frc consts  --      4.6805                 5.2974                 7.8980
 IR Inten    --     95.7288                 4.1674               210.7740

                     19                     20                     21
                      A                      A                      A
 Frequencies --   1042.6224              1138.2189              1174.6423
 Red. masses --     13.3700                 1.2010                12.1694
 Frc consts  --      8.5632                 0.9168                 9.8930
 IR Inten    --    112.8986                94.6832                60.7110

                     22                     23                     24
                      A                      A                      A
 Frequencies --   1240.8675              1274.5545              1351.5523
 Red. masses --     13.1354                17.2134                13.3413
 Frc consts  --     11.9164                16.4753                14.3587
 IR Inten    --    180.6293               122.4882               232.1282

                     25                     26                     27
                      A                      A                      A
 Frequencies --   1412.6787              1498.1942              3810.3315
 Red. masses --     12.8887                15.3488                 1.0657
 Frc consts  --     15.1546                20.2983                 9.1158
 IR Inten    --     82.3407               275.9384               188.0088

 - Thermochemistry -
 -------------------
 Temperature   298.150 Kelvin.  Pressure   1.00000 Atm.
 Atom     1 has atomic number  6 and mass  12.00000

 Molecular mass:   180.95825 amu.
 Principal axes and moments of inertia in atomic units:
                           1         2         3
     Eigenvalues --   970.161491852.889682024.85930
           X            0.91769  -0.34305   0.20042
           Y           -0.18247   0.08417   0.97960
           Z            0.35292   0.93554  -0.01465
 This molecule is an asymmetric top.
 Rotational symmetry number  1.
 Warning -- assumption of classical behavior for rotation
           may cause significant error
 Rotational temperatures (Kelvin)      0.08928     0.04675     0.04278
 Rotational constants (GHZ):           1.86025     0.97401     0.89129
 Zero-point vibrational energy     126392.5 (Joules/Mol)
                                   30.20854 (Kcal/Mol)
 Warning -- explicit consideration of  15 degrees of freedom as
           vibrations may cause significant error
 Vibrational temperatures:     62.29    79.80   188.46   266.88   322.48
          (Kelvin)            354.65   433.29   456.80   488.94   512.22
                              646.77   692.83   758.30   856.56   858.56
                              935.46  1137.98  1288.98  1500.10  1637.64
                             1690.05  1785.33  1833.80  1944.58  2032.53
                             2155.57  5482.22

 Zero-point correction=                           0.048140 (Hartree/Particle)
 Thermal correction to Energy=                    0.057887
 Thermal correction to Enthalpy=                  0.058831
 Thermal correction to Gibbs Free Energy=         0.011195
 Sum of electronic and zero-point Energies=          -1099.957065
 Sum of electronic and thermal Energies=             -1099.947319
 Sum of electronic and thermal Enthalpies=           -1099.946374
 Sum of electronic and thermal Free Energies=        -1099.994010

                     E (Thermal)             CV                S
                      KCal/Mol        Cal/Mol-Kelvin    Cal/Mol-Kelvin
 Total                   36.325             33.211            100.258
 Electronic               0.000              0.000              1.377
 Translational            0.889              2.981             41.486
 Rotational               0.889              2.981             29.677
 Vibrational             34.547             27.249             27.718
 Vibration     1          0.595              1.980              5.102
 Vibration     2          0.596              1.975              4.613
 Vibration     3          0.612              1.922              2.932
 Vibration     4          0.632              1.860              2.272
 Vibration     5          0.649              1.804              1.925
 Vibration     6          0.661              1.769              1.756
 Vibration     7          0.693              1.672              1.410
 Vibration     8          0.704              1.640              1.323
 Vibration     9          0.720              1.596              1.213
 Vibration    10          0.732              1.563              1.139
 Vibration    11          0.808              1.362              0.797
 Vibration    12          0.838              1.291              0.706
 Vibration    13          0.882              1.190              0.594
 Vibration    14          0.953              1.042              0.458
 Vibration    15          0.955              1.039              0.455

                           ! Non-Optimized Parameters !
 Normal termination of Gaussian 16 at Sat May 24 01:17:35 2025.
