 Gaussian 16, Revision C.01,
 Gaussian 16:  ES64L-G16RevC.01  3-Jul-2019

 ----------------------------------------------------------------------
 #P M062X/Def2TZVPP Symm(None) scf(xqc) pop(None) freq opt(CalcFC, Tigh
 t)
 ----------------------------------------------------------------------

 ------------------------------
 Gaussian input prepared by ASE
 ------------------------------
 Symbolic Z-matrix:
 Charge =  0 Multiplicity = 2

 SCF Done:  E(UM062X) =  -1099.99584008     A.U. after   16 cycles
 SCF Done:  E(UM062X) =  -1100.00319651     A.U. after   15 cycles
 SCF Done:  E(UM062X) =  -1100.00356023     A.U. after   14 cycles
 SCF Done:  E(UM062X) =  -1100.00365785     A.U. after   16 cycles
 SCF Done:  E(UM062X) =  -1100.00445732     A.U. after   13 cycles
 SCF Done:  E(UM062X) =  -1100.00453978     A.U. after   13 cycles
 SCF Done:  E(UM062X) =  -1100.00455817     A.U. after   11 cycles
 SCF Done:  E(UM062X) =  -1100.00456251     A.U. after   11 cycles
 SCF Done:  E(UM062X) =  -1100.00456471     A.U. after    8 cycles
 SCF Done:  E(UM062X) =  -1100.00457033     A.U. after    8 cycles
 SCF Done:  E(UM062X) =  -1100.00512780     A.U. after   11 cycles
 SCF Done:  E(UM062X) =  -1100.00518538     A.U. after   11 cycles
 SCF Done:  E(UM062X) =  -1100.00520429     A.U. after   11 cycles
 SCF Done:  E(UM062X) =  -1100.00520698     A.U. after    9 cycles
 SCF Done:  E(UM062X) =  -1100.00520711     A.U. after    7 cycles
 SCF Done:  E(UM062X) =  -1100.00520713     A.U. after    6 cycles
 SCF Done:  E(UM062X) =  -1100.00520713     A.U. after    5 cycles
 SCF Done:  E(UM062X) =  -1100.00520713     A.U. after    4 cycles
 SCF Done:  E(UM062X) =  -1100.00520713     A.U. after    4 cycles
 Optimization completed.
    -- Stationary point found.
 Normal termination of Gaussian 16 at Sat May 24 01:23:37 2025.

 ---------------------------------------------------------------------
 #P Geom=AllCheck Guess=TCheck SCRF=Check GenChk UM062X/def2TZVPP Freq
 ---------------------------------------------------------------------

 Structure from the checkpoint file:  "/tmp/Gau-33639.chk"
 ------------------------------
 Gaussian input prepared by ASE
 ------------------------------
 Charge =  0 Multiplicity = 2

                          Input orientation:
 ---------------------------------------------------------------------
 Center     Atomic      Atomic             Coordinates (Angstroms)
 Number     Number       Type             X           Y           Z
 ---------------------------------------------------------------------
      1          6           0       -0.615942    0.725418   -1.279976
      2          6           0       -0.037075    0.032432   -0.066915
      3          9           0       -0.484458    0.636359    1.039611
      4          9           0       -0.377665   -1.263208   -0.024585
      5         16           0        1.799323    0.108546   -0.038710
      6          8           0        2.222955   -0.546187    1.146631
      7          8           0        2.261282   -0.231378   -1.330174
      8          8           0        1.986074    1.663180    0.133110
      9          9           0       -0.475738    0.069207   -2.402236
     10          9           0       -1.841507    1.166998   -1.114219
     11          1           0        2.029035    1.891290    1.072992
 ---------------------------------------------------------------------

 SCF Done:  E(UM062X) =  -1100.00520713     A.U. after    1 cycles

 Isotropic polarizability for W=    0.000000       52.18 Bohr**3.
 End of Minotr F.D. properties file   721 does not exist.

                      1                      2                      3
                      A                      A                      A
 Frequencies --     47.9034                56.0429               132.3598
 Red. masses --     15.0304                14.2440                16.8452
 Frc consts  --      0.0203                 0.0264                 0.1739
 IR Inten    --      1.4134                 0.8036                 0.7015

                      4                      5                      6
                      A                      A                      A
 Frequencies --    186.6020               224.2146               246.9497
 Red. masses --      6.5322                18.0875                13.0611
 Frc consts  --      0.1340                 0.5357                 0.4693
 IR Inten    --     11.2860                 0.8119                 9.0349

                      7                      8                      9
                      A                      A                      A
 Frequencies --    301.0901               320.5359               339.9833
 Red. masses --     12.5829                 7.3355                 9.6429
 Frc consts  --      0.6721                 0.4441                 0.6567
 IR Inten    --      0.7924                 8.5342                 4.9504

                     10                     11                     12
                      A                      A                      A
 Frequencies --    364.6125               450.5033               482.7280
 Red. masses --      1.6537                 6.3459                 6.1646
 Frc consts  --      0.1295                 0.7588                 0.8464
 IR Inten    --     56.6108                33.3894                11.6790

                     13                     14                     15
                      A                      A                      A
 Frequencies --    527.0689               595.4258               597.0104
 Red. masses --     14.1647                16.8623                15.5832
 Frc consts  --      2.3184                 3.5223                 3.2724
 IR Inten    --     24.6226                32.8734                32.3116

                     16                     17                     18
                      A                      A                      A
 Frequencies --    650.2829               791.0777               897.7119
 Red. masses --     18.7719                14.3638                16.6276
 Frc consts  --      4.6770                 5.2961                 7.8950
 IR Inten    --     95.5852                 4.2543               210.2540

                     19                     20                     21
                      A                      A                      A
 Frequencies --   1042.3381              1141.0564              1174.5053
 Red. masses --     13.4431                 1.2044                11.7170
 Frc consts  --      8.6053                 0.9239                 9.5230
 IR Inten    --    112.5305                96.2630                58.7514

                     22                     23                     24
                      A                      A                      A
 Frequencies --   1241.6316              1275.2920              1351.2558
 Red. masses --     13.1466                17.1540                13.3378
 Frc consts  --     11.9412                16.4375                14.3486
 IR Inten    --    181.5421               124.0130               231.9151

                     25                     26                     27
                      A                      A                      A
 Frequencies --   1412.5879              1498.8970              3809.5774
 Red. masses --     12.8892                15.3132                 1.0657
 Frc consts  --     15.1533                20.2703                 9.1122
 IR Inten    --     82.0268               275.6568               188.2375

 - Thermochemistry -
 -------------------
 Temperature   298.150 Kelvin.  Pressure   1.00000 Atm.
 Atom     1 has atomic number  6 and mass  12.00000

 Molecular mass:   180.95825 amu.
 Principal axes and moments of inertia in atomic units:
                           1         2         3
     Eigenvalues --   970.114351852.859962024.94602
           X            0.90635  -0.40664   0.11475
           Y           -0.10732   0.04110   0.99337
           Z            0.40866   0.91266   0.00639
 This molecule is an asymmetric top.
 Rotational symmetry number  1.
 Warning -- assumption of classical behavior for rotation
           may cause significant error
 Rotational temperatures (Kelvin)      0.08928     0.04675     0.04277
 Rotational constants (GHZ):           1.86034     0.97403     0.89125
 Zero-point vibrational energy     126560.4 (Joules/Mol)
                                   30.24866 (Kcal/Mol)
 Warning -- explicit consideration of  15 degrees of freedom as
           vibrations may cause significant error
 Vibrational temperatures:     68.92    80.63   190.44   268.48   322.59
          (Kelvin)            355.31   433.20   461.18   489.16   524.60
                              648.17   694.54   758.33   856.68   858.96
                              935.61  1138.18  1291.61  1499.69  1641.73
                             1689.85  1786.43  1834.86  1944.16  2032.40
                             2156.58  5481.13

 Zero-point correction=                           0.048204 (Hartree/Particle)
 Thermal correction to Energy=                    0.057919
 Thermal correction to Enthalpy=                  0.058863
 Thermal correction to Gibbs Free Energy=         0.011379
 Sum of electronic and zero-point Energies=          -1099.957003
 Sum of electronic and thermal Energies=             -1099.947288
 Sum of electronic and thermal Enthalpies=           -1099.946344
 Sum of electronic and thermal Free Energies=        -1099.993829

                     E (Thermal)             CV                S
                      KCal/Mol        Cal/Mol-Kelvin    Cal/Mol-Kelvin
 Total                   36.345             33.170             99.940
 Electronic               0.000              0.000              1.377
 Translational            0.889              2.981             41.486
 Rotational               0.889              2.981             29.677
 Vibrational             34.567             27.208             27.400
 Vibration     1          0.595              1.978              4.902
 Vibration     2          0.596              1.975              4.592
 Vibration     3          0.612              1.921              2.911
 Vibration     4          0.632              1.858              2.261
 Vibration     5          0.649              1.804              1.925
 Vibration     6          0.661              1.768              1.752
 Vibration     7          0.693              1.672              1.411
 Vibration     8          0.706              1.634              1.307
 Vibration     9          0.720              1.596              1.212
 Vibration    10          0.738              1.545              1.102
 Vibration    11          0.809              1.360              0.794
 Vibration    12          0.839              1.288              0.703
 Vibration    13          0.882              1.190              0.594
 Vibration    14          0.953              1.042              0.458
 Vibration    15          0.955              1.038              0.455

                           ! Non-Optimized Parameters !
 Normal termination of Gaussian 16 at Sat May 24 01:29:02 2025.
