 Gaussian 16, Revision C.01,
 Gaussian 16:  ES64L-G16RevC.01  3-Jul-2019

 ----------------------------------------------------------------------
 #P M062X/Def2TZVPP Symm(None) scf(xqc) pop(None) freq opt(CalcFC, Tigh
 t)
 ----------------------------------------------------------------------

 ------------------------------
 Gaussian input prepared by ASE
 ------------------------------
 Symbolic Z-matrix:
 Charge =  0 Multiplicity = 2

 SCF Done:  E(UM062X) =  -1100.00259799     A.U. after   18 cycles
 SCF Done:  E(UM062X) =  -1100.00295479     A.U. after   14 cycles
 SCF Done:  E(UM062X) =  -1100.00377479     A.U. after   14 cycles
 SCF Done:  E(UM062X) =  -1099.98728760     A.U. after   15 cycles
 SCF Done:  E(UM062X) =  -1100.00391208     A.U. after   12 cycles
 SCF Done:  E(UM062X) =  -1100.00396115     A.U. after   11 cycles
 SCF Done:  E(UM062X) =  -1100.00398156     A.U. after   11 cycles
 SCF Done:  E(UM062X) =  -1100.00398460     A.U. after   11 cycles
 SCF Done:  E(UM062X) =  -1100.00398480     A.U. after    8 cycles
 SCF Done:  E(UM062X) =  -1100.00398481     A.U. after    6 cycles
 SCF Done:  E(UM062X) =  -1100.00398481     A.U. after    5 cycles
 SCF Done:  E(UM062X) =  -1100.00398481     A.U. after    3 cycles
 SCF Done:  E(UM062X) =  -1100.00398481     A.U. after    2 cycles
 Optimization completed.
    -- Stationary point found.
 Normal termination of Gaussian 16 at Sat May 24 01:11:37 2025.

 ---------------------------------------------------------------------
 #P Geom=AllCheck Guess=TCheck SCRF=Check GenChk UM062X/def2TZVPP Freq
 ---------------------------------------------------------------------

 Structure from the checkpoint file:  "/tmp/Gau-116122.chk"
 ------------------------------
 Gaussian input prepared by ASE
 ------------------------------
 Charge =  0 Multiplicity = 2

                          Input orientation:
 ---------------------------------------------------------------------
 Center     Atomic      Atomic             Coordinates (Angstroms)
 Number     Number       Type             X           Y           Z
 ---------------------------------------------------------------------
      1          6           0       -0.557803    0.769034   -1.212835
      2          6           0        0.005610    0.009935   -0.029342
      3          9           0       -0.426065    0.570361    1.098284
      4          9           0       -0.364070   -1.278914   -0.052731
      5         16           0        1.845061    0.032258   -0.023120
      6          8           0        2.262191   -0.627454    1.153174
      7          8           0        2.278146   -0.332346   -1.326609
      8          8           0        2.087187    1.576464    0.179080
      9          9           0       -0.471367    0.142935   -2.358643
     10          9           0       -1.749715    1.279685   -1.016922
     11          1           0        2.264616    1.995960   -0.674798
 ---------------------------------------------------------------------

 SCF Done:  E(UM062X) =  -1100.00398481     A.U. after    1 cycles

 Isotropic polarizability for W=    0.000000       52.31 Bohr**3.
 End of Minotr F.D. properties file   721 does not exist.

                      1                      2                      3
                      A                      A                      A
 Frequencies --     45.6513                55.5265               133.6964
 Red. masses --     15.2517                13.7480                11.7836
 Frc consts  --      0.0187                 0.0250                 0.1241
 IR Inten    --      0.6478                 1.4911                 3.6341

                      4                      5                      6
                      A                      A                      A
 Frequencies --    189.1987               224.5818               245.5960
 Red. masses --     15.5264                15.8705                 7.8808
 Frc consts  --      0.3275                 0.4716                 0.2801
 IR Inten    --      2.7671                 1.7079                 3.6396

                      7                      8                      9
                      A                      A                      A
 Frequencies --    302.0630               305.9955               332.3798
 Red. masses --     17.3343                 2.4482                13.5717
 Frc consts  --      0.9319                 0.1351                 0.8834
 IR Inten    --      5.3319                48.3629                 5.1003

                     10                     11                     12
                      A                      A                      A
 Frequencies --    352.7030               452.9061               477.3278
 Red. masses --      2.5360                 5.0418                 8.1935
 Frc consts  --      0.1859                 0.6093                 1.0999
 IR Inten    --     46.6873                 5.8602                31.2029

                     13                     14                     15
                      A                      A                      A
 Frequencies --    527.8510               594.1815               597.4482
 Red. masses --     15.7868                16.5880                15.8342
 Frc consts  --      2.5916                 3.4505                 3.3300
 IR Inten    --     22.6317                56.5857                 3.0938

                     16                     17                     18
                      A                      A                      A
 Frequencies --    649.6014               791.8889               895.5447
 Red. masses --     17.5719                14.0808                17.0921
 Frc consts  --      4.3688                 5.2024                 8.0764
 IR Inten    --     97.5062                 2.8162               219.3763

                     19                     20                     21
                      A                      A                      A
 Frequencies --   1036.9867              1138.5771              1173.6627
 Red. masses --     13.2704                 1.1924                13.8586
 Frc consts  --      8.4078                 0.9108                11.2475
 IR Inten    --    100.9090                83.5870                71.2030

                     22                     23                     24
                      A                      A                      A
 Frequencies --   1256.6387              1274.5037              1352.9942
 Red. masses --     13.9090                15.4222                13.3990
 Frc consts  --     12.9410                14.7597                14.4516
 IR Inten    --    221.1401                76.3394               232.4780

                     25                     26                     27
                      A                      A                      A
 Frequencies --   1411.9628              1497.4821              3813.6685
 Red. masses --     12.8934                15.2374                 1.0657
 Frc consts  --     15.1448                20.1318                 9.1325
 IR Inten    --     88.4220               276.8605               173.2082

 - Thermochemistry -
 -------------------
 Temperature   298.150 Kelvin.  Pressure   1.00000 Atm.
 Atom     1 has atomic number  6 and mass  12.00000

 Molecular mass:   180.95825 amu.
 Principal axes and moments of inertia in atomic units:
                           1         2         3
     Eigenvalues --   976.219231851.283572016.88361
           X            0.90901  -0.39445   0.13461
           Y           -0.15612  -0.02280   0.98747
           Z            0.38644   0.91864   0.08231
 This molecule is an asymmetric top.
 Rotational symmetry number  1.
 Warning -- assumption of classical behavior for rotation
           may cause significant error
 Rotational temperatures (Kelvin)      0.08872     0.04679     0.04294
 Rotational constants (GHZ):           1.84870     0.97486     0.89482
 Zero-point vibrational energy     126389.2 (Joules/Mol)
                                   30.20773 (Kcal/Mol)
 Warning -- explicit consideration of  15 degrees of freedom as
           vibrations may cause significant error
 Vibrational temperatures:     65.68    79.89   192.36   272.21   323.12
          (Kelvin)            353.36   434.60   440.26   478.22   507.46
                              651.63   686.77   759.46   854.89   859.59
                              934.63  1139.35  1288.49  1491.99  1638.16
                             1688.64  1808.02  1833.73  1946.66  2031.50
                             2154.54  5487.02

 Zero-point correction=                           0.048139 (Hartree/Particle)
 Thermal correction to Energy=                    0.057895
 Thermal correction to Enthalpy=                  0.058840
 Thermal correction to Gibbs Free Energy=         0.011238
 Sum of electronic and zero-point Energies=          -1099.955846
 Sum of electronic and thermal Energies=             -1099.946089
 Sum of electronic and thermal Enthalpies=           -1099.945145
 Sum of electronic and thermal Free Energies=        -1099.992746

                     E (Thermal)             CV                S
                      KCal/Mol        Cal/Mol-Kelvin    Cal/Mol-Kelvin
 Total                   36.330             33.243            100.185
 Electronic               0.000              0.000              1.377
 Translational            0.889              2.981             41.486
 Rotational               0.889              2.981             29.679
 Vibrational             34.552             27.282             27.643
 Vibration     1          0.595              1.979              4.997
 Vibration     2          0.596              1.975              4.610
 Vibration     3          0.613              1.920              2.892
 Vibration     4          0.633              1.855              2.236
 Vibration     5          0.649              1.804              1.922
 Vibration     6          0.660              1.770              1.762
 Vibration     7          0.694              1.670              1.405
 Vibration     8          0.696              1.662              1.384
 Vibration     9          0.714              1.611              1.248
 Vibration    10          0.729              1.570              1.154
 Vibration    11          0.811              1.354              0.787
 Vibration    12          0.834              1.300              0.717
 Vibration    13          0.883              1.188              0.592
 Vibration    14          0.952              1.044              0.460
 Vibration    15          0.955              1.037              0.454

 Optimization completed.
    -- Stationary point found.
 Normal termination of Gaussian 16 at Sat May 24 01:17:30 2025.
