 Gaussian 16, Revision C.01,
 Gaussian 16:  ES64L-G16RevC.01  3-Jul-2019

 ----------------------------------------------------------------------
 #P M062X/Def2TZVPP Symm(None) scf(xqc) pop(None) freq opt(CalcFC, Tigh
 t)
 ----------------------------------------------------------------------

 ------------------------------
 Gaussian input prepared by ASE
 ------------------------------
 Symbolic Z-matrix:
 Charge =  0 Multiplicity = 2

 SCF Done:  E(UM062X) =  -1100.00058898     A.U. after   17 cycles
 SCF Done:  E(UM062X) =  -1100.00419605     A.U. after   15 cycles
 SCF Done:  E(UM062X) =  -1099.93719592     A.U. after   14 cycles
 SCF Done:  E(UM062X) =  -1100.00527041     A.U. after   13 cycles
 SCF Done:  E(UM062X) =  -1100.00559479     A.U. after   13 cycles
 SCF Done:  E(UM062X) =  -1100.00563004     A.U. after   12 cycles
 SCF Done:  E(UM062X) =  -1100.00563496     A.U. after   10 cycles
 SCF Done:  E(UM062X) =  -1100.00563525     A.U. after    8 cycles
 SCF Done:  E(UM062X) =  -1100.00563525     A.U. after    7 cycles
 SCF Done:  E(UM062X) =  -1100.00563525     A.U. after    4 cycles
 Optimization completed.
    -- Stationary point found.
 Normal termination of Gaussian 16 at Sat May 24 01:08:22 2025.

 ---------------------------------------------------------------------
 #P Geom=AllCheck Guess=TCheck SCRF=Check GenChk UM062X/def2TZVPP Freq
 ---------------------------------------------------------------------

 Structure from the checkpoint file:  "/tmp/Gau-115932.chk"
 ------------------------------
 Gaussian input prepared by ASE
 ------------------------------
 Charge =  0 Multiplicity = 2

                          Input orientation:
 ---------------------------------------------------------------------
 Center     Atomic      Atomic             Coordinates (Angstroms)
 Number     Number       Type             X           Y           Z
 ---------------------------------------------------------------------
      1          6           0       -0.522981   -1.370879   -0.116343
      2          6           0        0.080827    0.010745   -0.050622
      3          9           0       -0.370442    0.735685   -1.072049
      4          9           0       -0.240941    0.641610    1.098334
      5         16           0        1.914646   -0.056888   -0.144362
      6          8           0        2.381241   -0.679813    1.042824
      7          8           0        2.244577   -0.506504   -1.442527
      8          8           0        2.226342    1.482667   -0.080256
      9          9           0       -0.235558   -2.144384    0.900423
     10          9           0       -1.803322   -1.380625   -0.401247
     11          1           0        2.342439    1.760206    0.839956
 ---------------------------------------------------------------------

 SCF Done:  E(UM062X) =  -1100.00563525     A.U. after    1 cycles

 Isotropic polarizability for W=    0.000000       52.10 Bohr**3.
 End of Minotr F.D. properties file   721 does not exist.

                      1                      2                      3
                      A                      A                      A
 Frequencies --     29.2411                62.2266               130.0158
 Red. masses --     15.6112                13.2480                13.3641
 Frc consts  --      0.0079                 0.0302                 0.1331
 IR Inten    --      1.2141                 1.3885                 1.6325

                      4                      5                      6
                      A                      A                      A
 Frequencies --    194.0275               216.6193               237.5679
 Red. masses --     10.3492                17.9661                 9.1707
 Frc consts  --      0.2296                 0.4967                 0.3049
 IR Inten    --      7.8577                 1.5895                10.8740

                      7                      8                      9
                      A                      A                      A
 Frequencies --    295.9112               319.8225               334.0609
 Red. masses --     10.8956                 4.2307                 4.9643
 Frc consts  --      0.5621                 0.2550                 0.3264
 IR Inten    --      0.2836                21.6014                15.5726

                     10                     11                     12
                      A                      A                      A
 Frequencies --    377.4017               447.6582               495.8146
 Red. masses --      2.4715                 5.6411                 6.8933
 Frc consts  --      0.2074                 0.6661                 0.9984
 IR Inten    --     44.7567                 5.5235                35.9531

                     13                     14                     15
                      A                      A                      A
 Frequencies --    511.1406               596.2322               605.9301
 Red. masses --     14.9856                16.4890                17.3334
 Frc consts  --      2.3068                 3.4536                 3.7496
 IR Inten    --     26.4056                19.6498                53.0713

                     16                     17                     18
                      A                      A                      A
 Frequencies --    652.2841               790.8609               895.6613
 Red. masses --     17.8528                14.4844                16.4482
 Frc consts  --      4.4754                 5.3376                 7.7742
 IR Inten    --     88.0654                14.1592               239.6338

                     19                     20                     21
                      A                      A                      A
 Frequencies --   1050.5325              1139.9650              1155.2368
 Red. masses --     13.8672                 1.1887                12.5650
 Frc consts  --      9.0169                 0.9102                 9.8800
 IR Inten    --     29.7309               101.5454               171.8893

                     22                     23                     24
                      A                      A                      A
 Frequencies --   1244.8474              1276.2823              1353.9719
 Red. masses --     14.5437                16.1065                13.4361
 Frc consts  --     13.2788                15.4577                14.5125
 IR Inten    --    185.0730                45.1339               231.4894

                     25                     26                     27
                      A                      A                      A
 Frequencies --   1413.3180              1498.4744              3809.3502
 Red. masses --     12.8709                15.2541                 1.0656
 Frc consts  --     15.1475                20.1806                 9.1110
 IR Inten    --     73.6547               285.0038               189.6789

 - Thermochemistry -
 -------------------
 Temperature   298.150 Kelvin.  Pressure   1.00000 Atm.
 Atom     1 has atomic number  6 and mass  12.00000

 Molecular mass:   180.95825 amu.
 Principal axes and moments of inertia in atomic units:
                           1         2         3
     Eigenvalues --   950.509471856.811402058.66557
           X            0.90200  -0.41185  -0.12954
           Y            0.42783   0.81236   0.39627
           Z           -0.05797  -0.41285   0.90895
 This molecule is an asymmetric top.
 Rotational symmetry number  1.
 Warning -- assumption of classical behavior for rotation
           may cause significant error
 Rotational temperatures (Kelvin)      0.09112     0.04665     0.04207
 Rotational constants (GHZ):           1.89871     0.97196     0.87666
 Zero-point vibrational energy     126412.1 (Joules/Mol)
                                   30.21322 (Kcal/Mol)
 Warning -- explicit consideration of  15 degrees of freedom as
           vibrations may cause significant error
 Vibrational temperatures:     42.07    89.53   187.06   279.16   311.67
          (Kelvin)            341.81   425.75   460.15   480.64   543.00
                              644.08   713.37   735.42   857.85   871.80
                              938.49  1137.87  1288.66  1511.48  1640.16
                             1662.13  1791.06  1836.29  1948.06  2033.45
                             2155.97  5480.81

 Zero-point correction=                           0.048148 (Hartree/Particle)
 Thermal correction to Energy=                    0.057906
 Thermal correction to Enthalpy=                  0.058850
 Thermal correction to Gibbs Free Energy=         0.010954
 Sum of electronic and zero-point Energies=          -1099.957487
 Sum of electronic and thermal Energies=             -1099.947729
 Sum of electronic and thermal Enthalpies=           -1099.946785
 Sum of electronic and thermal Free Energies=        -1099.994681

                     E (Thermal)             CV                S
                      KCal/Mol        Cal/Mol-Kelvin    Cal/Mol-Kelvin
 Total                   36.336             33.182            100.805
 Electronic               0.000              0.000              1.377
 Translational            0.889              2.981             41.486
 Rotational               0.889              2.981             29.675
 Vibrational             34.559             27.220             28.266
 Vibration     1          0.593              1.984              5.880
 Vibration     2          0.597              1.972              4.385
 Vibration     3          0.612              1.923              2.946
 Vibration     4          0.635              1.848              2.189
 Vibration     5          0.645              1.816              1.987
 Vibration     6          0.656              1.783              1.821
 Vibration     7          0.690              1.681              1.440
 Vibration     8          0.706              1.636              1.311
 Vibration     9          0.716              1.607              1.240
 Vibration    10          0.748              1.518              1.050
 Vibration    11          0.807              1.366              0.803
 Vibration    12          0.851              1.259              0.669
 Vibration    13          0.866              1.225              0.631
 Vibration    14          0.954              1.040              0.456
 Vibration    15          0.965              1.019              0.440

 Optimization completed.
    -- Stationary point found.
 Normal termination of Gaussian 16 at Sat May 24 01:13:44 2025.
