 Gaussian 16, Revision C.01,
 Gaussian 16:  ES64L-G16RevC.01  3-Jul-2019

 ----------------------------------------------------------------------
 #P M062X/Def2TZVPP Symm(None) scf(xqc) pop(None) freq opt(CalcFC, Tigh
 t)
 ----------------------------------------------------------------------

 ------------------------------
 Gaussian input prepared by ASE
 ------------------------------
 Symbolic Z-matrix:
 Charge =  0 Multiplicity = 2

 SCF Done:  E(UM062X) =  -1100.00505353     A.U. after   16 cycles
 SCF Done:  E(UM062X) =  -1100.00560833     A.U. after   12 cycles
 SCF Done:  E(UM062X) =  -1100.00561697     A.U. after   11 cycles
 SCF Done:  E(UM062X) =  -1100.00561787     A.U. after   11 cycles
 SCF Done:  E(UM062X) =  -1100.00561871     A.U. after    9 cycles
 SCF Done:  E(UM062X) =  -1100.00561871     A.U. after    5 cycles
 SCF Done:  E(UM062X) =  -1100.00561871     A.U. after    4 cycles
 SCF Done:  E(UM062X) =  -1100.00561871     A.U. after    4 cycles
 Optimization completed.
    -- Stationary point found.
 Normal termination of Gaussian 16 at Sat May 24 01:04:56 2025.

 ---------------------------------------------------------------------
 #P Geom=AllCheck Guess=TCheck SCRF=Check GenChk UM062X/def2TZVPP Freq
 ---------------------------------------------------------------------

 Structure from the checkpoint file:  "/tmp/Gau-112465.chk"
 ------------------------------
 Gaussian input prepared by ASE
 ------------------------------
 Charge =  0 Multiplicity = 2

                          Input orientation:
 ---------------------------------------------------------------------
 Center     Atomic      Atomic             Coordinates (Angstroms)
 Number     Number       Type             X           Y           Z
 ---------------------------------------------------------------------
      1          6           0       -0.570654    0.465560    1.337011
      2          6           0       -0.001972    0.012776    0.015544
      3          9           0       -0.400458   -1.234971   -0.225842
      4          9           0       -0.418908    0.798250   -0.999705
      5         16           0        1.838448    0.016247   -0.000787
      6          8           0        2.266643   -0.440285    1.266880
      7          8           0        2.229755   -0.581062   -1.226750
      8          8           0        2.121831    1.561114   -0.065169
      9          9           0       -0.179213    1.656428    1.723481
     10          9           0       -1.871957    0.320682    1.427941
     11          1           0        2.160275    1.855058   -0.986869
 ---------------------------------------------------------------------

 SCF Done:  E(UM062X) =  -1100.00561871     A.U. after    1 cycles

 Isotropic polarizability for W=    0.000000       52.05 Bohr**3.
 End of Minotr F.D. properties file   721 does not exist.

                      1                      2                      3
                      A                      A                      A
 Frequencies --     46.4317                61.7049               129.2797
 Red. masses --     15.1463                13.9993                16.7613
 Frc consts  --      0.0192                 0.0314                 0.1651
 IR Inten    --      1.1594                 1.3865                 0.6014

                      4                      5                      6
                      A                      A                      A
 Frequencies --    186.4182               215.8653               242.4480
 Red. masses --      5.4157                18.2494                16.2908
 Frc consts  --      0.1109                 0.5010                 0.5642
 IR Inten    --     16.3235                 1.0601                 6.5878

                      7                      8                      9
                      A                      A                      A
 Frequencies --    295.1227               316.8149               332.4883
 Red. masses --      8.1501                11.7290                 2.5862
 Frc consts  --      0.4182                 0.6936                 0.1684
 IR Inten    --      1.9492                 3.0252                35.9815

                     10                     11                     12
                      A                      A                      A
 Frequencies --    372.2459               444.2511               472.7205
 Red. masses --      2.8969                16.1476                 4.3753
 Frc consts  --      0.2365                 1.8777                 0.5761
 IR Inten    --     35.4673                 8.8935                30.1228

                     13                     14                     15
                      A                      A                      A
 Frequencies --    528.2596               595.6966               612.2331
 Red. masses --     14.0288                16.3190                18.2395
 Frc consts  --      2.3066                 3.4119                 4.0281
 IR Inten    --     22.7096                13.7782                82.3586

                     16                     17                     18
                      A                      A                      A
 Frequencies --    654.6510               789.9131               901.5978
 Red. masses --     17.2472                14.3362                16.6950
 Frc consts  --      4.3550                 5.2704                 7.9958
 IR Inten    --     68.4413                13.2414               185.6399

                     19                     20                     21
                      A                      A                      A
 Frequencies --   1052.3540              1140.3878              1155.9640
 Red. masses --     13.2479                 1.1969                12.4080
 Frc consts  --      8.6441                 0.9171                 9.7688
 IR Inten    --    102.3380                96.9328               144.9466

                     22                     23                     24
                      A                      A                      A
 Frequencies --   1233.9575              1283.9830              1344.6058
 Red. masses --     14.2305                16.1805                13.3409
 Frc consts  --     12.7664                15.7167                14.2110
 IR Inten    --     40.8062               235.5693               223.7217

                     25                     26                     27
                      A                      A                      A
 Frequencies --   1410.1632              1495.5238              3809.3851
 Red. masses --     12.8135                15.2343                 1.0656
 Frc consts  --     15.0126                20.0752                 9.1111
 IR Inten    --     75.3861               263.3058               188.0290

 - Thermochemistry -
 -------------------
 Temperature   298.150 Kelvin.  Pressure   1.00000 Atm.
 Atom     1 has atomic number  6 and mass  12.00000

 Molecular mass:   180.95825 amu.
 Principal axes and moments of inertia in atomic units:
                           1         2         3
     Eigenvalues --   962.365131795.771512043.81419
           X            0.91370   0.37400  -0.15899
           Y           -0.14447   0.66460   0.73310
           Z           -0.37985   0.64686  -0.66128
 This molecule is an asymmetric top.
 Rotational symmetry number  1.
 Warning -- assumption of classical behavior for rotation
           may cause significant error
 Rotational temperatures (Kelvin)      0.09000     0.04823     0.04238
 Rotational constants (GHZ):           1.87532     1.00499     0.88303
 Zero-point vibrational energy     126352.4 (Joules/Mol)
                                   30.19894 (Kcal/Mol)
 Warning -- explicit consideration of  15 degrees of freedom as
           vibrations may cause significant error
 Vibrational temperatures:     66.80    88.78   186.00   268.21   310.58
          (Kelvin)            348.83   424.62   455.83   478.38   535.58
                              639.18   680.14   760.05   857.07   880.87
                              941.90  1136.51  1297.20  1514.10  1640.76
                             1663.17  1775.39  1847.37  1934.59  2028.91
                             2151.73  5480.86

 Zero-point correction=                           0.048125 (Hartree/Particle)
 Thermal correction to Energy=                    0.057871
 Thermal correction to Enthalpy=                  0.058815
 Thermal correction to Gibbs Free Energy=         0.011302
 Sum of electronic and zero-point Energies=          -1099.957494
 Sum of electronic and thermal Energies=             -1099.947748
 Sum of electronic and thermal Enthalpies=           -1099.946804
 Sum of electronic and thermal Free Energies=        -1099.994316

                     E (Thermal)             CV                S
                      KCal/Mol        Cal/Mol-Kelvin    Cal/Mol-Kelvin
 Total                   36.315             33.206             99.999
 Electronic               0.000              0.000              1.377
 Translational            0.889              2.981             41.486
 Rotational               0.889              2.981             29.647
 Vibrational             34.537             27.244             27.488
 Vibration     1          0.595              1.979              4.964
 Vibration     2          0.597              1.973              4.402
 Vibration     3          0.612              1.924              2.957
 Vibration     4          0.632              1.858              2.263
 Vibration     5          0.645              1.817              1.994
 Vibration     6          0.659              1.775              1.785
 Vibration     7          0.689              1.683              1.444
 Vibration     8          0.704              1.641              1.326
 Vibration     9          0.714              1.611              1.248
 Vibration    10          0.744              1.529              1.071
 Vibration    11          0.804              1.374              0.813
 Vibration    12          0.830              1.311              0.730
 Vibration    13          0.883              1.187              0.591
 Vibration    14          0.953              1.041              0.457
 Vibration    15          0.971              1.006              0.429

                           ! Non-Optimized Parameters !
 Normal termination of Gaussian 16 at Sat May 24 01:10:27 2025.
