 Gaussian 16, Revision C.01,
 Gaussian 16:  ES64L-G16RevC.01  3-Jul-2019

 ----------------------------------------------------------------------
 #P M062X/Def2TZVPP Symm(None) scf(xqc) pop(None) freq opt(CalcFC, Tigh
 t)
 ----------------------------------------------------------------------

 ------------------------------
 Gaussian input prepared by ASE
 ------------------------------
 Symbolic Z-matrix:
 Charge =  0 Multiplicity = 2

 SCF Done:  E(UM062X) =  -1099.99686706     A.U. after   16 cycles
 SCF Done:  E(UM062X) =  -1100.00389586     A.U. after   13 cycles
 SCF Done:  E(UM062X) =  -1099.93528859     A.U. after   15 cycles
 SCF Done:  E(UM062X) =  -1100.00480689     A.U. after   13 cycles
 SCF Done:  E(UM062X) =  -1100.00516895     A.U. after   12 cycles
 SCF Done:  E(UM062X) =  -1100.00527902     A.U. after   11 cycles
 SCF Done:  E(UM062X) =  -1100.00529242     A.U. after    9 cycles
 SCF Done:  E(UM062X) =  -1100.00529691     A.U. after    9 cycles
 SCF Done:  E(UM062X) =  -1100.00529779     A.U. after    8 cycles
 SCF Done:  E(UM062X) =  -1100.00529811     A.U. after    7 cycles
 SCF Done:  E(UM062X) =  -1100.00529815     A.U. after    6 cycles
 SCF Done:  E(UM062X) =  -1100.00529815     A.U. after    5 cycles
 SCF Done:  E(UM062X) =  -1100.00529815     A.U. after    3 cycles
 Optimization completed.
    -- Stationary point found.
 Normal termination of Gaussian 16 at Sat May 24 01:10:30 2025.

 ---------------------------------------------------------------------
 #P Geom=AllCheck Guess=TCheck SCRF=Check GenChk UM062X/def2TZVPP Freq
 ---------------------------------------------------------------------

 Structure from the checkpoint file:  "/tmp/Gau-109750.chk"
 ------------------------------
 Gaussian input prepared by ASE
 ------------------------------
 Charge =  0 Multiplicity = 2

                          Input orientation:
 ---------------------------------------------------------------------
 Center     Atomic      Atomic             Coordinates (Angstroms)
 Number     Number       Type             X           Y           Z
 ---------------------------------------------------------------------
      1          6           0       -0.634308    0.440722    1.301280
      2          6           0       -0.056598   -0.045036   -0.007032
      3          9           0       -0.377716   -1.328714   -0.171129
      4          9           0       -0.539907    0.654220   -1.045226
      5         16           0        1.781785    0.067247   -0.025146
      6          8           0        2.221912   -0.344549    1.262097
      7          8           0        2.214200   -0.528724   -1.229243
      8          8           0        1.984045    1.618416   -0.172555
      9          9           0       -0.215843    1.638950    1.668129
     10          9           0       -1.936589    0.336937    1.384007
     11          1           0        2.025303    2.035068    0.700543
 ---------------------------------------------------------------------

 SCF Done:  E(UM062X) =  -1100.00529815     A.U. after    1 cycles

 Isotropic polarizability for W=    0.000000       51.97 Bohr**3.
 End of Minotr F.D. properties file   721 does not exist.

                      1                      2                      3
                      A                      A                      A
 Frequencies --     61.3307                68.3875               140.7534
 Red. masses --     16.3936                13.1087                12.2156
 Frc consts  --      0.0363                 0.0361                 0.1426
 IR Inten    --      0.4458                 1.7563                 4.3336

                      4                      5                      6
                      A                      A                      A
 Frequencies --    200.1461               217.2122               239.8070
 Red. masses --     13.4651                16.3404                10.1732
 Frc consts  --      0.3178                 0.4542                 0.3447
 IR Inten    --      4.6078                 2.4473                 2.1051

                      7                      8                      9
                      A                      A                      A
 Frequencies --    298.3896               311.8573               330.5941
 Red. masses --     17.1824                 4.6726                 4.0693
 Frc consts  --      0.9014                 0.2677                 0.2620
 IR Inten    --      3.1701                22.4088                28.6682

                     10                     11                     12
                      A                      A                      A
 Frequencies --    382.9036               440.5053               473.4391
 Red. masses --      2.1302                16.4876                 4.3376
 Frc consts  --      0.1840                 1.8850                 0.5728
 IR Inten    --     56.9818                 5.8383                34.0952

                     13                     14                     15
                      A                      A                      A
 Frequencies --    528.9450               596.2101               616.2455
 Red. masses --     16.0143                15.5628                18.6917
 Frc consts  --      2.6399                 3.2594                 4.1822
 IR Inten    --     16.3917                15.7867                92.4303

                     16                     17                     18
                      A                      A                      A
 Frequencies --    657.3656               790.5917               903.3319
 Red. masses --     16.6115                14.2414                16.8327
 Frc consts  --      4.2293                 5.2445                 8.0928
 IR Inten    --     61.1387                11.1805               185.6773

                     19                     20                     21
                      A                      A                      A
 Frequencies --   1049.3658              1147.1904              1177.0066
 Red. masses --     12.1424                 1.1923                13.7757
 Frc consts  --      7.8778                 0.9245                11.2440
 IR Inten    --     86.2407               110.3030               153.0103

                     22                     23                     24
                      A                      A                      A
 Frequencies --   1232.7825              1280.1242              1329.3384
 Red. masses --     14.0843                16.4378                12.8171
 Frc consts  --     12.6112                15.8708                13.3448
 IR Inten    --     57.3305               248.2307               152.3898

                     25                     26                     27
                      A                      A                      A
 Frequencies --   1407.8389              1498.5930              3807.0045
 Red. masses --     12.8881                15.1789                 1.0656
 Frc consts  --     15.0503                20.0843                 9.0995
 IR Inten    --    108.9223               261.0585               169.6750

 - Thermochemistry -
 -------------------
 Temperature   298.150 Kelvin.  Pressure   1.00000 Atm.
 Atom     1 has atomic number  6 and mass  12.00000

 Molecular mass:   180.95825 amu.
 Principal axes and moments of inertia in atomic units:
                           1         2         3
     Eigenvalues --   967.908011765.118252040.38714
           X            0.92171   0.34462  -0.17800
           Y           -0.12131   0.69202   0.71161
           Z           -0.36841   0.63430  -0.67965
 This molecule is an asymmetric top.
 Rotational symmetry number  1.
 Warning -- assumption of classical behavior for rotation
           may cause significant error
 Rotational temperatures (Kelvin)      0.08949     0.04907     0.04245
 Rotational constants (GHZ):           1.86458     1.02245     0.88451
 Zero-point vibrational energy     126728.0 (Joules/Mol)
                                   30.28871 (Kcal/Mol)
 Warning -- explicit consideration of  15 degrees of freedom as
           vibrations may cause significant error
 Vibrational temperatures:     88.24    98.39   202.51   287.97   312.52
          (Kelvin)            345.03   429.32   448.69   475.65   550.91
                              633.79   681.17   761.03   857.81   886.64
                              945.80  1137.49  1299.69  1509.80  1650.55
                             1693.45  1773.70  1841.81  1912.62  2025.57
                             2156.14  5477.43

 Zero-point correction=                           0.048268 (Hartree/Particle)
 Thermal correction to Energy=                    0.057919
 Thermal correction to Enthalpy=                  0.058863
 Thermal correction to Gibbs Free Energy=         0.011866
 Sum of electronic and zero-point Energies=          -1099.957030
 Sum of electronic and thermal Energies=             -1099.947379
 Sum of electronic and thermal Enthalpies=           -1099.946435
 Sum of electronic and thermal Free Energies=        -1099.993432

                     E (Thermal)             CV                S
                      KCal/Mol        Cal/Mol-Kelvin    Cal/Mol-Kelvin
 Total                   36.345             33.132             98.914
 Electronic               0.000              0.000              1.377
 Translational            0.889              2.981             41.486
 Rotational               0.889              2.981             29.634
 Vibrational             34.567             27.170             26.416
 Vibration     1          0.597              1.973              4.414
 Vibration     2          0.598              1.969              4.199
 Vibration     3          0.615              1.913              2.794
 Vibration     4          0.638              1.840              2.132
 Vibration     5          0.646              1.815              1.982
 Vibration     6          0.657              1.780              1.804
 Vibration     7          0.691              1.677              1.426
 Vibration     8          0.700              1.651              1.352
 Vibration     9          0.713              1.614              1.257
 Vibration    10          0.752              1.507              1.028
 Vibration    11          0.800              1.382              0.825
 Vibration    12          0.830              1.309              0.728
 Vibration    13          0.884              1.186              0.590
 Vibration    14          0.954              1.040              0.456
 Vibration    15          0.976              0.998              0.423

 Optimization completed.
    -- Stationary point found.
 Normal termination of Gaussian 16 at Sat May 24 01:16:17 2025.
