 Gaussian 16, Revision C.01,
 Gaussian 16:  ES64L-G16RevC.01  3-Jul-2019

 ----------------------------------------------------------------------
 #P M062X/Def2TZVPP Symm(None) scf(xqc) pop(None) freq opt(CalcFC, Tigh
 t)
 ----------------------------------------------------------------------

 ------------------------------
 Gaussian input prepared by ASE
 ------------------------------
 Symbolic Z-matrix:
 Charge =  0 Multiplicity = 1

 SCF Done:  E(RM062X) =  -1124.69642543     A.U. after   14 cycles
 SCF Done:  E(RM062X) =  -1124.69764350     A.U. after   14 cycles
 SCF Done:  E(RM062X) =  -1124.70147328     A.U. after   13 cycles
 SCF Done:  E(RM062X) =  -1124.67074930     A.U. after   15 cycles
 SCF Done:  E(RM062X) =  -1124.70244306     A.U. after   12 cycles
 SCF Done:  E(RM062X) =  -1124.70259461     A.U. after   12 cycles
 SCF Done:  E(RM062X) =  -1124.70260190     A.U. after   11 cycles
 SCF Done:  E(RM062X) =  -1124.70261478     A.U. after   10 cycles
 SCF Done:  E(RM062X) =  -1124.70261490     A.U. after    7 cycles
 SCF Done:  E(RM062X) =  -1124.70261492     A.U. after    6 cycles
 SCF Done:  E(RM062X) =  -1124.70261492     A.U. after    5 cycles
 SCF Done:  E(RM062X) =  -1124.70261492     A.U. after    5 cycles
 SCF Done:  E(RM062X) =  -1124.70261492     A.U. after    4 cycles
 Optimization completed.
    -- Stationary point found.
 Normal termination of Gaussian 16 at Sat May 24 01:09:55 2025.

 ---------------------------------------------------------------------
 #P Geom=AllCheck Guess=TCheck SCRF=Check GenChk RM062X/def2TZVPP Freq
 ---------------------------------------------------------------------

 Structure from the checkpoint file:  "/tmp/Gau-28055.chk"
 ------------------------------
 Gaussian input prepared by ASE
 ------------------------------
 Charge =  0 Multiplicity = 1

                          Input orientation:
 ---------------------------------------------------------------------
 Center     Atomic      Atomic             Coordinates (Angstroms)
 Number     Number       Type             X           Y           Z
 ---------------------------------------------------------------------
      1          6           0       -0.661404    0.781227   -1.227109
      2          6           0        0.000052   -0.009052   -0.079117
      3          9           0       -0.433271    0.476395    1.087461
      4          9           0       -0.366907   -1.292193   -0.181193
      5         16           0        1.882158    0.004212   -0.089748
      6          8           0        2.221870   -0.070700   -1.499620
      7          8           0        2.071916    1.508040    0.433169
      8          9           0       -0.120913    2.005636   -1.295940
      9          9           0       -0.496285    0.175461   -2.383174
     10          9           0       -1.958485    0.918296   -0.992918
     11          1           0        1.786643    2.148310   -0.237937
 ---------------------------------------------------------------------

 SCF Done:  E(RM062X) =  -1124.70261492     A.U. after    1 cycles

 Isotropic polarizability for W=    0.000000       52.16 Bohr**3.
 End of Minotr F.D. properties file   721 does not exist.

                      1                      2                      3
                      A                      A                      A
 Frequencies --     61.0502                84.0784               153.7119
 Red. masses --     13.9191                13.4027                14.0735
 Frc consts  --      0.0306                 0.0558                 0.1959
 IR Inten    --      0.6915                 1.2888                 0.7178

                      4                      5                      6
                      A                      A                      A
 Frequencies --    201.7155               223.6468               250.5792
 Red. masses --     10.4362                15.4183                 9.7857
 Frc consts  --      0.2502                 0.4544                 0.3620
 IR Inten    --      5.7374                 2.1119                 0.9498

                      7                      8                      9
                      A                      A                      A
 Frequencies --    295.8380               327.2481               356.6853
 Red. masses --      8.9769                 8.9589                 2.4530
 Frc consts  --      0.4629                 0.5653                 0.1839
 IR Inten    --     10.9784                 1.6457                25.9766

                     10                     11                     12
                      A                      A                      A
 Frequencies --    368.3839               452.0804               471.6754
 Red. masses --     12.1726                15.3307                10.7671
 Frc consts  --      0.9733                 1.8460                 1.4114
 IR Inten    --      0.8633                29.5878                26.0946

                     13                     14                     15
                      A                      A                      A
 Frequencies --    504.9209               550.0673               603.7517
 Red. masses --      2.4223                16.4563                17.3337
 Frc consts  --      0.3638                 2.9337                 3.7227
 IR Inten    --    134.6787                 8.5104                 3.3221

                     16                     17                     18
                      A                      A                      A
 Frequencies --    654.2390               772.8839               845.7963
 Red. masses --     15.1253                17.0958                16.1186
 Frc consts  --      3.8144                 6.0168                 6.7937
 IR Inten    --      1.9087                15.7562               164.1586

                     19                     20                     21
                      A                      A                      A
 Frequencies --   1016.9723              1132.7500              1188.9320
 Red. masses --     11.9899                 1.3622                10.1849
 Frc consts  --      7.3061                 1.0298                 8.4824
 IR Inten    --     58.5088               112.8612               177.2409

                     22                     23                     24
                      A                      A                      A
 Frequencies --   1228.2518              1254.8065              1271.2343
 Red. masses --     13.7777                12.9210                 7.0676
 Frc consts  --     12.2462                11.9867                 6.7294
 IR Inten    --     16.5068               230.7758                81.0935

                     25                     26                     27
                      A                      A                      A
 Frequencies --   1310.5211              1385.2326              3758.5364
 Red. masses --     13.0416                12.6761                 1.0647
 Frc consts  --     13.1968                14.3311                 8.8618
 IR Inten    --    390.4318               155.8830               122.5208

 - Thermochemistry -
 -------------------
 Temperature   298.150 Kelvin.  Pressure   1.00000 Atm.
 Atom     1 has atomic number  6 and mass  12.00000

 Molecular mass:   183.96174 amu.
 Principal axes and moments of inertia in atomic units:
                           1         2         3
     Eigenvalues --  1080.651581754.530131846.47661
           X            0.95061  -0.30687  -0.04656
           Y           -0.08845  -0.41162   0.90705
           Z            0.29752   0.85814   0.41843
 This molecule is an asymmetric top.
 Rotational symmetry number  1.
 Warning -- assumption of classical behavior for rotation
           may cause significant error
 Rotational temperatures (Kelvin)      0.08015     0.04937     0.04691
 Rotational constants (GHZ):           1.67005     1.02862     0.97740
 Zero-point vibrational energy     123966.6 (Joules/Mol)
                                   29.62872 (Kcal/Mol)
 Warning -- explicit consideration of  15 degrees of freedom as
           vibrations may cause significant error
 Vibrational temperatures:     87.84   120.97   221.16   290.22   321.78
          (Kelvin)            360.53   425.64   470.84   513.19   530.02
                              650.44   678.64   726.47   791.42   868.66
                              941.30  1112.01  1216.91  1463.20  1629.77
                             1710.61  1767.18  1805.39  1829.02  1885.55
                             1993.04  5407.70

 Zero-point correction=                           0.047216 (Hartree/Particle)
 Thermal correction to Energy=                    0.056834
 Thermal correction to Enthalpy=                  0.057778
 Thermal correction to Gibbs Free Energy=         0.011700
 Sum of electronic and zero-point Energies=          -1124.655399
 Sum of electronic and thermal Energies=             -1124.645781
 Sum of electronic and thermal Enthalpies=           -1124.644836
 Sum of electronic and thermal Free Energies=        -1124.690915

                     E (Thermal)             CV                S
                      KCal/Mol        Cal/Mol-Kelvin    Cal/Mol-Kelvin
 Total                   35.664             33.465             96.981
 Electronic               0.000              0.000              0.000
 Translational            0.889              2.981             41.535
 Rotational               0.889              2.981             29.639
 Vibrational             33.887             27.503             25.808
 Vibration     1          0.597              1.973              4.423
 Vibration     2          0.601              1.960              3.793
 Vibration     3          0.619              1.899              2.626
 Vibration     4          0.639              1.837              2.117
 Vibration     5          0.649              1.805              1.929
 Vibration     6          0.663              1.762              1.727
 Vibration     7          0.690              1.681              1.440
 Vibration     8          0.711              1.621              1.274
 Vibration     9          0.732              1.562              1.137
 Vibration    10          0.741              1.537              1.087
 Vibration    11          0.811              1.356              0.790
 Vibration    12          0.829              1.313              0.733
 Vibration    13          0.860              1.239              0.646
 Vibration    14          0.905              1.140              0.544
 Vibration    15          0.962              1.024              0.443

                           ! Non-Optimized Parameters !
 Normal termination of Gaussian 16 at Sat May 24 01:13:26 2025.
