 Gaussian 16, Revision C.01,
 Gaussian 16:  ES64L-G16RevC.01  3-Jul-2019

 ----------------------------------------------------------------------
 #P M062X/Def2TZVPP Symm(None) scf(xqc) pop(None) freq opt(CalcFC, Tigh
 t)
 ----------------------------------------------------------------------

 ------------------------------
 Gaussian input prepared by ASE
 ------------------------------
 Symbolic Z-matrix:
 Charge =  0 Multiplicity = 1

 SCF Done:  E(RM062X) =  -1124.69624319     A.U. after   14 cycles
 SCF Done:  E(RM062X) =  -1124.69847827     A.U. after   15 cycles
 SCF Done:  E(RM062X) =  -1124.69757783     A.U. after   14 cycles
 SCF Done:  E(RM062X) =  -1124.69889310     A.U. after   13 cycles
 SCF Done:  E(RM062X) =  -1124.69892006     A.U. after   11 cycles
 SCF Done:  E(RM062X) =  -1124.69892026     A.U. after    7 cycles
 SCF Done:  E(RM062X) =  -1124.69892027     A.U. after    7 cycles
 SCF Done:  E(RM062X) =  -1124.69892027     A.U. after    5 cycles
 SCF Done:  E(RM062X) =  -1124.69892027     A.U. after    3 cycles
 Optimization completed.
    -- Stationary point found.
 Normal termination of Gaussian 16 at Sat May 24 01:07:22 2025.

 ---------------------------------------------------------------------
 #P Geom=AllCheck Guess=TCheck SCRF=Check GenChk RM062X/def2TZVPP Freq
 ---------------------------------------------------------------------

 Structure from the checkpoint file:  "/tmp/Gau-167980.chk"
 ------------------------------
 Gaussian input prepared by ASE
 ------------------------------
 Charge =  0 Multiplicity = 1

                          Input orientation:
 ---------------------------------------------------------------------
 Center     Atomic      Atomic             Coordinates (Angstroms)
 Number     Number       Type             X           Y           Z
 ---------------------------------------------------------------------
      1          6           0       -0.583860   -1.381181   -0.225258
      2          6           0        0.039445    0.017296   -0.056440
      3          9           0       -0.433463    0.823087   -1.000682
      4          9           0       -0.301178    0.487547    1.150084
      5         16           0        1.912358   -0.048463   -0.124203
      6          8           0        2.217745   -0.520694   -1.457137
      7          8           0        1.957477    1.574208   -0.101288
      8          9           0       -0.448720   -1.816055   -1.463225
      9          9           0        0.022954   -2.229982    0.603788
     10          9           0       -1.873594   -1.340072    0.078765
     11          1           0        2.731475    1.865503    0.394537
 ---------------------------------------------------------------------

 SCF Done:  E(RM062X) =  -1124.69892027     A.U. after    1 cycles

 Isotropic polarizability for W=    0.000000       52.59 Bohr**3.
 End of Minotr F.D. properties file   721 does not exist.

                      1                      2                      3
                      A                      A                      A
 Frequencies --     44.0891                69.2122               129.4868
 Red. masses --     14.0056                11.4112                12.3929
 Frc consts  --      0.0160                 0.0322                 0.1224
 IR Inten    --      3.2088                 3.4771                 0.8143

                      4                      5                      6
                      A                      A                      A
 Frequencies --    189.7761               203.0917               227.5198
 Red. masses --      1.6746                15.6426                16.7132
 Frc consts  --      0.0355                 0.3801                 0.5097
 IR Inten    --     71.6881                 8.4012                 3.3110

                      7                      8                      9
                      A                      A                      A
 Frequencies --    266.1316               281.7766               332.2577
 Red. masses --      3.5606                12.6914                 9.6691
 Frc consts  --      0.1486                 0.5937                 0.6289
 IR Inten    --     23.9884                 0.4413                 3.6217

                     10                     11                     12
                      A                      A                      A
 Frequencies --    378.3584               423.1509               432.9812
 Red. masses --     14.8459                14.2170                12.0404
 Frc consts  --      1.2522                 1.4999                 1.3299
 IR Inten    --      1.9264                 9.4662                13.5335

                     13                     14                     15
                      A                      A                      A
 Frequencies --    528.0570               555.9516               612.1343
 Red. masses --     14.8731                16.8401                16.9035
 Frc consts  --      2.4435                 3.0667                 3.7318
 IR Inten    --     17.5338                 4.5429                 6.0895

                     16                     17                     18
                      A                      A                      A
 Frequencies --    655.2891               773.0185               818.0028
 Red. masses --     14.8440                16.9609                15.6810
 Frc consts  --      3.7555                 5.9714                 6.1821
 IR Inten    --     28.5847                22.8683               141.8168

                     19                     20                     21
                      A                      A                      A
 Frequencies --    997.5593              1131.3090              1195.8873
 Red. masses --     13.0276                 1.1886                11.7283
 Frc consts  --      7.6382                 0.8963                 9.8824
 IR Inten    --    102.1023               147.6567               143.7012

                     22                     23                     24
                      A                      A                      A
 Frequencies --   1260.3614              1268.8474              1276.4464
 Red. masses --     11.3426                13.2321                13.7607
 Frc consts  --     10.6158                12.5516                13.2098
 IR Inten    --     14.4980               246.7329               105.1832

                     25                     26                     27
                      A                      A                      A
 Frequencies --   1308.3258              1402.0491              3854.1168
 Red. masses --     13.5508                12.0975                 1.0670
 Frc consts  --     13.6662                14.0111                 9.3384
 IR Inten    --    407.5632               113.6121               191.4427

 - Thermochemistry -
 -------------------
 Temperature   298.150 Kelvin.  Pressure   1.00000 Atm.
 Atom     1 has atomic number  6 and mass  12.00000

 Molecular mass:   183.96174 amu.
 Principal axes and moments of inertia in atomic units:
                           1         2         3
     Eigenvalues --   968.389431829.883552089.12361
           X            0.80429  -0.49769   0.32468
           Y            0.59118   0.72548  -0.35240
           Z           -0.06017   0.47538   0.87772
 This molecule is an asymmetric top.
 Rotational symmetry number  1.
 Warning -- assumption of classical behavior for rotation
           may cause significant error
 Rotational temperatures (Kelvin)      0.08944     0.04733     0.04146
 Rotational constants (GHZ):           1.86365     0.98626     0.86387
 Zero-point vibrational energy     123306.2 (Joules/Mol)
                                   29.47089 (Kcal/Mol)
 Warning -- explicit consideration of  15 degrees of freedom as
           vibrations may cause significant error
 Vibrational temperatures:     63.43    99.58   186.30   273.05   292.20
          (Kelvin)            327.35   382.90   405.41   478.04   544.37
                              608.82   622.96   759.76   799.89   880.72
                              942.81  1112.20  1176.92  1435.27  1627.70
                             1720.62  1813.38  1825.59  1836.52  1882.39
                             2017.24  5545.21

 Zero-point correction=                           0.046965 (Hartree/Particle)
 Thermal correction to Energy=                    0.056926
 Thermal correction to Enthalpy=                  0.057870
 Thermal correction to Gibbs Free Energy=         0.010596
 Sum of electronic and zero-point Energies=          -1124.651955
 Sum of electronic and thermal Energies=             -1124.641995
 Sum of electronic and thermal Enthalpies=           -1124.641051
 Sum of electronic and thermal Free Energies=        -1124.688324

                     E (Thermal)             CV                S
                      KCal/Mol        Cal/Mol-Kelvin    Cal/Mol-Kelvin
 Total                   35.721             33.850             99.496
 Electronic               0.000              0.000              0.000
 Translational            0.889              2.981             41.535
 Rotational               0.889              2.981             29.694
 Vibrational             33.944             27.888             28.267
 Vibration     1          0.595              1.980              5.066
 Vibration     2          0.598              1.969              4.176
 Vibration     3          0.612              1.924              2.954
 Vibration     4          0.633              1.854              2.230
 Vibration     5          0.639              1.836              2.105
 Vibration     6          0.651              1.799              1.898
 Vibration     7          0.672              1.735              1.621
 Vibration     8          0.681              1.707              1.523
 Vibration     9          0.714              1.611              1.249
 Vibration    10          0.749              1.516              1.046
 Vibration    11          0.785              1.420              0.881
 Vibration    12          0.794              1.398              0.849
 Vibration    13          0.883              1.188              0.592
 Vibration    14          0.911              1.127              0.532
 Vibration    15          0.971              1.006              0.429

 Optimization completed.
    -- Stationary point found.
 Normal termination of Gaussian 16 at Sat May 24 01:10:49 2025.
