 Gaussian 16, Revision C.01,
 Gaussian 16:  ES64L-G16RevC.01  3-Jul-2019

 ----------------------------------------------------------------------
 #P M062X/Def2TZVPP Symm(None) scf(xqc) pop(None) freq opt(CalcFC, Tigh
 t)
 ----------------------------------------------------------------------

 ------------------------------
 Gaussian input prepared by ASE
 ------------------------------
 Symbolic Z-matrix:
 Charge =  0 Multiplicity = 1

 SCF Done:  E(RM062X) =  -1124.69448059     A.U. after   14 cycles
 SCF Done:  E(RM062X) =  -1124.69747420     A.U. after   14 cycles
 SCF Done:  E(RM062X) =  -1124.68908071     A.U. after   15 cycles
 SCF Done:  E(RM062X) =  -1124.69818227     A.U. after   12 cycles
 SCF Done:  E(RM062X) =  -1124.69812194     A.U. after   13 cycles
 SCF Done:  E(RM062X) =  -1124.69831111     A.U. after   12 cycles
 SCF Done:  E(RM062X) =  -1124.69831586     A.U. after    8 cycles
 SCF Done:  E(RM062X) =  -1124.69831690     A.U. after    8 cycles
 SCF Done:  E(RM062X) =  -1124.69831703     A.U. after    8 cycles
 SCF Done:  E(RM062X) =  -1124.69831705     A.U. after    6 cycles
 SCF Done:  E(RM062X) =  -1124.69831705     A.U. after    5 cycles
 Optimization completed.
    -- Stationary point found.
 Normal termination of Gaussian 16 at Sat May 24 01:08:08 2025.

 ---------------------------------------------------------------------
 #P Geom=AllCheck Guess=TCheck SCRF=Check GenChk RM062X/def2TZVPP Freq
 ---------------------------------------------------------------------

 Structure from the checkpoint file:  "/tmp/Gau-19704.chk"
 ------------------------------
 Gaussian input prepared by ASE
 ------------------------------
 Charge =  0 Multiplicity = 1

                          Input orientation:
 ---------------------------------------------------------------------
 Center     Atomic      Atomic             Coordinates (Angstroms)
 Number     Number       Type             X           Y           Z
 ---------------------------------------------------------------------
      1          6           0       -0.621742    0.957919   -1.092870
      2          6           0        0.033207    0.043676   -0.029614
      3          9           0       -0.368147    0.436806    1.185300
      4          9           0       -0.374819   -1.210257   -0.239795
      5         16           0        1.904038   -0.049198   -0.000218
      6          8           0        2.294741   -0.704417   -1.227238
      7          8           0        2.009637    1.564694   -0.169196
      8          9           0       -0.573653    2.226512   -0.722533
      9          9           0       -0.017551    0.816670   -2.260779
     10          9           0       -1.898265    0.612046   -1.226952
     11          1           0        2.853193    1.874092    0.181254
 ---------------------------------------------------------------------

 SCF Done:  E(RM062X) =  -1124.69831705     A.U. after    1 cycles

 Isotropic polarizability for W=    0.000000       52.67 Bohr**3.
 End of Minotr F.D. properties file   721 does not exist.

                      1                      2                      3
                      A                      A                      A
 Frequencies --     49.9307                71.0850               149.2345
 Red. masses --     12.2558                15.4246                12.8017
 Frc consts  --      0.0180                 0.0459                 0.1680
 IR Inten    --      2.0236                 2.2629                 0.3613

                      4                      5                      6
                      A                      A                      A
 Frequencies --    193.8105               228.3238               234.8045
 Red. masses --     11.9408                 5.9911                 2.0198
 Frc consts  --      0.2643                 0.1840                 0.0656
 IR Inten    --      3.7328                11.4118                65.0208

                      7                      8                      9
                      A                      A                      A
 Frequencies --    262.2226               307.8862               343.9805
 Red. masses --      3.8041                16.4421                 6.3195
 Frc consts  --      0.1541                 0.9183                 0.4406
 IR Inten    --     17.2521                 3.2451                 8.8789

                     10                     11                     12
                      A                      A                      A
 Frequencies --    366.3630               421.4245               458.3595
 Red. masses --     18.0992                13.7178                12.4799
 Frc consts  --      1.4313                 1.4354                 1.5448
 IR Inten    --      1.0855                27.0235                15.9932

                     13                     14                     15
                      A                      A                      A
 Frequencies --    488.4910               552.6633               605.6892
 Red. masses --     16.2386                17.7157                17.4040
 Frc consts  --      2.2830                 3.1881                 3.7618
 IR Inten    --     19.1990                 4.1331                 1.4386

                     16                     17                     18
                      A                      A                      A
 Frequencies --    654.1348               775.5812               818.1611
 Red. masses --     15.8703                16.6126                16.1269
 Frc consts  --      4.0010                 5.8876                 6.3603
 IR Inten    --      6.5646                15.0032               124.5598

                     19                     20                     21
                      A                      A                      A
 Frequencies --   1012.8810              1140.5336              1185.8873
 Red. masses --      7.5256                 1.2148                13.5052
 Frc consts  --      4.5489                 0.9310                11.1902
 IR Inten    --     90.1851               103.1272               165.3252

                     22                     23                     24
                      A                      A                      A
 Frequencies --   1243.9621              1270.3311              1278.7139
 Red. masses --     13.9976                13.5939                14.5090
 Frc consts  --     12.7619                12.9249                13.9776
 IR Inten    --     34.7365               191.8186               162.8147

                     25                     26                     27
                      A                      A                      A
 Frequencies --   1309.5841              1374.8937              3848.5312
 Red. masses --     13.8786                12.1321                 1.0670
 Frc consts  --     14.0237                13.5121                 9.3109
 IR Inten    --    441.6228               131.1100               182.7261

 - Thermochemistry -
 -------------------
 Temperature   298.150 Kelvin.  Pressure   1.00000 Atm.
 Atom     1 has atomic number  6 and mass  12.00000

 Molecular mass:   183.96174 amu.
 Principal axes and moments of inertia in atomic units:
                           1         2         3
     Eigenvalues --  1068.143911759.096161867.49788
           X            0.93876   0.34228  -0.03970
           Y           -0.27602   0.81595   0.50797
           Z            0.20626  -0.46590   0.86046
 This molecule is an asymmetric top.
 Rotational symmetry number  1.
 Warning -- assumption of classical behavior for rotation
           may cause significant error
 Rotational temperatures (Kelvin)      0.08109     0.04924     0.04638
 Rotational constants (GHZ):           1.68960     1.02595     0.96640
 Zero-point vibrational energy     123499.3 (Joules/Mol)
                                   29.51703 (Kcal/Mol)
 Warning -- explicit consideration of  15 degrees of freedom as
           vibrations may cause significant error
 Vibrational temperatures:     71.84   102.28   214.72   278.85   328.51
          (Kelvin)            337.83   377.28   442.98   494.91   527.11
                              606.34   659.48   702.83   795.16   871.45
                              941.15  1115.89  1177.15  1457.31  1640.97
                             1706.23  1789.78  1827.72  1839.78  1884.20
                             1978.17  5537.18

 Zero-point correction=                           0.047038 (Hartree/Particle)
 Thermal correction to Energy=                    0.056877
 Thermal correction to Enthalpy=                  0.057821
 Thermal correction to Gibbs Free Energy=         0.011033
 Sum of electronic and zero-point Energies=          -1124.651279
 Sum of electronic and thermal Energies=             -1124.641440
 Sum of electronic and thermal Enthalpies=           -1124.640496
 Sum of electronic and thermal Free Energies=        -1124.687284

                     E (Thermal)             CV                S
                      KCal/Mol        Cal/Mol-Kelvin    Cal/Mol-Kelvin
 Total                   35.691             33.785             98.473
 Electronic               0.000              0.000              0.000
 Translational            0.889              2.981             41.535
 Rotational               0.889              2.981             29.641
 Vibrational             33.913             27.824             27.297
 Vibration     1          0.595              1.978              4.820
 Vibration     2          0.598              1.968              4.123
 Vibration     3          0.618              1.904              2.682
 Vibration     4          0.635              1.848              2.191
 Vibration     5          0.651              1.798              1.892
 Vibration     6          0.655              1.788              1.842
 Vibration     7          0.670              1.742              1.647
 Vibration     8          0.698              1.659              1.374
 Vibration     9          0.723              1.588              1.194
 Vibration    10          0.739              1.541              1.095
 Vibration    11          0.784              1.424              0.887
 Vibration    12          0.816              1.342              0.771
 Vibration    13          0.844              1.276              0.688
 Vibration    14          0.908              1.134              0.539
 Vibration    15          0.964              1.020              0.440

 Optimization completed.
    -- Stationary point found.
 Normal termination of Gaussian 16 at Sat May 24 01:11:38 2025.
