 Gaussian 16, Revision C.01,
 Gaussian 16:  ES64L-G16RevC.01  3-Jul-2019

 ----------------------------------------------------------------------
 #P M062X/Def2TZVPP Symm(None) scf(xqc) pop(None) freq opt(CalcFC, Tigh
 t)
 ----------------------------------------------------------------------

 ------------------------------
 Gaussian input prepared by ASE
 ------------------------------
 Symbolic Z-matrix:
 Charge =  0 Multiplicity = 1

 SCF Done:  E(RM062X) =  -1124.68968724     A.U. after   14 cycles
 SCF Done:  E(RM062X) =  -1124.69570651     A.U. after   14 cycles
 SCF Done:  E(RM062X) =  -1124.68130868     A.U. after   13 cycles
 SCF Done:  E(RM062X) =  -1124.69546198     A.U. after   15 cycles
 SCF Done:  E(RM062X) =  -1124.69594239     A.U. after   12 cycles
 SCF Done:  E(RM062X) =  -1124.68831604     A.U. after   13 cycles
 SCF Done:  E(RM062X) =  -1124.69676510     A.U. after   13 cycles
 SCF Done:  E(RM062X) =  -1124.69709756     A.U. after   12 cycles
 SCF Done:  E(RM062X) =  -1124.69736131     A.U. after   13 cycles
 SCF Done:  E(RM062X) =  -1124.69752492     A.U. after   12 cycles
 SCF Done:  E(RM062X) =  -1124.69890104     A.U. after   13 cycles
 SCF Done:  E(RM062X) =  -1124.69895537     A.U. after   10 cycles
 SCF Done:  E(RM062X) =  -1124.69895436     A.U. after   12 cycles
 SCF Done:  E(RM062X) =  -1124.69895284     A.U. after   12 cycles
 SCF Done:  E(RM062X) =  -1124.69896258     A.U. after   11 cycles
 SCF Done:  E(RM062X) =  -1124.69896349     A.U. after    8 cycles
 SCF Done:  E(RM062X) =  -1124.69896356     A.U. after    7 cycles
 SCF Done:  E(RM062X) =  -1124.69896357     A.U. after    5 cycles
 SCF Done:  E(RM062X) =  -1124.69896357     A.U. after    5 cycles
 Optimization completed.
    -- Stationary point found.
 Normal termination of Gaussian 16 at Sat May 24 01:13:18 2025.

 ---------------------------------------------------------------------
 #P Geom=AllCheck Guess=TCheck SCRF=Check GenChk RM062X/def2TZVPP Freq
 ---------------------------------------------------------------------

 Structure from the checkpoint file:  "/tmp/Gau-177987.chk"
 ------------------------------
 Gaussian input prepared by ASE
 ------------------------------
 Charge =  0 Multiplicity = 1

                          Input orientation:
 ---------------------------------------------------------------------
 Center     Atomic      Atomic             Coordinates (Angstroms)
 Number     Number       Type             X           Y           Z
 ---------------------------------------------------------------------
      1          6           0       -0.741195    0.496454    1.297977
      2          6           0       -0.097289    0.044820   -0.029795
      3          9           0       -0.489742   -1.211816   -0.277087
      4          9           0       -0.502788    0.833685   -1.017107
      5         16           0        1.777379   -0.039962   -0.013625
      6          8           0        2.112164   -0.233174   -1.406884
      7          8           0        1.851718    1.542508    0.355653
      8          9           0       -0.088566   -0.070956    2.313292
      9          9           0       -0.698569    1.808226    1.439076
     10          9           0       -2.007668    0.107373    1.340879
     11          1           0        2.721043    1.750865    0.718214
 ---------------------------------------------------------------------

 SCF Done:  E(RM062X) =  -1124.69896357     A.U. after    1 cycles

 Isotropic polarizability for W=    0.000000       52.72 Bohr**3.
 End of Minotr F.D. properties file   721 does not exist.

                      1                      2                      3
                      A                      A                      A
 Frequencies --     39.6525                67.0272               142.2939
 Red. masses --     10.4602                17.4984                11.8529
 Frc consts  --      0.0097                 0.0463                 0.1414
 IR Inten    --      3.6104                 0.9653                 4.6290

                      4                      5                      6
                      A                      A                      A
 Frequencies --    203.3253               228.5098               236.4741
 Red. masses --      3.3230                 6.0628                 5.3518
 Frc consts  --      0.0809                 0.1865                 0.1763
 IR Inten    --     29.2777                20.6595                17.6230

                      7                      8                      9
                      A                      A                      A
 Frequencies --    255.2992               281.2852               334.2503
 Red. masses --      2.6065                15.1458                 8.6414
 Frc consts  --      0.1001                 0.7061                 0.5688
 IR Inten    --     31.2477                 0.7874                 3.4298

                     10                     11                     12
                      A                      A                      A
 Frequencies --    376.6385               424.8472               432.2370
 Red. masses --     13.1816                17.5412                16.4461
 Frc consts  --      1.1017                 1.8654                 1.8103
 IR Inten    --      0.5611                15.9433                16.0947

                     13                     14                     15
                      A                      A                      A
 Frequencies --    529.0168               555.3137               608.5194
 Red. masses --     14.4109                16.3093                16.4098
 Frc consts  --      2.3762                 2.9632                 3.5802
 IR Inten    --     21.4283                 1.0768                 4.5503

                     16                     17                     18
                      A                      A                      A
 Frequencies --    662.8144               772.5435               818.4015
 Red. masses --     16.5034                16.7007                15.9398
 Frc consts  --      4.2718                 5.8726                 6.2902
 IR Inten    --     20.2789                17.9491               123.0427

                     19                     20                     21
                      A                      A                      A
 Frequencies --    999.7335              1131.1172              1187.6010
 Red. masses --     12.2045                 1.1682                13.7834
 Frc consts  --      7.1868                 0.8806                11.4537
 IR Inten    --    105.9596               132.3862               124.6406

                     22                     23                     24
                      A                      A                      A
 Frequencies --   1264.4460              1270.4049              1273.7316
 Red. masses --     12.7134                17.7578                10.4447
 Frc consts  --     11.9760                16.8859                 9.9839
 IR Inten    --    259.8116               263.5859                47.0485

                     25                     26                     27
                      A                      A                      A
 Frequencies --   1299.8648              1395.4338              3846.0853
 Red. masses --     13.2634                12.7341                 1.0668
 Frc consts  --     13.2038                14.6095                 9.2980
 IR Inten    --    295.5257               109.0104               177.9996

 - Thermochemistry -
 -------------------
 Temperature   298.150 Kelvin.  Pressure   1.00000 Atm.
 Atom     1 has atomic number  6 and mass  12.00000

 Molecular mass:   183.96174 amu.
 Principal axes and moments of inertia in atomic units:
                           1         2         3
     Eigenvalues --   963.489141836.167002076.25274
           X            0.82330   0.47406  -0.31216
           Y           -0.08508   0.64681   0.75789
           Z           -0.56119   0.59742  -0.57285
 This molecule is an asymmetric top.
 Rotational symmetry number  1.
 Warning -- assumption of classical behavior for rotation
           may cause significant error
 Rotational temperatures (Kelvin)      0.08990     0.04717     0.04172
 Rotational constants (GHZ):           1.87313     0.98289     0.86923
 Zero-point vibrational energy     123435.9 (Joules/Mol)
                                   29.50188 (Kcal/Mol)
 Warning -- explicit consideration of  15 degrees of freedom as
           vibrations may cause significant error
 Vibrational temperatures:     57.05    96.44   204.73   292.54   328.77
          (Kelvin)            340.23   367.32   404.71   480.91   541.90
                              611.26   621.89   761.14   798.97   875.52
                              953.64  1111.52  1177.50  1438.39  1627.43
                             1708.69  1819.26  1827.83  1832.62  1870.22
                             2007.72  5533.66

 Zero-point correction=                           0.047014 (Hartree/Particle)
 Thermal correction to Energy=                    0.056906
 Thermal correction to Enthalpy=                  0.057850
 Thermal correction to Gibbs Free Energy=         0.010700
 Sum of electronic and zero-point Energies=          -1124.651949
 Sum of electronic and thermal Energies=             -1124.642058
 Sum of electronic and thermal Enthalpies=           -1124.641113
 Sum of electronic and thermal Free Energies=        -1124.688264

                     E (Thermal)             CV                S
                      KCal/Mol        Cal/Mol-Kelvin    Cal/Mol-Kelvin
 Total                   35.709             33.786             99.236
 Electronic               0.000              0.000              0.000
 Translational            0.889              2.981             41.535
 Rotational               0.889              2.981             29.686
 Vibrational             33.932             27.824             28.015
 Vibration     1          0.594              1.981              5.276
 Vibration     2          0.598              1.970              4.239
 Vibration     3          0.616              1.911              2.773
 Vibration     4          0.639              1.835              2.103
 Vibration     5          0.651              1.798              1.891
 Vibration     6          0.655              1.785              1.829
 Vibration     7          0.666              1.754              1.694
 Vibration     8          0.681              1.708              1.526
 Vibration     9          0.716              1.607              1.239
 Vibration    10          0.747              1.520              1.053
 Vibration    11          0.787              1.416              0.876
 Vibration    12          0.793              1.400              0.851
 Vibration    13          0.884              1.186              0.589
 Vibration    14          0.911              1.128              0.533
 Vibration    15          0.967              1.014              0.435

 Optimization completed.
    -- Stationary point found.
 Normal termination of Gaussian 16 at Sat May 24 01:16:32 2025.
