 Gaussian 16, Revision C.01,
 Gaussian 16:  ES64L-G16RevC.01  3-Jul-2019

 ----------------------------------------------------------------------
 #P M062X/Def2TZVPP Symm(None) scf(xqc) pop(None) freq opt(CalcFC, Tigh
 t)
 ----------------------------------------------------------------------

 ------------------------------
 Gaussian input prepared by ASE
 ------------------------------
 Symbolic Z-matrix:
 Charge =  0 Multiplicity = 1

 SCF Done:  E(RM062X) =  -1124.69025587     A.U. after   14 cycles
 SCF Done:  E(RM062X) =  -1124.69595970     A.U. after   14 cycles
 SCF Done:  E(RM062X) =  -1124.69529266     A.U. after   13 cycles
 SCF Done:  E(RM062X) =  -1124.69616008     A.U. after   14 cycles
 SCF Done:  E(RM062X) =  -1124.69698095     A.U. after   13 cycles
 SCF Done:  E(RM062X) =  -1124.69728243     A.U. after   15 cycles
 SCF Done:  E(RM062X) =  -1124.69725813     A.U. after   15 cycles
 SCF Done:  E(RM062X) =  -1124.69773617     A.U. after   13 cycles
 SCF Done:  E(RM062X) =  -1124.69797424     A.U. after   12 cycles
 SCF Done:  E(RM062X) =  -1124.69803038     A.U. after   12 cycles
 SCF Done:  E(RM062X) =  -1124.69804779     A.U. after   10 cycles
 SCF Done:  E(RM062X) =  -1124.69805489     A.U. after   10 cycles
 SCF Done:  E(RM062X) =  -1124.69806477     A.U. after   10 cycles
 SCF Done:  E(RM062X) =  -1124.69806578     A.U. after   11 cycles
 SCF Done:  E(RM062X) =  -1124.69806872     A.U. after   12 cycles
 SCF Done:  E(RM062X) =  -1124.69807024     A.U. after    9 cycles
 SCF Done:  E(RM062X) =  -1124.69807046     A.U. after    8 cycles
 SCF Done:  E(RM062X) =  -1124.69807048     A.U. after    7 cycles
 SCF Done:  E(RM062X) =  -1124.69807048     A.U. after    4 cycles
 Optimization completed.
    -- Stationary point found.
 Normal termination of Gaussian 16 at Sat May 24 01:13:14 2025.

 ---------------------------------------------------------------------
 #P Geom=AllCheck Guess=TCheck SCRF=Check GenChk RM062X/def2TZVPP Freq
 ---------------------------------------------------------------------

 Structure from the checkpoint file:  "/tmp/Gau-6288.chk"
 ------------------------------
 Gaussian input prepared by ASE
 ------------------------------
 Charge =  0 Multiplicity = 1

                          Input orientation:
 ---------------------------------------------------------------------
 Center     Atomic      Atomic             Coordinates (Angstroms)
 Number     Number       Type             X           Y           Z
 ---------------------------------------------------------------------
      1          6           0       -0.717393    0.799636   -1.241576
      2          6           0       -0.066244    0.022616   -0.075856
      3          9           0       -0.580267    0.445719    1.080833
      4          9           0       -0.356669   -1.276833   -0.227846
      5         16           0        1.800845    0.103675    0.020629
      6          8           0        2.257791    0.028694   -1.350312
      7          8           0        1.778274    1.652430    0.501064
      8          9           0       -0.320097    2.061877   -1.244706
      9          9           0       -0.414686    0.239577   -2.397922
     10          9           0       -2.038271    0.770606   -1.088047
     11          1           0        2.493204    1.802845    1.130365
 ---------------------------------------------------------------------

 SCF Done:  E(RM062X) =  -1124.69807048     A.U. after    1 cycles

 Isotropic polarizability for W=    0.000000       52.56 Bohr**3.
 End of Minotr F.D. properties file   721 does not exist.

                      1                      2                      3
                      A                      A                      A
 Frequencies --     30.9377                81.2218               143.5486
 Red. masses --     12.7114                13.0204                 5.6101
 Frc consts  --      0.0072                 0.0506                 0.0681
 IR Inten    --      2.9574                 3.6752                12.0244

                      4                      5                      6
                      A                      A                      A
 Frequencies --    163.8676               204.6390               222.0931
 Red. masses --      1.8356                 6.6521                16.4065
 Frc consts  --      0.0290                 0.1641                 0.4768
 IR Inten    --     72.0170                 9.1864                 2.3232

                      7                      8                      9
                      A                      A                      A
 Frequencies --    256.0208               307.6216               338.7822
 Red. masses --      8.7264                12.1949                 6.9079
 Frc consts  --      0.3370                 0.6799                 0.4671
 IR Inten    --      4.4566                 4.7393                 5.9517

                     10                     11                     12
                      A                      A                      A
 Frequencies --    366.8342               428.7240               460.2155
 Red. masses --     18.4942                12.3209                13.5083
 Frc consts  --      1.4663                 1.3343                 1.6857
 IR Inten    --      1.4522                25.4094                 9.0332

                     13                     14                     15
                      A                      A                      A
 Frequencies --    476.0791               552.6541               605.3170
 Red. masses --     12.5447                17.6348                17.2224
 Frc consts  --      1.6752                 3.1734                 3.7180
 IR Inten    --     20.5445                 5.3117                 1.1544

                     16                     17                     18
                      A                      A                      A
 Frequencies --    655.3284               776.4163               822.7895
 Red. masses --     16.1368                16.6669                15.7636
 Frc consts  --      4.0831                 5.9196                 6.2876
 IR Inten    --      4.6141                16.9736               124.5434

                     19                     20                     21
                      A                      A                      A
 Frequencies --   1016.8362              1139.9947              1185.8912
 Red. masses --      8.2420                 1.2152                13.6203
 Frc consts  --      5.0209                 0.9304                11.2856
 IR Inten    --     81.5661               138.4574               172.3354

                     22                     23                     24
                      A                      A                      A
 Frequencies --   1240.9931              1261.8498              1284.2732
 Red. masses --     14.7316                11.7328                14.1384
 Frc consts  --     13.3671                11.0069                13.7394
 IR Inten    --     21.3549                90.7327               316.2329

                     25                     26                     27
                      A                      A                      A
 Frequencies --   1309.7524              1379.7093              3852.5328
 Red. masses --     13.2455                12.3699                 1.0670
 Frc consts  --     13.3874                13.8737                 9.3307
 IR Inten    --    350.7486               131.8759               186.8445

 - Thermochemistry -
 -------------------
 Temperature   298.150 Kelvin.  Pressure   1.00000 Atm.
 Atom     1 has atomic number  6 and mass  12.00000

 Molecular mass:   183.96174 amu.
 Principal axes and moments of inertia in atomic units:
                           1         2         3
     Eigenvalues --  1077.666591765.762011842.60905
           X            0.93612  -0.34240  -0.08032
           Y           -0.06119  -0.38346   0.92153
           Z            0.34633   0.85774   0.37991
 This molecule is an asymmetric top.
 Rotational symmetry number  1.
 Warning -- assumption of classical behavior for rotation
           may cause significant error
 Rotational temperatures (Kelvin)      0.08037     0.04905     0.04701
 Rotational constants (GHZ):           1.67467     1.02207     0.97945
 Zero-point vibrational energy     123005.6 (Joules/Mol)
                                   29.39903 (Kcal/Mol)
 Warning -- explicit consideration of  15 degrees of freedom as
           vibrations may cause significant error
 Vibrational temperatures:     44.51   116.86   206.53   235.77   294.43
          (Kelvin)            319.54   368.36   442.60   487.43   527.79
                              616.84   662.15   684.97   795.15   870.92
                              942.87  1117.09  1183.81  1463.00  1640.20
                             1706.23  1785.51  1815.52  1847.78  1884.44
                             1985.09  5542.94

 Zero-point correction=                           0.046850 (Hartree/Particle)
 Thermal correction to Energy=                    0.056836
 Thermal correction to Enthalpy=                  0.057780
 Thermal correction to Gibbs Free Energy=         0.010311
 Sum of electronic and zero-point Energies=          -1124.651220
 Sum of electronic and thermal Energies=             -1124.641234
 Sum of electronic and thermal Enthalpies=           -1124.640290
 Sum of electronic and thermal Free Energies=        -1124.687760

                     E (Thermal)             CV                S
                      KCal/Mol        Cal/Mol-Kelvin    Cal/Mol-Kelvin
 Total                   35.665             33.900             99.908
 Electronic               0.000              0.000              0.000
 Translational            0.889              2.981             41.535
 Rotational               0.889              2.981             29.640
 Vibrational             33.888             27.939             28.733
 Vibration     1          0.594              1.984              5.768
 Vibration     2          0.600              1.962              3.861
 Vibration     3          0.616              1.910              2.756
 Vibration     4          0.623              1.887              2.505
 Vibration     5          0.640              1.833              2.091
 Vibration     6          0.648              1.807              1.942
 Vibration     7          0.666              1.753              1.689
 Vibration     8          0.697              1.659              1.375
 Vibration     9          0.719              1.598              1.218
 Vibration    10          0.740              1.540              1.093
 Vibration    11          0.790              1.408              0.863
 Vibration    12          0.818              1.338              0.765
 Vibration    13          0.833              1.303              0.721
 Vibration    14          0.908              1.134              0.539
 Vibration    15          0.964              1.021              0.441

 Optimization completed.
    -- Stationary point found.
 Normal termination of Gaussian 16 at Sat May 24 01:16:47 2025.
