 Gaussian 16, Revision C.01,
 Gaussian 16:  ES64L-G16RevC.01  3-Jul-2019

 ----------------------------------------------------------------------
 #P M062X/Def2TZVPP Symm(None) scf(xqc) pop(None) freq opt(CalcFC, Tigh
 t)
 ----------------------------------------------------------------------

 ------------------------------
 Gaussian input prepared by ASE
 ------------------------------
 Symbolic Z-matrix:
 Charge =  0 Multiplicity = 1

 SCF Done:  E(RM062X) =  -1124.69419435     A.U. after   14 cycles
 SCF Done:  E(RM062X) =  -1124.69834011     A.U. after   14 cycles
 SCF Done:  E(RM062X) =  -1124.69722700     A.U. after   15 cycles
 SCF Done:  E(RM062X) =  -1124.69785418     A.U. after   14 cycles
 SCF Done:  E(RM062X) =  -1124.69870231     A.U. after   12 cycles
 SCF Done:  E(RM062X) =  -1124.69841354     A.U. after   13 cycles
 SCF Done:  E(RM062X) =  -1124.69892437     A.U. after   12 cycles
 SCF Done:  E(RM062X) =  -1124.69894821     A.U. after   12 cycles
 SCF Done:  E(RM062X) =  -1124.69896728     A.U. after   12 cycles
 SCF Done:  E(RM062X) =  -1124.69896969     A.U. after    8 cycles
 SCF Done:  E(RM062X) =  -1124.69897000     A.U. after    8 cycles
 SCF Done:  E(RM062X) =  -1124.69897002     A.U. after    8 cycles
 SCF Done:  E(RM062X) =  -1124.69897002     A.U. after    5 cycles
 SCF Done:  E(RM062X) =  -1124.69897002     A.U. after    4 cycles
 SCF Done:  E(RM062X) =  -1124.69897002     A.U. after    4 cycles
 SCF Done:  E(RM062X) =  -1124.69897002     A.U. after    4 cycles
 Optimization completed.
    -- Stationary point found.
 Normal termination of Gaussian 16 at Sat May 24 01:09:54 2025.

 ---------------------------------------------------------------------
 #P Geom=AllCheck Guess=TCheck SCRF=Check GenChk RM062X/def2TZVPP Freq
 ---------------------------------------------------------------------

 Structure from the checkpoint file:  "/tmp/Gau-277574.chk"
 ------------------------------
 Gaussian input prepared by ASE
 ------------------------------
 Charge =  0 Multiplicity = 1

                          Input orientation:
 ---------------------------------------------------------------------
 Center     Atomic      Atomic             Coordinates (Angstroms)
 Number     Number       Type             X           Y           Z
 ---------------------------------------------------------------------
      1          6           0       -0.564650    0.574680    1.283183
      2          6           0       -0.017220    0.059018   -0.064349
      3          9           0       -0.501001   -1.173652   -0.266517
      4          9           0       -0.419493    0.855237   -1.047061
      5         16           0        1.846705   -0.146761   -0.136022
      6          8           0        2.100690   -0.383529   -1.539641
      7          8           0        2.039773    1.433246    0.198870
      8          9           0        0.097890   -0.017978    2.277447
      9          9           0       -0.428919    1.882879    1.395933
     10          9           0       -1.850394    0.271772    1.393937
     11          1           0        2.937259    1.590812    0.515546
 ---------------------------------------------------------------------

 SCF Done:  E(RM062X) =  -1124.69897002     A.U. after    1 cycles

 Isotropic polarizability for W=    0.000000       52.74 Bohr**3.
 End of Minotr F.D. properties file   721 does not exist.

                      1                      2                      3
                      A                      A                      A
 Frequencies --     38.5043                67.6247               143.6425
 Red. masses --     10.6167                17.6626                12.3184
 Frc consts  --      0.0093                 0.0476                 0.1498
 IR Inten    --      3.5594                 0.9043                 4.4026

                      4                      5                      6
                      A                      A                      A
 Frequencies --    207.9085               229.4818               237.8914
 Red. masses --      4.8555                10.2711                 5.7938
 Frc consts  --      0.1237                 0.3187                 0.1932
 IR Inten    --     16.1278                10.4283                18.4720

                      7                      8                      9
                      A                      A                      A
 Frequencies --    261.3495               281.3365               334.5817
 Red. masses --      1.8266                14.8329                 7.7606
 Frc consts  --      0.0735                 0.6917                 0.5119
 IR Inten    --     52.2599                 0.8217                 4.4345

                     10                     11                     12
                      A                      A                      A
 Frequencies --    376.7752               424.9388               432.1947
 Red. masses --     12.6778                17.4259                16.5224
 Frc consts  --      1.0604                 1.8540                 1.8184
 IR Inten    --      0.6969                16.5683                15.8392

                     13                     14                     15
                      A                      A                      A
 Frequencies --    528.9858               555.5947               608.5086
 Red. masses --     14.3701                16.2392                16.4015
 Frc consts  --      2.3692                 2.9535                 3.5782
 IR Inten    --     21.3546                 1.0994                 4.5678

                     16                     17                     18
                      A                      A                      A
 Frequencies --    662.8020               772.4822               818.7468
 Red. masses --     16.4865                16.6943                15.9559
 Frc consts  --      4.2672                 5.8694                 6.3019
 IR Inten    --     20.2802                17.8894               123.1875

                     19                     20                     21
                      A                      A                      A
 Frequencies --    999.9832              1130.2471              1187.5980
 Red. masses --     12.1489                 1.1685                13.7810
 Frc consts  --      7.1577                 0.8795                11.4517
 IR Inten    --    105.7598               131.4739               124.3173

                     22                     23                     24
                      A                      A                      A
 Frequencies --   1264.2223              1270.3204              1273.4085
 Red. masses --     12.6986                17.6681                10.5005
 Frc consts  --     11.9578                16.7984                10.0322
 IR Inten    --    259.5048               266.2766                45.8145

                     25                     26                     27
                      A                      A                      A
 Frequencies --   1299.6642              1394.3281              3846.3827
 Red. masses --     13.2648                12.7396                 1.0668
 Frc consts  --     13.2012                14.5927                 9.2995
 IR Inten    --    295.5771               108.7059               178.3124

 - Thermochemistry -
 -------------------
 Temperature   298.150 Kelvin.  Pressure   1.00000 Atm.
 Atom     1 has atomic number  6 and mass  12.00000

 Molecular mass:   183.96174 amu.
 Principal axes and moments of inertia in atomic units:
                           1         2         3
     Eigenvalues --   963.527211835.771292076.01683
           X            0.78770   0.54329  -0.29044
           Y           -0.14796   0.62450   0.76689
           Z           -0.59803   0.56110  -0.57230
 This molecule is an asymmetric top.
 Rotational symmetry number  1.
 Warning -- assumption of classical behavior for rotation
           may cause significant error
 Rotational temperatures (Kelvin)      0.08989     0.04718     0.04172
 Rotational constants (GHZ):           1.87306     0.98310     0.86933
 Zero-point vibrational energy     123511.5 (Joules/Mol)
                                   29.51995 (Kcal/Mol)
 Warning -- explicit consideration of  15 degrees of freedom as
           vibrations may cause significant error
 Vibrational temperatures:     55.40    97.30   206.67   299.13   330.17
          (Kelvin)            342.27   376.02   404.78   481.39   542.10
                              611.39   621.83   761.09   799.38   875.51
                              953.62  1111.43  1177.99  1438.75  1626.17
                             1708.69  1818.93  1827.71  1832.15  1869.93
                             2006.13  5534.09

 Zero-point correction=                           0.047043 (Hartree/Particle)
 Thermal correction to Energy=                    0.056914
 Thermal correction to Enthalpy=                  0.057858
 Thermal correction to Gibbs Free Energy=         0.010746
 Sum of electronic and zero-point Energies=          -1124.651927
 Sum of electronic and thermal Energies=             -1124.642056
 Sum of electronic and thermal Enthalpies=           -1124.641112
 Sum of electronic and thermal Free Energies=        -1124.688224

                     E (Thermal)             CV                S
                      KCal/Mol        Cal/Mol-Kelvin    Cal/Mol-Kelvin
 Total                   35.714             33.763             99.156
 Electronic               0.000              0.000              0.000
 Translational            0.889              2.981             41.535
 Rotational               0.889              2.981             29.686
 Vibrational             33.937             27.801             27.935
 Vibration     1          0.594              1.981              5.335
 Vibration     2          0.598              1.970              4.221
 Vibration     3          0.616              1.910              2.755
 Vibration     4          0.641              1.829              2.062
 Vibration     5          0.652              1.796              1.883
 Vibration     6          0.656              1.783              1.819
 Vibration     7          0.669              1.743              1.653
 Vibration     8          0.681              1.708              1.526
 Vibration     9          0.716              1.606              1.238
 Vibration    10          0.747              1.520              1.052
 Vibration    11          0.787              1.416              0.875
 Vibration    12          0.793              1.400              0.852
 Vibration    13          0.884              1.186              0.589
 Vibration    14          0.911              1.127              0.533
 Vibration    15          0.967              1.014              0.435

 Optimization completed.
    -- Stationary point found.
 Normal termination of Gaussian 16 at Sat May 24 01:13:22 2025.
