 Gaussian 16, Revision C.01,
 Gaussian 16:  ES64L-G16RevC.01  3-Jul-2019

 ----------------------------------------------------------------------
 #P M062X/Def2TZVPP Symm(None) scf(xqc) pop(None) freq opt(CalcFC, Tigh
 t)
 ----------------------------------------------------------------------

 ------------------------------
 Gaussian input prepared by ASE
 ------------------------------
 Symbolic Z-matrix:
 Charge =  0 Multiplicity = 1

 SCF Done:  E(RM062X) =  -1124.70372137     A.U. after   14 cycles
 SCF Done:  E(RM062X) =  -1124.70372158     A.U. after    8 cycles
 Optimization completed.
    -- Stationary point found.
 Normal termination of Gaussian 16 at Sat May 24 01:03:51 2025.

 ---------------------------------------------------------------------
 #P Geom=AllCheck Guess=TCheck SCRF=Check GenChk RM062X/def2TZVPP Freq
 ---------------------------------------------------------------------

 Structure from the checkpoint file:  "/tmp/Gau-167979.chk"
 ------------------------------
 Gaussian input prepared by ASE
 ------------------------------
 Charge =  0 Multiplicity = 1

                          Input orientation:
 ---------------------------------------------------------------------
 Center     Atomic      Atomic             Coordinates (Angstroms)
 Number     Number       Type             X           Y           Z
 ---------------------------------------------------------------------
      1          6           0       -0.594988   -1.396520   -0.251655
      2          6           0        0.000494   -0.000493   -0.000920
      3          9           0       -0.436386    0.840984   -0.947618
      4          9           0       -0.408975    0.435280    1.194317
      5         16           0        1.884191   -0.000746   -0.002023
      6          8           0        2.221742   -0.506794   -1.319109
      7          8           0        1.977869    1.601087    0.001895
      8          9           0       -0.425378   -1.767923   -1.505686
      9          9           0        0.010665   -2.270114    0.550567
     10          9           0       -1.892085   -1.394303    0.024565
     11          1           0        1.588224    1.967827   -0.808875
 ---------------------------------------------------------------------

 SCF Done:  E(RM062X) =  -1124.70372158     A.U. after    1 cycles

 Isotropic polarizability for W=    0.000000       52.26 Bohr**3.
 End of Minotr F.D. properties file   721 does not exist.

                      1                      2                      3
                      A                      A                      A
 Frequencies --     50.6134                69.4871               127.5847
 Red. masses --     14.7707                13.0602                15.6661
 Frc consts  --      0.0223                 0.0372                 0.1502
 IR Inten    --      0.7375                 0.4870                 0.5799

                      4                      5                      6
                      A                      A                      A
 Frequencies --    204.2359               228.2573               246.9063
 Red. masses --     14.5191                18.2467                 4.6228
 Frc consts  --      0.3568                 0.5601                 0.1660
 IR Inten    --      5.2546                 1.7392                13.7586

                      7                      8                      9
                      A                      A                      A
 Frequencies --    279.3255               324.4162               353.9191
 Red. masses --     16.1731                13.2232                 2.3304
 Frc consts  --      0.7435                 0.8200                 0.1720
 IR Inten    --      0.8599                 0.5083                23.4335

                     10                     11                     12
                      A                      A                      A
 Frequencies --    380.4939               420.6320               502.5211
 Red. masses --      9.8940                14.5158                 2.5920
 Frc consts  --      0.8440                 1.5132                 0.3857
 IR Inten    --      4.5985                10.3270               136.6206

                     13                     14                     15
                      A                      A                      A
 Frequencies --    528.3622               557.2425               611.9342
 Red. masses --     10.9712                17.1627                16.3151
 Frc consts  --      1.8045                 3.1400                 3.5996
 IR Inten    --     17.2971                 7.1648                 8.0794

                     16                     17                     18
                      A                      A                      A
 Frequencies --    652.0582               772.0801               842.7491
 Red. masses --     15.9165                17.0502                16.7476
 Frc consts  --      3.9872                 5.9883                 7.0081
 IR Inten    --     19.7857                21.7798               180.7575

                     19                     20                     21
                      A                      A                      A
 Frequencies --    998.9734              1143.3927              1191.8715
 Red. masses --     13.5066                 1.3003                12.4534
 Frc consts  --      7.9415                 1.0016                10.4231
 IR Inten    --     78.2754                70.0292               173.7505

                     22                     23                     24
                      A                      A                      A
 Frequencies --   1242.4289              1260.5463              1274.6346
 Red. masses --     12.5499                 7.8713                13.3452
 Frc consts  --     11.4138                 7.3691                12.7746
 IR Inten    --     40.9767               122.7281               231.5473

                     25                     26                     27
                      A                      A                      A
 Frequencies --   1307.4106              1397.5241              3745.8254
 Red. masses --     12.6188                12.6124                 1.0647
 Frc consts  --     12.7085                14.5133                 8.8017
 IR Inten    --    389.1507               113.1927               102.8730

 - Thermochemistry -
 -------------------
 Temperature   298.150 Kelvin.  Pressure   1.00000 Atm.
 Atom     1 has atomic number  6 and mass  12.00000

 Molecular mass:   183.96174 amu.
 Principal axes and moments of inertia in atomic units:
                           1         2         3
     Eigenvalues --   965.645241837.606922093.78104
           X            0.79496  -0.53062   0.29406
           Y            0.60613   0.71487  -0.34865
           Z           -0.02521   0.45541   0.88993
 This molecule is an asymmetric top.
 Rotational symmetry number  1.
 Warning -- assumption of classical behavior for rotation
           may cause significant error
 Rotational temperatures (Kelvin)      0.08970     0.04713     0.04137
 Rotational constants (GHZ):           1.86895     0.98211     0.86195
 Zero-point vibrational energy     123905.8 (Joules/Mol)
                                   29.61419 (Kcal/Mol)
 Warning -- explicit consideration of  15 degrees of freedom as
           vibrations may cause significant error
 Vibrational temperatures:     72.82    99.98   183.57   293.85   328.41
          (Kelvin)            355.24   401.89   466.76   509.21   547.45
                              605.20   723.02   760.20   801.75   880.44
                              938.17  1110.85  1212.53  1437.30  1645.09
                             1714.84  1787.58  1813.64  1833.91  1881.07
                             2010.73  5389.41

 Zero-point correction=                           0.047193 (Hartree/Particle)
 Thermal correction to Energy=                    0.056898
 Thermal correction to Enthalpy=                  0.057842
 Thermal correction to Gibbs Free Energy=         0.011220
 Sum of electronic and zero-point Energies=          -1124.656528
 Sum of electronic and thermal Energies=             -1124.646823
 Sum of electronic and thermal Enthalpies=           -1124.645879
 Sum of electronic and thermal Free Energies=        -1124.692501

                     E (Thermal)             CV                S
                      KCal/Mol        Cal/Mol-Kelvin    Cal/Mol-Kelvin
 Total                   35.704             33.435             98.124
 Electronic               0.000              0.000              0.000
 Translational            0.889              2.981             41.535
 Rotational               0.889              2.981             29.698
 Vibrational             33.927             27.473             26.891
 Vibration     1          0.595              1.977              4.793
 Vibration     2          0.598              1.969              4.168
 Vibration     3          0.611              1.926              2.982
 Vibration     4          0.640              1.834              2.095
 Vibration     5          0.651              1.798              1.893
 Vibration     6          0.661              1.768              1.753
 Vibration     7          0.680              1.712              1.538
 Vibration     8          0.709              1.627              1.288
 Vibration     9          0.730              1.567              1.149
 Vibration    10          0.750              1.512              1.037
 Vibration    11          0.783              1.425              0.890
 Vibration    12          0.858              1.244              0.652
 Vibration    13          0.883              1.187              0.591
 Vibration    14          0.913              1.124              0.529
 Vibration    15          0.971              1.007              0.430

 Optimization completed.
    -- Stationary point found.
 Normal termination of Gaussian 16 at Sat May 24 01:07:28 2025.
