 Gaussian 16, Revision C.01,
 Gaussian 16:  ES64L-G16RevC.01  3-Jul-2019

 ----------------------------------------------------------------------
 #P M062X/Def2TZVPP Symm(None) scf(xqc) pop(None) freq opt(CalcFC, Tigh
 t)
 ----------------------------------------------------------------------

 ------------------------------
 Gaussian input prepared by ASE
 ------------------------------
 Symbolic Z-matrix:
 Charge =  0 Multiplicity = 1

 SCF Done:  E(RM062X) =  -1124.70009330     A.U. after   14 cycles
 SCF Done:  E(RM062X) =  -1124.70278722     A.U. after   15 cycles
 SCF Done:  E(RM062X) =  -1124.70229172     A.U. after   13 cycles
 SCF Done:  E(RM062X) =  -1124.70296531     A.U. after   12 cycles
 SCF Done:  E(RM062X) =  -1124.70298226     A.U. after   11 cycles
 SCF Done:  E(RM062X) =  -1124.70298739     A.U. after   12 cycles
 SCF Done:  E(RM062X) =  -1124.70298859     A.U. after    9 cycles
 SCF Done:  E(RM062X) =  -1124.70298962     A.U. after   10 cycles
 SCF Done:  E(RM062X) =  -1124.70298976     A.U. after    8 cycles
 SCF Done:  E(RM062X) =  -1124.70298977     A.U. after    5 cycles
 SCF Done:  E(RM062X) =  -1124.70298977     A.U. after    4 cycles
 SCF Done:  E(RM062X) =  -1124.70298977     A.U. after    5 cycles
 Optimization completed.
    -- Stationary point found.
 Normal termination of Gaussian 16 at Sat May 24 01:07:00 2025.

 ---------------------------------------------------------------------
 #P Geom=AllCheck Guess=TCheck SCRF=Check GenChk RM062X/def2TZVPP Freq
 ---------------------------------------------------------------------

 Structure from the checkpoint file:  "/tmp/Gau-189960.chk"
 ------------------------------
 Gaussian input prepared by ASE
 ------------------------------
 Charge =  0 Multiplicity = 1

                          Input orientation:
 ---------------------------------------------------------------------
 Center     Atomic      Atomic             Coordinates (Angstroms)
 Number     Number       Type             X           Y           Z
 ---------------------------------------------------------------------
      1          6           0       -0.633252    0.492383    1.333425
      2          6           0       -0.007670    0.068575   -0.004537
      3          9           0       -0.468945   -1.139957   -0.323271
      4          9           0       -0.370918    0.943534   -0.954242
      5         16           0        1.880162   -0.050420    0.009119
      6          8           0        2.141774   -0.596291   -1.308081
      7          8           0        2.112822    1.537026   -0.005244
      8          9           0       -0.216187   -0.330408    2.290356
      9          9           0       -0.276971    1.729801    1.646222
     10          9           0       -1.954831    0.433588    1.263246
     11          1           0        1.719391    1.934982   -0.799153
 ---------------------------------------------------------------------

 SCF Done:  E(RM062X) =  -1124.70298977     A.U. after    1 cycles

 Isotropic polarizability for W=    0.000000       52.43 Bohr**3.
 End of Minotr F.D. properties file   721 does not exist.

                      1                      2                      3
                      A                      A                      A
 Frequencies --     24.2343                69.1884               130.3169
 Red. masses --     12.1589                15.6278                17.2494
 Frc consts  --      0.0042                 0.0441                 0.1726
 IR Inten    --      1.0197                 0.5446                 2.5689

                      4                      5                      6
                      A                      A                      A
 Frequencies --    204.1330               228.6476               250.3759
 Red. masses --      6.7774                11.2985                12.9713
 Frc consts  --      0.1664                 0.3480                 0.4791
 IR Inten    --      8.5099                 0.7107                 4.5716

                      7                      8                      9
                      A                      A                      A
 Frequencies --    275.3238               317.0624               354.9966
 Red. masses --     11.3932                 5.8283                 3.3995
 Frc consts  --      0.5088                 0.3452                 0.2524
 IR Inten    --      2.5961                 8.5995                12.5465

                     10                     11                     12
                      A                      A                      A
 Frequencies --    380.6795               432.8094               496.8625
 Red. masses --      5.9215                18.2944                 2.6354
 Frc consts  --      0.5056                 2.0191                 0.3833
 IR Inten    --     10.8105                 8.8684               132.6349

                     13                     14                     15
                      A                      A                      A
 Frequencies --    516.6185               550.9680               607.6814
 Red. masses --     11.1213                15.9912                16.7223
 Frc consts  --      1.7488                 2.8601                 3.6383
 IR Inten    --     29.1612                 8.0711                 5.6115

                     16                     17                     18
                      A                      A                      A
 Frequencies --    661.9479               770.6052               843.1705
 Red. masses --     16.1799                16.9578                16.6825
 Frc consts  --      4.1771                 5.9331                 6.9878
 IR Inten    --     23.3627                16.7061               152.1431

                     19                     20                     21
                      A                      A                      A
 Frequencies --    994.8627              1139.6149              1188.2223
 Red. masses --     13.4629                 1.2735                13.6521
 Frc consts  --      7.8508                 0.9745                11.3565
 IR Inten    --     83.0346                67.1997               116.4224

                     22                     23                     24
                      A                      A                      A
 Frequencies --   1251.9807              1270.7696              1282.0290
 Red. masses --      9.5992                10.8956                12.8863
 Frc consts  --      8.8651                10.3666                12.4788
 IR Inten    --     73.1294               210.7067               243.1251

                     25                     26                     27
                      A                      A                      A
 Frequencies --   1291.7828              1400.4903              3743.2332
 Red. masses --     13.1306                12.6611                 1.0647
 Frc consts  --     12.9096                14.6313                 8.7899
 IR Inten    --    344.9978               107.7090               104.4474

 - Thermochemistry -
 -------------------
 Temperature   298.150 Kelvin.  Pressure   1.00000 Atm.
 Atom     1 has atomic number  6 and mass  12.00000

 Molecular mass:   183.96174 amu.
 Principal axes and moments of inertia in atomic units:
                           1         2         3
     Eigenvalues --   958.919391894.267832083.34705
           X            0.81498   0.45579  -0.35786
           Y           -0.10520   0.72365   0.68211
           Z           -0.56986   0.51826  -0.63770
 This molecule is an asymmetric top.
 Rotational symmetry number  1.
 Warning -- assumption of classical behavior for rotation
           may cause significant error
 Rotational temperatures (Kelvin)      0.09032     0.04572     0.04157
 Rotational constants (GHZ):           1.88206     0.95274     0.86627
 Zero-point vibrational energy     123685.5 (Joules/Mol)
                                   29.56155 (Kcal/Mol)
 Warning -- explicit consideration of  15 degrees of freedom as
           vibrations may cause significant error
 Vibrational temperatures:     34.87    99.55   187.50   293.70   328.97
          (Kelvin)            360.24   396.13   456.18   510.76   547.71
                              622.72   714.87   743.30   792.72   874.32
                              952.40  1108.73  1213.13  1431.39  1639.65
                             1709.59  1801.32  1828.35  1844.55  1858.59
                             2014.99  5385.68

 Zero-point correction=                           0.047109 (Hartree/Particle)
 Thermal correction to Energy=                    0.056877
 Thermal correction to Enthalpy=                  0.057822
 Thermal correction to Gibbs Free Energy=         0.010494
 Sum of electronic and zero-point Energies=          -1124.655880
 Sum of electronic and thermal Energies=             -1124.646112
 Sum of electronic and thermal Enthalpies=           -1124.645168
 Sum of electronic and thermal Free Energies=        -1124.692495

                     E (Thermal)             CV                S
                      KCal/Mol        Cal/Mol-Kelvin    Cal/Mol-Kelvin
 Total                   35.691             33.471             99.609
 Electronic               0.000              0.000              0.000
 Translational            0.889              2.981             41.535
 Rotational               0.889              2.981             29.716
 Vibrational             33.914             27.509             28.358
 Vibration     1          0.593              1.985              6.253
 Vibration     2          0.598              1.969              4.176
 Vibration     3          0.612              1.923              2.941
 Vibration     4          0.640              1.834              2.096
 Vibration     5          0.651              1.797              1.890
 Vibration     6          0.663              1.762              1.728
 Vibration     7          0.677              1.719              1.563
 Vibration     8          0.704              1.641              1.325
 Vibration     9          0.731              1.565              1.144
 Vibration    10          0.750              1.511              1.036
 Vibration    11          0.794              1.399              0.850
 Vibration    12          0.852              1.257              0.666
 Vibration    13          0.872              1.213              0.618
 Vibration    14          0.906              1.138              0.542
 Vibration    15          0.966              1.016              0.437

                           ! Non-Optimized Parameters !
 Normal termination of Gaussian 16 at Sat May 24 01:10:35 2025.
