 Gaussian 16, Revision C.01,
 Gaussian 16:  ES64L-G16RevC.01  3-Jul-2019

 ----------------------------------------------------------------------
 #P M062X/Def2TZVPP Symm(None) scf(xqc) pop(None) freq opt(CalcFC, Tigh
 t)
 ----------------------------------------------------------------------

 ------------------------------
 Gaussian input prepared by ASE
 ------------------------------
 Symbolic Z-matrix:
 Charge =  0 Multiplicity = 1

 SCF Done:  E(RM062X) =  -1124.69349657     A.U. after   14 cycles
 SCF Done:  E(RM062X) =  -1124.69753967     A.U. after   15 cycles
 SCF Done:  E(RM062X) =  -1124.64946096     A.U. after   14 cycles
 SCF Done:  E(RM062X) =  -1124.69802821     A.U. after   13 cycles
 SCF Done:  E(RM062X) =  -1124.69833563     A.U. after   12 cycles
 SCF Done:  E(RM062X) =  -1124.69869661     A.U. after   13 cycles
 SCF Done:  E(RM062X) =  -1124.69886712     A.U. after   13 cycles
 SCF Done:  E(RM062X) =  -1124.69891011     A.U. after   11 cycles
 SCF Done:  E(RM062X) =  -1124.69891374     A.U. after   11 cycles
 SCF Done:  E(RM062X) =  -1124.69891463     A.U. after   10 cycles
 SCF Done:  E(RM062X) =  -1124.69891479     A.U. after    8 cycles
 SCF Done:  E(RM062X) =  -1124.69891479     A.U. after    5 cycles
 Optimization completed.
    -- Stationary point found.
 Normal termination of Gaussian 16 at Sat May 24 01:09:51 2025.

 ---------------------------------------------------------------------
 #P Geom=AllCheck Guess=TCheck SCRF=Check GenChk RM062X/def2TZVPP Freq
 ---------------------------------------------------------------------

 Structure from the checkpoint file:  "/tmp/Gau-210721.chk"
 ------------------------------
 Gaussian input prepared by ASE
 ------------------------------
 Charge =  0 Multiplicity = 1

                          Input orientation:
 ---------------------------------------------------------------------
 Center     Atomic      Atomic             Coordinates (Angstroms)
 Number     Number       Type             X           Y           Z
 ---------------------------------------------------------------------
      1          6           0       -0.618636   -1.445489   -0.273202
      2          6           0       -0.117159   -0.009108   -0.032321
      3          9           0       -0.554765    0.775961   -1.010442
      4          9           0       -0.604671    0.416382    1.139961
      5         16           0        1.753570    0.059288    0.080289
      6          8           0        2.218078   -0.369260   -1.221122
      7          8           0        1.679507    1.680484    0.121725
      8          9           0       -0.334277   -1.849732   -1.496167
      9          9           0       -0.034297   -2.262085    0.602998
     10          9           0       -1.931175   -1.501060   -0.095025
     11          1           0        2.380313    2.018112    0.691513
 ---------------------------------------------------------------------

 SCF Done:  E(RM062X) =  -1124.69891479     A.U. after    1 cycles

 Isotropic polarizability for W=    0.000000       52.60 Bohr**3.
 End of Minotr F.D. properties file   721 does not exist.

                      1                      2                      3
                      A                      A                      A
 Frequencies --     44.2673                68.5450               128.9449
 Red. masses --     14.1268                11.2608                12.9012
 Frc consts  --      0.0163                 0.0312                 0.1264
 IR Inten    --      3.0875                 3.5594                 0.5258

                      4                      5                      6
                      A                      A                      A
 Frequencies --    194.0247               203.6054               228.0589
 Red. masses --      1.8055                13.7005                16.6037
 Frc consts  --      0.0400                 0.3346                 0.5088
 IR Inten    --     65.6725                10.2459                 3.3862

                      7                      8                      9
                      A                      A                      A
 Frequencies --    267.5503               281.6536               332.8001
 Red. masses --      3.2744                12.3316                 9.0505
 Frc consts  --      0.1381                 0.5764                 0.5906
 IR Inten    --     27.6640                 0.5503                 4.2274

                     10                     11                     12
                      A                      A                      A
 Frequencies --    378.3840               423.1245               433.2343
 Red. masses --     14.5640                13.7999                12.1581
 Frc consts  --      1.2286                 1.4557                 1.3445
 IR Inten    --      2.0462                 9.7606                13.4136

                     13                     14                     15
                      A                      A                      A
 Frequencies --    528.1719               555.7617               612.0846
 Red. masses --     14.9058                16.8344                16.9101
 Frc consts  --      2.4499                 3.0636                 3.7327
 IR Inten    --     17.4664                 4.5615                 6.1308

                     16                     17                     18
                      A                      A                      A
 Frequencies --    655.2532               773.1454               817.3798
 Red. masses --     14.7960                16.9590                15.7007
 Frc consts  --      3.7429                 5.9727                 6.1804
 IR Inten    --     28.5094                23.0172               141.8388

                     19                     20                     21
                      A                      A                      A
 Frequencies --    997.8631              1129.8890              1195.4513
 Red. masses --     13.0209                 1.1864                11.7666
 Frc consts  --      7.6389                 0.8924                 9.9075
 IR Inten    --    102.6989               146.6141               143.7746

                     22                     23                     24
                      A                      A                      A
 Frequencies --   1261.7400              1268.4723              1276.9876
 Red. masses --     11.2049                13.3261                14.1024
 Frc consts  --     10.5099                12.6333                13.5492
 IR Inten    --     12.0740               249.5412               103.9586

                     25                     26                     27
                      A                      A                      A
 Frequencies --   1309.2438              1401.9135              3851.9283
 Red. masses --     13.5718                12.1072                 1.0670
 Frc consts  --     13.7065                14.0197                 9.3278
 IR Inten    --    409.4741               113.5188               191.7395

 - Thermochemistry -
 -------------------
 Temperature   298.150 Kelvin.  Pressure   1.00000 Atm.
 Atom     1 has atomic number  6 and mass  12.00000

 Molecular mass:   183.96174 amu.
 Principal axes and moments of inertia in atomic units:
                           1         2         3
     Eigenvalues --   968.438451829.795142089.07857
           X            0.76160  -0.59191   0.26383
           Y            0.64763   0.68072  -0.34232
           Z            0.02302   0.43158   0.90178
 This molecule is an asymmetric top.
 Rotational symmetry number  1.
 Warning -- assumption of classical behavior for rotation
           may cause significant error
 Rotational temperatures (Kelvin)      0.08944     0.04734     0.04146
 Rotational constants (GHZ):           1.86356     0.98631     0.86389
 Zero-point vibrational energy     123331.9 (Joules/Mol)
                                   29.47702 (Kcal/Mol)
 Warning -- explicit consideration of  15 degrees of freedom as
           vibrations may cause significant error
 Vibrational temperatures:     63.69    98.62   185.52   279.16   292.94
          (Kelvin)            328.13   384.95   405.24   478.83   544.41
                              608.78   623.33   759.92   799.62   880.65
                              942.76  1112.38  1176.03  1435.70  1625.66
                             1719.99  1815.36  1825.05  1837.30  1883.71
                             2017.04  5542.07

 Zero-point correction=                           0.046975 (Hartree/Particle)
 Thermal correction to Energy=                    0.056926
 Thermal correction to Enthalpy=                  0.057871
 Thermal correction to Gibbs Free Energy=         0.010617
 Sum of electronic and zero-point Energies=          -1124.651940
 Sum of electronic and thermal Energies=             -1124.641988
 Sum of electronic and thermal Enthalpies=           -1124.641044
 Sum of electronic and thermal Free Energies=        -1124.688298

                     E (Thermal)             CV                S
                      KCal/Mol        Cal/Mol-Kelvin    Cal/Mol-Kelvin
 Total                   35.722             33.840             99.454
 Electronic               0.000              0.000              0.000
 Translational            0.889              2.981             41.535
 Rotational               0.889              2.981             29.694
 Vibrational             33.944             27.879             28.225
 Vibration     1          0.595              1.980              5.058
 Vibration     2          0.598              1.969              4.195
 Vibration     3          0.611              1.924              2.962
 Vibration     4          0.635              1.848              2.189
 Vibration     5          0.639              1.835              2.100
 Vibration     6          0.651              1.798              1.894
 Vibration     7          0.673              1.733              1.612
 Vibration     8          0.681              1.708              1.524
 Vibration     9          0.715              1.610              1.246
 Vibration    10          0.749              1.516              1.046
 Vibration    11          0.785              1.420              0.881
 Vibration    12          0.794              1.398              0.848
 Vibration    13          0.883              1.188              0.591
 Vibration    14          0.911              1.127              0.532
 Vibration    15          0.971              1.006              0.429

 Optimization completed.
    -- Stationary point found.
 Normal termination of Gaussian 16 at Sat May 24 01:13:10 2025.
