 Gaussian 16, Revision C.01,
 Gaussian 16:  ES64L-G16RevC.01  3-Jul-2019

 ----------------------------------------------------------------------
 #P M062X/Def2TZVPP Symm(None) scf(xqc) pop(None) freq opt(CalcFC, Tigh
 t)
 ----------------------------------------------------------------------

 ------------------------------
 Gaussian input prepared by ASE
 ------------------------------
 Symbolic Z-matrix:
 Charge =  0 Multiplicity = 1

 SCF Done:  E(RM062X) =  -1199.71884102     A.U. after   14 cycles
 SCF Done:  E(RM062X) =  -1199.71884164     A.U. after    8 cycles
 SCF Done:  E(RM062X) =  -1199.71884165     A.U. after    5 cycles
 SCF Done:  E(RM062X) =  -1199.71884165     A.U. after    4 cycles
 SCF Done:  E(RM062X) =  -1199.71884165     A.U. after    3 cycles
 SCF Done:  E(RM062X) =  -1199.71884165     A.U. after    3 cycles
 Optimization completed.
    -- Stationary point found.
 Normal termination of Gaussian 16 at Sat May 24 08:16:36 2025.

 ---------------------------------------------------------------------
 #P Geom=AllCheck Guess=TCheck SCRF=Check GenChk RM062X/def2TZVPP Freq
 ---------------------------------------------------------------------

 Structure from the checkpoint file:  "/tmp/Gau-7565.chk"
 ------------------------------
 Gaussian input prepared by ASE
 ------------------------------
 Charge =  0 Multiplicity = 1

                          Input orientation:
 ---------------------------------------------------------------------
 Center     Atomic      Atomic             Coordinates (Angstroms)
 Number     Number       Type             X           Y           Z
 ---------------------------------------------------------------------
      1          6           0        2.546094    0.084543   -2.628989
      2          6           0        2.514275   -0.528420   -1.265717
      3          9           0       -0.380624    0.548956   -1.228897
      4          9           0        2.737154   -1.857936   -1.286887
      5         16           0        1.657313    0.000037   -0.000546
      6          8           0       -0.000215    0.002057   -0.001427
      7          8           0        1.868482   -0.673598    1.224174
      8          8           0        1.780447    1.548124    0.000993
      9          9           0        2.414287    1.416776   -2.579214
     10          9           0        3.714277   -0.189933   -3.207839
     11          9           0        1.594682   -0.381989   -3.440080
     12          1           0        2.666223    1.825284   -0.277776
 ---------------------------------------------------------------------

 SCF Done:  E(RM062X) =  -1199.71884165     A.U. after    1 cycles

 Isotropic polarizability for W=    0.000000       59.28 Bohr**3.
 End of Minotr F.D. properties file   721 does not exist.

                      1                      2                      3
                      A                      A                      A
 Frequencies --     42.3889                64.8340                99.4456
 Red. masses --     15.9126                16.1984                17.3390
 Frc consts  --      0.0168                 0.0401                 0.1010
 IR Inten    --      0.6514                 0.8199                 0.6151

                      4                      5                      6
                      A                      A                      A
 Frequencies --    185.3415               196.2833               207.6999
 Red. masses --      7.5468                14.3680                13.4741
 Frc consts  --      0.1527                 0.3261                 0.3425
 IR Inten    --      7.1282                 5.5984                 4.8490

                      7                      8                      9
                      A                      A                      A
 Frequencies --    244.9637               321.1134               332.5499
 Red. masses --     17.2233                 3.0255                 8.0968
 Frc consts  --      0.6089                 0.1838                 0.5276
 IR Inten    --      3.1542                35.5947                11.7428

                     10                     11                     12
                      A                      A                      A
 Frequencies --    336.5063               347.7771               423.7946
 Red. masses --      2.3944                 5.6738                13.0039
 Frc consts  --      0.1598                 0.4043                 1.3761
 IR Inten    --     47.3436                17.7910                19.9407

                     13                     14                     15
                      A                      A                      A
 Frequencies --    467.0809               479.6923               502.9465
 Red. masses --     14.0782                 8.1297                17.4091
 Frc consts  --      1.8096                 1.1022                 2.5946
 IR Inten    --      7.3321                12.5836                17.5105

                     16                     17                     18
                      A                      A                      A
 Frequencies --    584.9025               604.7494               616.7547
 Red. masses --     15.9350                15.9508                16.6144
 Frc consts  --      3.2120                 3.4370                 3.7236
 IR Inten    --     28.7616                 5.8962                25.5992

                     19                     20                     21
                      A                      A                      A
 Frequencies --    739.7458               795.5632               947.1454
 Red. masses --     15.2161                15.1225                17.1866
 Frc consts  --      4.9059                 5.6393                 9.0839
 IR Inten    --    131.7231               110.5478               158.9431

                     22                     23                     24
                      A                      A                      A
 Frequencies --   1064.9855              1102.2099              1167.8702
 Red. masses --     16.1065                 3.6830                 1.5542
 Frc consts  --     10.7631                 2.6362                 1.2489
 IR Inten    --      7.9012                60.7356               226.2903

                     25                     26                     27
                      A                      A                      A
 Frequencies --   1221.5834              1238.4183              1319.4379
 Red. masses --     12.4957                12.7937                13.9140
 Frc consts  --     10.9864                11.5607                14.2718
 IR Inten    --    271.0383               260.8400                28.8158

                     28                     29                     30
                      A                      A                      A
 Frequencies --   1372.2448              1427.3825              3797.9417
 Red. masses --     12.3676                16.6837                 1.0655
 Frc consts  --     13.7214                20.0273                 9.0550
 IR Inten    --    383.2631               208.8683               184.4111

 - Thermochemistry -
 -------------------
 Temperature   298.150 Kelvin.  Pressure   1.00000 Atm.
 Atom     1 has atomic number  6 and mass  12.00000

 Molecular mass:   199.95666 amu.
 Principal axes and moments of inertia in atomic units:
                           1         2         3
     Eigenvalues --  1227.262982203.770302532.10847
           X           -0.48472   0.64984   0.58545
           Y            0.05445  -0.64562   0.76172
           Z            0.87297   0.40110   0.27756
 This molecule is an asymmetric top.
 Rotational symmetry number  1.
 Warning -- assumption of classical behavior for rotation
           may cause significant error
 Rotational temperatures (Kelvin)      0.07057     0.03930     0.03421
 Rotational constants (GHZ):           1.47054     0.81893     0.71274
 Zero-point vibrational energy     133104.6 (Joules/Mol)
                                   31.81277 (Kcal/Mol)
 Warning -- explicit consideration of  18 degrees of freedom as
           vibrations may cause significant error
 Vibrational temperatures:     60.99    93.28   143.08   266.67   282.41
          (Kelvin)            298.83   352.45   462.01   478.47   484.16
                              500.37   609.75   672.03   690.17   723.63
                              841.54   870.10   887.37  1064.33  1144.64
                             1362.73  1532.28  1585.83  1680.30  1757.59
                             1781.81  1898.38  1974.35  2053.69  5464.39

 Zero-point correction=                           0.050697 (Hartree/Particle)
 Thermal correction to Energy=                    0.061454
 Thermal correction to Enthalpy=                  0.062398
 Thermal correction to Gibbs Free Energy=         0.013240
 Sum of electronic and zero-point Energies=          -1199.668145
 Sum of electronic and thermal Energies=             -1199.657388
 Sum of electronic and thermal Enthalpies=           -1199.656444
 Sum of electronic and thermal Free Energies=        -1199.705602

                     E (Thermal)             CV                S
                      KCal/Mol        Cal/Mol-Kelvin    Cal/Mol-Kelvin
 Total                   38.563             37.348            103.462
 Electronic               0.000              0.000              0.000
 Translational            0.889              2.981             41.783
 Rotational               0.889              2.981             30.305
 Vibrational             36.785             31.386             31.373
 Vibration     1          0.595              1.980              5.144
 Vibration     2          0.597              1.971              4.304
 Vibration     3          0.604              1.950              3.465
 Vibration     4          0.631              1.860              2.274
 Vibration     5          0.636              1.845              2.168
 Vibration     6          0.641              1.829              2.064
 Vibration     7          0.660              1.771              1.767
 Vibration     8          0.707              1.633              1.304
 Vibration     9          0.714              1.611              1.248
 Vibration    10          0.717              1.603              1.229
 Vibration    11          0.725              1.580              1.176
 Vibration    12          0.786              1.418              0.879
 Vibration    13          0.824              1.323              0.746
 Vibration    14          0.836              1.295              0.711
 Vibration    15          0.858              1.243              0.651
 Vibration    16          0.942              1.064              0.476
 Vibration    17          0.963              1.022              0.442
 Vibration    18          0.976              0.996              0.422

 Optimization completed.
    -- Stationary point found.
 Normal termination of Gaussian 16 at Sat May 24 08:21:17 2025.
