 Gaussian 16, Revision C.01,
 Gaussian 16:  ES64L-G16RevC.01  3-Jul-2019

 ----------------------------------------------------------------------
 #P M062X/Def2TZVPP Symm(None) scf(xqc) pop(None) opt(NoFreeze,TS,CalcA
 ll,NoEigentest,MaxCycle=999)
 ----------------------------------------------------------------------

 ------------------------------
 Gaussian input prepared by ASE
 ------------------------------
 Symbolic Z-matrix:
 Charge =  0 Multiplicity = 1

 SCF Done:  E(RM062X) =  -1199.67621190     A.U. after   18 cycles
 SCF Done:  E(RM062X) =  -1199.70855773     A.U. after   15 cycles
 SCF Done:  E(RM062X) =  -1199.73193820     A.U. after   14 cycles
 SCF Done:  E(RM062X) =  -1199.75003083     A.U. after   14 cycles
 SCF Done:  E(RM062X) =  -1199.75581595     A.U. after   15 cycles
 SCF Done:  E(RM062X) =  -1199.75927557     A.U. after   15 cycles
 SCF Done:  E(RM062X) =  -1199.75989030     A.U. after   14 cycles
 SCF Done:  E(RM062X) =  -1199.76141688     A.U. after   14 cycles
 SCF Done:  E(RM062X) =  -1199.76398606     A.U. after   14 cycles
 SCF Done:  E(RM062X) =  -1199.76582407     A.U. after   14 cycles
 SCF Done:  E(RM062X) =  -1199.76866392     A.U. after   14 cycles
 SCF Done:  E(RM062X) =  -1199.77332142     A.U. after   14 cycles
 SCF Done:  E(RM062X) =  -1199.77771749     A.U. after   14 cycles
 SCF Done:  E(RM062X) =  -1199.77838621     A.U. after   13 cycles
 SCF Done:  E(RM062X) =  -1199.77842346     A.U. after   11 cycles

 Isotropic polarizability for W=    0.000000       60.82 Bohr**3.
 End of Minotr F.D. properties file   721 does not exist.

 Optimization completed.
    -- Stationary point found.

                          Input orientation:
 ---------------------------------------------------------------------
 Center     Atomic      Atomic             Coordinates (Angstroms)
 Number     Number       Type             X           Y           Z
 ---------------------------------------------------------------------
      1          6           0       -0.019254    0.252994   -1.726281
      2          6           0       -0.320194    0.298506   -0.321725
      3          9           0       -0.845910    1.478926    0.063410
      4          9           0       -1.126975   -0.711951    0.065417
      5         16           0        2.095920   -0.082276   -0.144810
      6          8           0        3.490960   -0.310308    0.012057
      7          8           0        1.760197   -0.099842   -1.592671
      8          8           0        1.836916    1.242248    0.649571
      9          9           0       -0.317292   -0.772894   -2.451692
     10          9           0        1.472807   -1.266060    0.628322
     11          9           0        0.080195    1.345099   -2.407465
     12          1           0        2.709367    1.530892    0.979619
 ---------------------------------------------------------------------

 ******    1 imaginary frequencies (negative Signs) ******

                      1                      2                      3
                      A                      A                      A
 Frequencies --   -803.5802                26.7979               109.1396
 Red. masses --     13.6553                13.0649                17.2778
 Frc consts  --      5.1953                 0.0055                 0.1213
 IR Inten    --     52.3521                 1.7476                54.0649

                      4                      5                      6
                      A                      A                      A
 Frequencies --    130.7513               181.4623               211.4073
 Red. masses --     14.9532                15.9418                13.2145
 Frc consts  --      0.1506                 0.3093                 0.3480
 IR Inten    --      1.4191                 1.8663                 9.1556

                      7                      8                      9
                      A                      A                      A
 Frequencies --    221.3298               266.6746               327.4392
 Red. masses --     18.4437                17.1713                14.1728
 Frc consts  --      0.5323                 0.7195                 0.8953
 IR Inten    --      2.0366                19.8353                 0.6180

                     10                     11                     12
                      A                      A                      A
 Frequencies --    347.2556               386.1900               467.9866
 Red. masses --     17.1702                14.1062                15.3361
 Frc consts  --      1.2199                 1.2395                 1.9789
 IR Inten    --      0.5455                 0.4966                16.2333

                     13                     14                     15
                      A                      A                      A
 Frequencies --    493.3352               516.1380               548.7442
 Red. masses --      3.5917                 1.7825                 4.9795
 Frc consts  --      0.5150                 0.2798                 0.8834
 IR Inten    --    151.0321               127.3002                38.7101

                     16                     17                     18
                      A                      A                      A
 Frequencies --    569.9428               596.0345               622.1668
 Red. masses --     10.7888                10.4200                14.8979
 Frc consts  --      2.0648                 2.1810                 3.3977
 IR Inten    --     39.2632                29.0880                88.2896

                     19                     20                     21
                      A                      A                      A
 Frequencies --    675.3505               782.0416               819.0946
 Red. masses --     13.3982                14.3820                12.2542
 Frc consts  --      3.6004                 5.1824                 4.8440
 IR Inten    --    134.0497                24.4732                34.2874

                     22                     23                     24
                      A                      A                      A
 Frequencies --    950.7941              1130.2645              1175.4056
 Red. masses --     20.8571                12.1379                13.8279
 Frc consts  --     11.1090                 9.1360                11.2559
 IR Inten    --    214.6017               211.1008               345.8910

                     25                     26                     27
                      A                      A                      A
 Frequencies --   1211.6518              1241.9833              1351.4987
 Red. masses --      1.5653                10.7560                 5.0674
 Frc consts  --      1.3539                 9.7753                 5.4534
 IR Inten    --     55.8482               143.9444               653.0478

                     28                     29                     30
                      A                      A                      A
 Frequencies --   1413.1876              1517.4517              3668.7952
 Red. masses --     13.1948                11.4299                 1.0634
 Frc consts  --     15.5258                15.5068                 8.4333
 IR Inten    --    268.3258               216.8274                97.3544

 - Thermochemistry -
 -------------------
 Temperature   298.150 Kelvin.  Pressure   1.00000 Atm.
 Atom     1 has atomic number  6 and mass  12.00000

 Molecular mass:   199.95666 amu.
 Principal axes and moments of inertia in atomic units:
                           1         2         3
     Eigenvalues --  1240.034892125.815852298.29819
           X            0.88829  -0.43134   0.15775
           Y           -0.14792   0.05648   0.98739
           Z            0.43481   0.90042   0.01363
 This molecule is an asymmetric top.
 Rotational symmetry number  1.
 Warning -- assumption of classical behavior for rotation
           may cause significant error
 Rotational temperatures (Kelvin)      0.06985     0.04074     0.03769
 Rotational constants (GHZ):           1.45540     0.84896     0.78525
    1 imaginary frequencies ignored.
 Zero-point vibrational energy     131351.9 (Joules/Mol)
                                   31.39385 (Kcal/Mol)
 Warning -- explicit consideration of  16 degrees of freedom as
           vibrations may cause significant error
 Vibrational temperatures:     38.56   157.03   188.12   261.08   304.17
          (Kelvin)            318.44   383.69   471.11   499.62   555.64
                              673.33   709.80   742.61   789.52   820.02
                              857.56   895.16   971.68  1125.18  1178.49
                             1367.98  1626.20  1691.15  1743.30  1786.94
                             1944.51  2033.26  2183.27  5278.58

 Zero-point correction=                           0.050029 (Hartree/Particle)
 Thermal correction to Energy=                    0.060125
 Thermal correction to Enthalpy=                  0.061069
 Thermal correction to Gibbs Free Energy=         0.013240
 Sum of electronic and zero-point Energies=          -1199.728394
 Sum of electronic and thermal Energies=             -1199.718299
 Sum of electronic and thermal Enthalpies=           -1199.717355
 Sum of electronic and thermal Free Energies=        -1199.765184

                     E (Thermal)             CV                S
                      KCal/Mol        Cal/Mol-Kelvin    Cal/Mol-Kelvin
 Total                   37.729             35.568            100.665
 Electronic               0.000              0.000              0.000
 Translational            0.889              2.981             41.783
 Rotational               0.889              2.981             30.184
 Vibrational             35.951             29.607             28.698
 Vibration     1          0.593              1.984              6.053
 Vibration     2          0.606              1.942              3.284
 Vibration     3          0.612              1.923              2.935
 Vibration     4          0.630              1.865              2.313
 Vibration     5          0.643              1.823              2.031
 Vibration     6          0.648              1.809              1.948
 Vibration     7          0.672              1.734              1.618
 Vibration     8          0.711              1.621              1.273
 Vibration     9          0.725              1.581              1.179
 Vibration    10          0.755              1.500              1.015
 Vibration    11          0.825              1.321              0.743
 Vibration    12          0.849              1.265              0.675
 Vibration    13          0.871              1.214              0.619
 Vibration    14          0.904              1.142              0.547
 Vibration    15          0.926              1.096              0.504
 Vibration    16          0.954              1.040              0.457

 Normal termination of Gaussian 16 at Sat May 24 08:51:02 2025.
