 Gaussian 16, Revision C.01,
 Gaussian 16:  ES64L-G16RevC.01  3-Jul-2019

 ----------------------------------------------------------------------
 #P M062X/Def2TZVPP Symm(None) scf(xqc) pop(None) opt(NoFreeze,TS,CalcA
 ll,NoEigentest,MaxCycle=999)
 ----------------------------------------------------------------------

 ------------------------------
 Gaussian input prepared by ASE
 ------------------------------
 Symbolic Z-matrix:
 Charge =  0 Multiplicity = 1

 SCF Done:  E(RM062X) =  -1199.73657347     A.U. after   17 cycles
 SCF Done:  E(RM062X) =  -1199.75384453     A.U. after   15 cycles
 SCF Done:  E(RM062X) =  -1199.76088570     A.U. after   15 cycles
 SCF Done:  E(RM062X) =  -1199.76147907     A.U. after   13 cycles
 SCF Done:  E(RM062X) =  -1199.76150964     A.U. after   12 cycles
 SCF Done:  E(RM062X) =  -1199.76151046     A.U. after    9 cycles

 Isotropic polarizability for W=    0.000000       58.89 Bohr**3.
 End of Minotr F.D. properties file   721 does not exist.

 Optimization completed.
    -- Stationary point found.

                          Input orientation:
 ---------------------------------------------------------------------
 Center     Atomic      Atomic             Coordinates (Angstroms)
 Number     Number       Type             X           Y           Z
 ---------------------------------------------------------------------
      1          6           0       -0.037897   -0.868736    1.280702
      2          6           0       -0.068512   -0.091258   -0.064158
      3          9           0       -0.684183   -0.717531   -1.033254
      4          9           0       -0.697346    1.069394    0.157306
      5         16           0        1.762564    0.104842   -0.117206
      6          8           0        1.913318   -0.096786    1.340303
      7          8           0        2.609516   -0.231095   -1.194944
      8          8           0        1.805987    1.704783   -0.211648
      9          9           0        1.256606   -1.826563   -0.013158
     10          9           0       -0.250958   -0.184964    2.343225
     11          9           0       -0.480040   -2.038034    1.449024
     12          1           0        1.559789    2.099640    0.633561
 ---------------------------------------------------------------------

 ******    1 imaginary frequencies (negative Signs) ******

                      1                      2                      3
                      A                      A                      A
 Frequencies --   -394.8997               101.6641               130.0290
 Red. masses --     16.7499                14.8140                 6.6801
 Frc consts  --      1.5390                 0.0902                 0.0665
 IR Inten    --      3.6951               149.7825                59.3033

                      4                      5                      6
                      A                      A                      A
 Frequencies --    189.3818               202.3567               254.2604
 Red. masses --     17.8201                 7.9888                16.2075
 Frc consts  --      0.3766                 0.1927                 0.6173
 IR Inten    --      6.0988                49.2025                 0.9939

                      7                      8                      9
                      A                      A                      A
 Frequencies --    276.1883               296.9769               309.6082
 Red. masses --      5.8175                10.1714                10.0298
 Frc consts  --      0.2615                 0.5285                 0.5665
 IR Inten    --      7.0453                11.5393                26.3587

                     10                     11                     12
                      A                      A                      A
 Frequencies --    352.1007               383.9628               415.5053
 Red. masses --      1.7904                15.2640                17.4987
 Frc consts  --      0.1308                 1.3259                 1.7800
 IR Inten    --     71.5115                37.3714                55.0297

                     13                     14                     15
                      A                      A                      A
 Frequencies --    436.7955               505.3242               539.1447
 Red. masses --     15.3866                 7.3642                 7.9466
 Frc consts  --      1.7296                 1.1079                 1.3609
 IR Inten    --     45.7841                 5.8161                33.9727

                     16                     17                     18
                      A                      A                      A
 Frequencies --    565.9924               582.1424               646.8574
 Red. masses --     16.4764                16.6782                17.7987
 Frc consts  --      3.1098                 3.3301                 4.3879
 IR Inten    --     46.3691               123.3071                38.7688

                     19                     20                     21
                      A                      A                      A
 Frequencies --    680.0438               774.6166               827.5288
 Red. masses --     15.9948                16.3156                14.8483
 Frc consts  --      4.3581                 5.7680                 5.9909
 IR Inten    --     35.6076                41.9558               219.1904

                     22                     23                     24
                      A                      A                      A
 Frequencies --    981.6386              1098.8524              1163.5186
 Red. masses --     12.5361                 9.7820                 1.7502
 Frc consts  --      7.1173                 6.9592                 1.3960
 IR Inten    --     35.1171               171.8802               271.6531

                     25                     26                     27
                      A                      A                      A
 Frequencies --   1180.0076              1320.9719              1384.4284
 Red. masses --      3.3427                13.4532                13.0545
 Frc consts  --      2.7423                13.8313                14.7418
 IR Inten    --     16.8106               299.8040               207.1850

                     28                     29                     30
                      A                      A                      A
 Frequencies --   1421.9539              1494.3278              3846.8119
 Red. masses --     15.1691                13.1810                 1.0658
 Frc consts  --     18.0710                17.3417                 9.2928
 IR Inten    --    394.0443               235.5559               113.3651

 - Thermochemistry -
 -------------------
 Temperature   298.150 Kelvin.  Pressure   1.00000 Atm.
 Atom     1 has atomic number  6 and mass  12.00000

 Molecular mass:   199.95666 amu.
 Principal axes and moments of inertia in atomic units:
                           1         2         3
     Eigenvalues --  1234.808261876.763771976.31733
           X            0.72961  -0.44072   0.52291
           Y            0.44019   0.88783   0.13410
           Z           -0.52336   0.13234   0.84177
 This molecule is an asymmetric top.
 Rotational symmetry number  1.
 Warning -- assumption of classical behavior for rotation
           may cause significant error
 Rotational temperatures (Kelvin)      0.07014     0.04615     0.04383
 Rotational constants (GHZ):           1.46156     0.96162     0.91318
    1 imaginary frequencies ignored.
 Zero-point vibrational energy     133760.4 (Joules/Mol)
                                   31.96950 (Kcal/Mol)
 Warning -- explicit consideration of  16 degrees of freedom as
           vibrations may cause significant error
 Vibrational temperatures:    146.27   187.08   272.48   291.15   365.82
          (Kelvin)            397.37   427.28   445.46   506.59   552.44
                              597.82   628.45   727.05   775.71   814.34
                              837.57   930.68   978.43  1114.50  1190.63
                             1412.36  1581.00  1674.04  1697.77  1900.58
                             1991.88  2045.87  2150.00  5534.70

 Zero-point correction=                           0.050947 (Hartree/Particle)
 Thermal correction to Energy=                    0.060654
 Thermal correction to Enthalpy=                  0.061598
 Thermal correction to Gibbs Free Energy=         0.015967
 Sum of electronic and zero-point Energies=          -1199.710564
 Sum of electronic and thermal Energies=             -1199.700856
 Sum of electronic and thermal Enthalpies=           -1199.699912
 Sum of electronic and thermal Free Energies=        -1199.745543

                     E (Thermal)             CV                S
                      KCal/Mol        Cal/Mol-Kelvin    Cal/Mol-Kelvin
 Total                   38.061             35.463             96.039
 Electronic               0.000              0.000              0.000
 Translational            0.889              2.981             41.783
 Rotational               0.889              2.981             29.906
 Vibrational             36.284             29.502             24.350
 Vibration     1          0.604              1.948              3.422
 Vibration     2          0.612              1.923              2.946
 Vibration     3          0.633              1.854              2.234
 Vibration     4          0.639              1.837              2.112
 Vibration     5          0.665              1.756              1.701
 Vibration     6          0.678              1.717              1.557
 Vibration     7          0.691              1.679              1.434
 Vibration     8          0.699              1.655              1.364
 Vibration     9          0.729              1.571              1.157
 Vibration    10          0.753              1.504              1.024
 Vibration    11          0.779              1.437              0.907
 Vibration    12          0.797              1.390              0.837
 Vibration    13          0.861              1.238              0.645
 Vibration    14          0.894              1.163              0.567
 Vibration    15          0.922              1.105              0.512
 Vibration    16          0.939              1.070              0.481

 Normal termination of Gaussian 16 at Sat May 24 06:36:39 2025.
