 Gaussian 16, Revision C.01,
 Gaussian 16:  ES64L-G16RevC.01  3-Jul-2019

 ----------------------------------------------------------------------
 #P M062X/Def2TZVPP Symm(None) scf(xqc) pop(None) opt(NoFreeze,TS,CalcA
 ll,NoEigentest,MaxCycle=999)
 ----------------------------------------------------------------------

 ------------------------------
 Gaussian input prepared by ASE
 ------------------------------
 Symbolic Z-matrix:
 Charge =  0 Multiplicity = 1

 SCF Done:  E(RM062X) =  -1199.73064812     A.U. after   17 cycles
 SCF Done:  E(RM062X) =  -1199.75058685     A.U. after   15 cycles
 SCF Done:  E(RM062X) =  -1199.75737646     A.U. after   15 cycles
 SCF Done:  E(RM062X) =  -1199.76060083     A.U. after   14 cycles
 SCF Done:  E(RM062X) =  -1199.76146481     A.U. after   13 cycles
 SCF Done:  E(RM062X) =  -1199.76151555     A.U. after   12 cycles
 SCF Done:  E(RM062X) =  -1199.76151621     A.U. after    8 cycles

 Isotropic polarizability for W=    0.000000       58.89 Bohr**3.
 End of Minotr F.D. properties file   721 does not exist.

 Optimization completed.
    -- Stationary point found.

                          Input orientation:
 ---------------------------------------------------------------------
 Center     Atomic      Atomic             Coordinates (Angstroms)
 Number     Number       Type             X           Y           Z
 ---------------------------------------------------------------------
      1          6           0       -0.092410   -1.131968   -0.921244
      2          6           0       -0.055997   -0.106891    0.245697
      3          9           0       -0.702140    0.991367   -0.163914
      4          9           0       -0.615256   -0.528476    1.350122
      5         16           0        1.774159    0.086335    0.160919
      6          8           0        2.679266   -0.037706    1.236549
      7          8           0        1.846999   -0.397915   -1.234831
      8          8           0        1.815053    1.673380   -0.062248
      9          9           0       -0.538525   -2.308884   -0.834876
     10          9           0        1.272500   -1.826735    0.463212
     11          9           0       -0.365809   -0.666909   -2.083780
     12          1           0        1.523153    1.896665   -0.954358
 ---------------------------------------------------------------------

 ******    1 imaginary frequencies (negative Signs) ******

                      1                      2                      3
                      A                      A                      A
 Frequencies --   -394.8783               100.3153               136.1435
 Red. masses --     16.9069                15.1514                 8.5866
 Frc consts  --      1.5532                 0.0898                 0.0938
 IR Inten    --      3.9689               148.6399                74.7737

                      4                      5                      6
                      A                      A                      A
 Frequencies --    190.5587               204.9092               254.4427
 Red. masses --     18.1499                 9.7181                16.2978
 Frc consts  --      0.3883                 0.2404                 0.6217
 IR Inten    --     10.2286                32.3432                 0.9355

                      7                      8                      9
                      A                      A                      A
 Frequencies --    282.0808               299.3455               311.1114
 Red. masses --     10.1793                13.5037                11.2375
 Frc consts  --      0.4772                 0.7129                 0.6408
 IR Inten    --      7.0491                 5.3071                33.2009

                     10                     11                     12
                      A                      A                      A
 Frequencies --    377.4262               387.6679               415.7747
 Red. masses --      2.3131                 3.1871                17.4193
 Frc consts  --      0.1941                 0.2822                 1.7742
 IR Inten    --     15.7003                83.0222                55.3173

                     13                     14                     15
                      A                      A                      A
 Frequencies --    437.1481               508.6094               541.7082
 Red. masses --     15.1158                 6.8103                 6.3364
 Frc consts  --      1.7019                 1.0380                 1.0955
 IR Inten    --     44.3745                 5.6708                41.7202

                     16                     17                     18
                      A                      A                      A
 Frequencies --    565.9310               582.4641               647.1054
 Red. masses --     16.4559                16.6926                17.7800
 Frc consts  --      3.1053                 3.3367                 4.3866
 IR Inten    --     46.6423               123.5031                38.6398

                     19                     20                     21
                      A                      A                      A
 Frequencies --    680.0308               774.6954               827.6518
 Red. masses --     15.9834                16.3182                14.8731
 Frc consts  --      4.3549                 5.7701                 6.0027
 IR Inten    --     35.2607                42.0681               219.6132

                     22                     23                     24
                      A                      A                      A
 Frequencies --    982.1256              1098.5730              1163.2947
 Red. masses --     12.5483                 9.9101                 1.7356
 Frc consts  --      7.1313                 7.0467                 1.3838
 IR Inten    --     35.1017               173.8333               269.6450

                     25                     26                     27
                      A                      A                      A
 Frequencies --   1180.4050              1321.7139              1384.5244
 Red. masses --      3.3675                13.4515                13.0511
 Frc consts  --      2.7645                13.8451                14.7400
 IR Inten    --     17.7079               303.7427               202.3063

                     28                     29                     30
                      A                      A                      A
 Frequencies --   1422.7587              1493.8045              3847.2077
 Red. masses --     15.1809                13.2006                 1.0658
 Frc consts  --     18.1055                17.3553                 9.2947
 IR Inten    --    397.6465               232.4872               113.7594

 - Thermochemistry -
 -------------------
 Temperature   298.150 Kelvin.  Pressure   1.00000 Atm.
 Atom     1 has atomic number  6 and mass  12.00000

 Molecular mass:   199.95666 amu.
 Principal axes and moments of inertia in atomic units:
                           1         2         3
     Eigenvalues --  1234.902521876.627511975.96130
           X            0.75426  -0.45148  -0.47672
           Y            0.53019   0.84709   0.03662
           Z            0.38729  -0.28038   0.87829
 This molecule is an asymmetric top.
 Rotational symmetry number  1.
 Warning -- assumption of classical behavior for rotation
           may cause significant error
 Rotational temperatures (Kelvin)      0.07014     0.04615     0.04383
 Rotational constants (GHZ):           1.46144     0.96169     0.91335
    1 imaginary frequencies ignored.
 Zero-point vibrational energy     134098.6 (Joules/Mol)
                                   32.05032 (Kcal/Mol)
 Warning -- explicit consideration of  16 degrees of freedom as
           vibrations may cause significant error
 Vibrational temperatures:    144.33   195.88   274.17   294.82   366.09
          (Kelvin)            405.85   430.69   447.62   543.03   557.77
                              598.21   628.96   731.78   779.40   814.25
                              838.04   931.04   978.41  1114.61  1190.81
                             1413.06  1580.60  1673.72  1698.34  1901.65
                             1992.02  2047.03  2149.25  5535.27

 Zero-point correction=                           0.051075 (Hartree/Particle)
 Thermal correction to Energy=                    0.060720
 Thermal correction to Enthalpy=                  0.061664
 Thermal correction to Gibbs Free Energy=         0.016173
 Sum of electronic and zero-point Energies=          -1199.710441
 Sum of electronic and thermal Energies=             -1199.700796
 Sum of electronic and thermal Enthalpies=           -1199.699852
 Sum of electronic and thermal Free Energies=        -1199.745343

                     E (Thermal)             CV                S
                      KCal/Mol        Cal/Mol-Kelvin    Cal/Mol-Kelvin
 Total                   38.102             35.358             95.745
 Electronic               0.000              0.000              0.000
 Translational            0.889              2.981             41.783
 Rotational               0.889              2.981             29.905
 Vibrational             36.325             29.396             24.056
 Vibration     1          0.604              1.949              3.448
 Vibration     2          0.614              1.917              2.857
 Vibration     3          0.634              1.853              2.222
 Vibration     4          0.640              1.833              2.089
 Vibration     5          0.665              1.755              1.700
 Vibration     6          0.681              1.707              1.521
 Vibration     7          0.692              1.675              1.421
 Vibration     8          0.700              1.653              1.356
 Vibration     9          0.748              1.518              1.049
 Vibration    10          0.756              1.497              1.009
 Vibration    11          0.779              1.436              0.906
 Vibration    12          0.797              1.389              0.836
 Vibration    13          0.864              1.231              0.637
 Vibration    14          0.897              1.158              0.562
 Vibration    15          0.922              1.105              0.512
 Vibration    16          0.939              1.069              0.481

 Normal termination of Gaussian 16 at Sat May 24 08:05:01 2025.
