 Gaussian 16, Revision C.01,
 Gaussian 16:  ES64L-G16RevC.01  3-Jul-2019

 ----------------------------------------------------------------------
 #P M062X/Def2TZVPP Symm(None) scf(xqc) pop(None) opt(NoFreeze,TS,CalcA
 ll,NoEigentest,MaxCycle=999)
 ----------------------------------------------------------------------

 ------------------------------
 Gaussian input prepared by ASE
 ------------------------------
 Symbolic Z-matrix:
 Charge =  0 Multiplicity = 1

 SCF Done:  E(RM062X) =  -1199.73740617     A.U. after   17 cycles
 SCF Done:  E(RM062X) =  -1199.75584852     A.U. after   14 cycles
 SCF Done:  E(RM062X) =  -1199.75894145     A.U. after   14 cycles
 SCF Done:  E(RM062X) =  -1199.76085740     A.U. after   13 cycles
 SCF Done:  E(RM062X) =  -1199.76135151     A.U. after   14 cycles
 SCF Done:  E(RM062X) =  -1199.76150637     A.U. after   14 cycles
 SCF Done:  E(RM062X) =  -1199.76151896     A.U. after   10 cycles

 Isotropic polarizability for W=    0.000000       58.88 Bohr**3.
 End of Minotr F.D. properties file   721 does not exist.

 Optimization completed.
    -- Stationary point found.

                          Input orientation:
 ---------------------------------------------------------------------
 Center     Atomic      Atomic             Coordinates (Angstroms)
 Number     Number       Type             X           Y           Z
 ---------------------------------------------------------------------
      1          6           0       -0.038458   -1.135329   -0.951552
      2          6           0        0.028257   -0.017360    0.125300
      3          9           0       -0.522783    1.082337   -0.402741
      4          9           0       -0.599612   -0.302479    1.236491
      5         16           0        1.869392    0.044016    0.102358
      6          8           0        2.723926   -0.046391    1.221777
      7          8           0        1.959127   -0.563420   -1.243266
      8          8           0        2.029767    1.599496   -0.251374
      9          9           0       -0.568846   -2.267753   -0.785116
     10          9           0        1.223118   -1.796768    0.543505
     11          9           0       -0.235405   -0.756182   -2.159688
     12          1           0        1.783861    1.763854   -1.169779
 ---------------------------------------------------------------------

 ******    1 imaginary frequencies (negative Signs) ******

                      1                      2                      3
                      A                      A                      A
 Frequencies --   -393.0196               103.4831               138.4758
 Red. masses --     16.9798                14.9762                 9.2056
 Frc consts  --      1.5453                 0.0945                 0.1040
 IR Inten    --      3.8747               134.1509                88.4702

                      4                      5                      6
                      A                      A                      A
 Frequencies --    189.8572               206.2827               254.4432
 Red. masses --     18.1513                10.5354                16.4376
 Frc consts  --      0.3855                 0.2641                 0.6270
 IR Inten    --     10.5258                32.5009                 0.9969

                      7                      8                      9
                      A                      A                      A
 Frequencies --    283.4309               300.0000               311.8627
 Red. masses --     11.7071                14.4631                12.0086
 Frc consts  --      0.5541                 0.7669                 0.6881
 IR Inten    --      7.8067                 3.9926                34.5679

                     10                     11                     12
                      A                      A                      A
 Frequencies --    381.3435               398.2879               415.9599
 Red. masses --      6.6885                 1.6544                17.2623
 Frc consts  --      0.5731                 0.1546                 1.7598
 IR Inten    --      6.3185                85.2927                54.0494

                     13                     14                     15
                      A                      A                      A
 Frequencies --    437.6116               510.2235               543.7692
 Red. masses --     14.7593                 6.6197                 5.5181
 Frc consts  --      1.6653                 1.0153                 0.9613
 IR Inten    --     44.8861                 5.1630                45.2798

                     16                     17                     18
                      A                      A                      A
 Frequencies --    566.0277               582.4773               646.8430
 Red. masses --     16.4676                16.7077                17.7817
 Frc consts  --      3.1085                 3.3398                 4.3835
 IR Inten    --     46.8721               125.8285                38.3101

                     19                     20                     21
                      A                      A                      A
 Frequencies --    679.9971               774.7347               827.6458
 Red. masses --     15.9723                16.3070                14.8416
 Frc consts  --      4.3514                 5.7668                 5.9899
 IR Inten    --     35.5864                42.3789               219.3772

                     22                     23                     24
                      A                      A                      A
 Frequencies --    981.8696              1099.2024              1165.0863
 Red. masses --     12.5814                10.2696                 2.0339
 Frc consts  --      7.1464                 7.3107                 1.6266
 IR Inten    --     35.3579               176.4126               268.4688

                     25                     26                     27
                      A                      A                      A
 Frequencies --   1181.1350              1321.1725              1384.5835
 Red. masses --      2.5891                13.4487                13.0469
 Frc consts  --      2.1282                13.8309                14.7366
 IR Inten    --     16.9664               301.3023               204.4164

                     28                     29                     30
                      A                      A                      A
 Frequencies --   1422.6415              1494.2071              3847.7046
 Red. masses --     15.1080                13.1765                 1.0658
 Frc consts  --     18.0156                17.3330                 9.2971
 IR Inten    --    397.0063               232.9310               113.1830

 - Thermochemistry -
 -------------------
 Temperature   298.150 Kelvin.  Pressure   1.00000 Atm.
 Atom     1 has atomic number  6 and mass  12.00000

 Molecular mass:   199.95666 amu.
 Principal axes and moments of inertia in atomic units:
                           1         2         3
     Eigenvalues --  1234.852321876.623601976.09675
           X            0.77519  -0.38030  -0.50444
           Y            0.50988   0.84807   0.14419
           Z            0.37296  -0.36898   0.85133
 This molecule is an asymmetric top.
 Rotational symmetry number  1.
 Warning -- assumption of classical behavior for rotation
           may cause significant error
 Rotational temperatures (Kelvin)      0.07014     0.04615     0.04383
 Rotational constants (GHZ):           1.46150     0.96170     0.91329
    1 imaginary frequencies ignored.
 Zero-point vibrational energy     134283.0 (Joules/Mol)
                                   32.09440 (Kcal/Mol)
 Warning -- explicit consideration of  16 degrees of freedom as
           vibrations may cause significant error
 Vibrational temperatures:    148.89   199.24   273.16   296.79   366.09
          (Kelvin)            407.79   431.63   448.70   548.67   573.05
                              598.47   629.63   734.10   782.36   814.39
                              838.05   930.66   978.36  1114.67  1190.80
                             1412.69  1581.51  1676.30  1699.39  1900.87
                             1992.11  2046.86  2149.83  5535.99

 Zero-point correction=                           0.051146 (Hartree/Particle)
 Thermal correction to Energy=                    0.060758
 Thermal correction to Enthalpy=                  0.061702
 Thermal correction to Gibbs Free Energy=         0.016297
 Sum of electronic and zero-point Energies=          -1199.710373
 Sum of electronic and thermal Energies=             -1199.700761
 Sum of electronic and thermal Enthalpies=           -1199.699817
 Sum of electronic and thermal Free Energies=        -1199.745222

                     E (Thermal)             CV                S
                      KCal/Mol        Cal/Mol-Kelvin    Cal/Mol-Kelvin
 Total                   38.126             35.305             95.564
 Electronic               0.000              0.000              0.000
 Translational            0.889              2.981             41.783
 Rotational               0.889              2.981             29.905
 Vibrational             36.349             29.343             23.875
 Vibration     1          0.605              1.946              3.388
 Vibration     2          0.614              1.915              2.825
 Vibration     3          0.633              1.854              2.229
 Vibration     4          0.641              1.831              2.076
 Vibration     5          0.665              1.755              1.700
 Vibration     6          0.682              1.704              1.513
 Vibration     7          0.693              1.674              1.417
 Vibration     8          0.700              1.651              1.352
 Vibration     9          0.751              1.510              1.034
 Vibration    10          0.765              1.474              0.969
 Vibration    11          0.779              1.436              0.906
 Vibration    12          0.798              1.388              0.834
 Vibration    13          0.865              1.227              0.633
 Vibration    14          0.899              1.153              0.557
 Vibration    15          0.922              1.105              0.512
 Vibration    16          0.939              1.069              0.481

 Normal termination of Gaussian 16 at Sat May 24 08:06:39 2025.
