 Gaussian 16, Revision C.01,
 Gaussian 16:  ES64L-G16RevC.01  3-Jul-2019

 ------------------------------------------
 #P am1 Symm(None) scf(xqc) pop(None) force
 ------------------------------------------

 ------------------------------
 Gaussian input prepared by ASE
 ------------------------------
 Symbolic Z-matrix:
 Charge =  0 Multiplicity = 1

                          Input orientation:
 ---------------------------------------------------------------------
 Center     Atomic      Atomic             Coordinates (Angstroms)
 Number     Number       Type             X           Y           Z
 ---------------------------------------------------------------------
      1          6           0       -0.693771   -1.239826    0.147497
      2          6           0       -0.046188    0.152924    0.400362
      3          9           0       -0.666333    1.082227   -0.324318
      4          9           0       -0.245035    0.538759    1.640747
      5         16           0        1.680970   -0.242330   -0.139224
      6          8           0        2.966266   -0.194470    0.474231
      7          8           0        1.084844   -1.005039   -1.230314
      8          8           0        1.767729    1.252578   -0.764980
      9          9           0       -1.131351   -1.961083    1.068630
     10          9           0        1.218858   -1.593522    1.145925
     11          9           0       -1.011274   -1.723279   -0.970866
     12          1           0        2.523222    1.812661   -0.553484
 ---------------------------------------------------------------------

 SCF Done:  E(RAM1) =  0.371411260133     A.U. after   16 cycles
 Normal termination of Gaussian 16 at Sat May 24 07:26:21 2025.
