 Gaussian 16, Revision C.01,
 Gaussian 16:  ES64L-G16RevC.01  3-Jul-2019

 ----------------------------------------------------------------------
 #P M062X/Def2TZVPP Symm(None) scf(xqc) pop(None) opt(NoFreeze,TS,CalcA
 ll,NoEigentest,MaxCycle=999)
 ----------------------------------------------------------------------

 ------------------------------
 Gaussian input prepared by ASE
 ------------------------------
 Symbolic Z-matrix:
 Charge =  0 Multiplicity = 1

 SCF Done:  E(RM062X) =  -1199.65408851     A.U. after   22 cycles
 SCF Done:  E(RM062X) =  -1199.66860736     A.U. after   19 cycles
 SCF Done:  E(RM062X) =  -1199.67282369     A.U. after   17 cycles
 SCF Done:  E(RM062X) =  -1199.67405696     A.U. after   17 cycles
 SCF Done:  E(RM062X) =  -1199.67427261     A.U. after   16 cycles
 SCF Done:  E(RM062X) =  -1199.67428181     A.U. after   14 cycles
 SCF Done:  E(RM062X) =  -1199.67428183     A.U. after    7 cycles

 Isotropic polarizability for W=    0.000000       69.76 Bohr**3.
 End of Minotr F.D. properties file   721 does not exist.

 Optimization completed.
    -- Stationary point found.

                          Input orientation:
 ---------------------------------------------------------------------
 Center     Atomic      Atomic             Coordinates (Angstroms)
 Number     Number       Type             X           Y           Z
 ---------------------------------------------------------------------
      1          6           0        1.888585   -0.990386   -1.196379
      2          6           0        2.229246    0.007850   -0.115591
      3          9           0       -0.284212    0.454810    0.068521
      4          9           0        2.476539   -0.534470    1.059774
      5         16           0        1.930966    1.656858   -0.084081
      6          8           0        0.516821    1.975618    0.260820
      7          8           0        2.850492    2.329748    0.750829
      8          8           0        2.018278    2.097805   -1.569922
      9          9           0        1.281774   -0.428020   -2.229097
     10          9           0        3.023434   -1.549312   -1.642032
     11          9           0        1.135352   -1.970447   -0.721383
     12          1           0        2.942807    2.219174   -1.835478
 ---------------------------------------------------------------------

 ******    1 imaginary frequencies (negative Signs) ******

                      1                      2                      3
                      A                      A                      A
 Frequencies --   -632.7085                39.2048                68.3611
 Red. masses --     17.9078                14.6540                14.7588
 Frc consts  --      4.2238                 0.0133                 0.0406
 IR Inten    --    730.2386                 0.6836                 0.6448

                      4                      5                      6
                      A                      A                      A
 Frequencies --     91.9211               140.6846               169.1751
 Red. masses --     17.3879                14.7153                 9.0275
 Frc consts  --      0.0866                 0.1716                 0.1522
 IR Inten    --      1.0678                 5.9030                 9.0641

                      7                      8                      9
                      A                      A                      A
 Frequencies --    230.0290               245.0010               279.2103
 Red. masses --      4.6660                16.6244                 2.7842
 Frc consts  --      0.1455                 0.5879                 0.1279
 IR Inten    --     17.5381                 4.5779                51.8854

                     10                     11                     12
                      A                      A                      A
 Frequencies --    301.3859               324.6289               343.8119
 Red. masses --      5.2364                 5.5775                 6.6024
 Frc consts  --      0.2802                 0.3463                 0.4598
 IR Inten    --     11.2553                17.9257                13.7271

                     13                     14                     15
                      A                      A                      A
 Frequencies --    437.8022               461.3390               483.7580
 Red. masses --     11.3552                 7.0870                11.7357
 Frc consts  --      1.2823                 0.8887                 1.6181
 IR Inten    --      3.7892                35.8891                14.4184

                     16                     17                     18
                      A                      A                      A
 Frequencies --    513.1316               596.1653               611.0329
 Red. masses --     14.4781                16.6300                16.6716
 Frc consts  --      2.2461                 3.4824                 3.6674
 IR Inten    --     45.5900                13.5712                14.0064

                     19                     20                     21
                      A                      A                      A
 Frequencies --    634.0276               772.2449               904.4598
 Red. masses --     17.3491                17.4745                16.4862
 Frc consts  --      4.1091                 6.1400                 7.9460
 IR Inten    --    118.6381                10.0062                23.6990

                     22                     23                     24
                      A                      A                      A
 Frequencies --    973.8080              1084.0152              1140.6940
 Red. masses --     16.2674                11.6481                 1.1977
 Frc consts  --      9.0890                 8.0645                 0.9182
 IR Inten    --    249.3355               161.2511                41.3278

                     25                     26                     27
                      A                      A                      A
 Frequencies --   1201.2020              1287.9632              1303.2615
 Red. masses --     13.0366                13.5338                12.7726
 Frc consts  --     11.0827                13.2274                12.7818
 IR Inten    --    229.4147               277.1814               121.1435

                     28                     29                     30
                      A                      A                      A
 Frequencies --   1377.2951              1417.9734              3792.4686
 Red. masses --     12.9714                16.5671                 1.0659
 Frc consts  --     14.4974                19.6260                 9.0323
 IR Inten    --    310.2757               214.2589               237.2039

 - Thermochemistry -
 -------------------
 Temperature   298.150 Kelvin.  Pressure   1.00000 Atm.
 Atom     1 has atomic number  6 and mass  12.00000

 Molecular mass:   199.95666 amu.
 Principal axes and moments of inertia in atomic units:
                           1         2         3
     Eigenvalues --  1219.980992268.205492336.75939
           X           -0.04620   0.99792   0.04498
           Y            0.93094   0.05934  -0.36032
           Z            0.36224  -0.02523   0.93174
 This molecule is an asymmetric top.
 Rotational symmetry number  1.
 Warning -- assumption of classical behavior for rotation
           may cause significant error
 Rotational temperatures (Kelvin)      0.07100     0.03819     0.03707
 Rotational constants (GHZ):           1.47932     0.79567     0.77233
    1 imaginary frequencies ignored.
 Zero-point vibrational energy     126960.0 (Joules/Mol)
                                   30.34417 (Kcal/Mol)
 Warning -- explicit consideration of  17 degrees of freedom as
           vibrations may cause significant error
 Vibrational temperatures:     56.41    98.36   132.25   202.41   243.41
          (Kelvin)            330.96   352.50   401.72   433.63   467.07
                              494.67   629.90   663.76   696.02   738.28
                              857.75   879.14   912.22  1111.09  1301.32
                             1401.09  1559.66  1641.20  1728.26  1853.09
                             1875.10  1981.62  2040.15  5456.52

 Zero-point correction=                           0.048357 (Hartree/Particle)
 Thermal correction to Energy=                    0.059217
 Thermal correction to Enthalpy=                  0.060162
 Thermal correction to Gibbs Free Energy=         0.010562
 Sum of electronic and zero-point Energies=          -1199.625925
 Sum of electronic and thermal Energies=             -1199.615064
 Sum of electronic and thermal Enthalpies=           -1199.614120
 Sum of electronic and thermal Free Energies=        -1199.663720

                     E (Thermal)             CV                S
                      KCal/Mol        Cal/Mol-Kelvin    Cal/Mol-Kelvin
 Total                   37.160             36.921            104.391
 Electronic               0.000              0.000              0.000
 Translational            0.889              2.981             41.783
 Rotational               0.889              2.981             30.248
 Vibrational             35.382             30.959             32.359
 Vibration     1          0.594              1.981              5.299
 Vibration     2          0.598              1.969              4.200
 Vibration     3          0.602              1.955              3.619
 Vibration     4          0.615              1.913              2.795
 Vibration     5          0.625              1.880              2.445
 Vibration     6          0.652              1.795              1.879
 Vibration     7          0.660              1.771              1.766
 Vibration     8          0.680              1.712              1.539
 Vibration     9          0.693              1.671              1.409
 Vibration    10          0.709              1.626              1.287
 Vibration    11          0.723              1.588              1.194
 Vibration    12          0.798              1.388              0.834
 Vibration    13          0.819              1.336              0.762
 Vibration    14          0.840              1.286              0.700
 Vibration    15          0.868              1.221              0.626
 Vibration    16          0.954              1.040              0.456
 Vibration    17          0.970              1.008              0.431

 Normal termination of Gaussian 16 at Sat May 24 08:45:12 2025.
