 Gaussian 16, Revision C.01,
 Gaussian 16:  ES64L-G16RevC.01  3-Jul-2019

 ------------------------------------------
 #P am1 Symm(None) scf(xqc) pop(None) force
 ------------------------------------------

 ------------------------------
 Gaussian input prepared by ASE
 ------------------------------
 Symbolic Z-matrix:
 Charge =  0 Multiplicity = 1

                          Input orientation:
 ---------------------------------------------------------------------
 Center     Atomic      Atomic             Coordinates (Angstroms)
 Number     Number       Type             X           Y           Z
 ---------------------------------------------------------------------
      1          6           0       -0.701629   -1.088464    0.534635
      2          6           0       -0.078460    0.076504   -0.288616
      3          9           0       -0.475753    0.027226   -1.540368
      4          9           0       -0.540707    1.247011    0.146729
      5         16           0        1.702983   -0.266875    0.085099
      6          8           0        1.324564   -0.645986    1.441771
      7          8           0        2.778218   -0.450359   -0.831960
      8          8           0        1.956783    1.322376    0.294899
      9          9           0        1.015792   -1.961352   -0.501118
     10          9           0       -0.835158   -1.121827    1.786055
     11          9           0       -1.313903   -2.040074    0.005976
     12          1           0        2.615202    1.781411   -0.238905
 ---------------------------------------------------------------------

 SCF Done:  E(RAM1) =  0.302813642804     A.U. after   16 cycles
 Normal termination of Gaussian 16 at Sat May 24 06:00:47 2025.
