 Gaussian 16, Revision C.01,
 Gaussian 16:  ES64L-G16RevC.01  3-Jul-2019

 ----------------------------------------------------------------------
 #P M062X/Def2TZVPP Symm(None) scf(xqc) pop(None) opt(NoFreeze,TS,CalcA
 ll,NoEigentest,MaxCycle=999)
 ----------------------------------------------------------------------

 ------------------------------
 Gaussian input prepared by ASE
 ------------------------------
 Symbolic Z-matrix:
 Charge =  0 Multiplicity = 1

 SCF Done:  E(RM062X) =  -1199.67943820     A.U. after   18 cycles
 SCF Done:  E(RM062X) =  -1199.71236116     A.U. after   14 cycles
 SCF Done:  E(RM062X) =  -1199.73383040     A.U. after   15 cycles
 SCF Done:  E(RM062X) =  -1199.74936117     A.U. after   14 cycles
 SCF Done:  E(RM062X) =  -1199.76086338     A.U. after   14 cycles
 SCF Done:  E(RM062X) =  -1199.75950915     A.U. after   14 cycles
 SCF Done:  E(RM062X) =  -1199.76509593     A.U. after   15 cycles
 SCF Done:  E(RM062X) =  -1199.76495343     A.U. after   15 cycles
 SCF Done:  E(RM062X) =  -1199.76518992     A.U. after   13 cycles
 SCF Done:  E(RM062X) =  -1199.76520734     A.U. after   12 cycles
 SCF Done:  E(RM062X) =  -1199.76520852     A.U. after   10 cycles
 SCF Done:  E(RM062X) =  -1199.76520853     A.U. after    7 cycles

 Isotropic polarizability for W=    0.000000       62.74 Bohr**3.
 End of Minotr F.D. properties file   721 does not exist.

 Optimization completed.
    -- Stationary point found.

                          Input orientation:
 ---------------------------------------------------------------------
 Center     Atomic      Atomic             Coordinates (Angstroms)
 Number     Number       Type             X           Y           Z
 ---------------------------------------------------------------------
      1          6           0       -0.031732    0.315050   -1.619202
      2          6           0       -0.214077    0.216780   -0.181991
      3          9           0       -0.653042    1.337106    0.367847
      4          9           0       -0.963071   -0.800731    0.200905
      5         16           0        1.890111   -0.082675   -0.033287
      6          8           0        2.756072   -0.438055    1.049064
      7          8           0        2.196698    0.024040   -1.452186
      8          8           0        1.836542    1.546616    0.262635
      9          9           0       -0.147207   -0.681231   -2.376278
     10          9           0        1.270439   -1.634304   -0.168100
     11          9           0        0.122750    1.426131   -2.190303
     12          1           0        2.114678    1.683919    1.175927
 ---------------------------------------------------------------------

 ******    1 imaginary frequencies (negative Signs) ******

                      1                      2                      3
                      A                      A                      A
 Frequencies --   -589.4286                48.2153                54.9386
 Red. masses --     13.9252                10.7434                14.0176
 Frc consts  --      2.8504                 0.0147                 0.0249
 IR Inten    --     42.4001                20.6290                 0.9594

                      4                      5                      6
                      A                      A                      A
 Frequencies --    187.6407               191.2269               209.5405
 Red. masses --     17.8132                13.1894                18.0309
 Frc consts  --      0.3695                 0.2842                 0.4664
 IR Inten    --      3.4438                18.5545                 0.7304

                      7                      8                      9
                      A                      A                      A
 Frequencies --    264.6675               280.6396               305.5699
 Red. masses --      3.2002                17.1625                 3.2126
 Frc consts  --      0.1321                 0.7964                 0.1767
 IR Inten    --     15.9253                 2.0062                20.8563

                     10                     11                     12
                      A                      A                      A
 Frequencies --    320.8577               373.3639               412.2962
 Red. masses --      3.0611                12.8162                13.2948
 Frc consts  --      0.1857                 1.0526                 1.3315
 IR Inten    --     15.6437                 1.0986                 5.9404

                     13                     14                     15
                      A                      A                      A
 Frequencies --    509.2161               532.0766               538.2814
 Red. masses --     16.6148                 8.1338                10.0809
 Frc consts  --      2.5383                 1.3567                 1.7210
 IR Inten    --    134.3037                23.4099                15.6328

                     16                     17                     18
                      A                      A                      A
 Frequencies --    553.8510               610.9949               624.8230
 Red. masses --     11.0580                18.3324                15.5349
 Frc consts  --      1.9985                 4.0322                 3.5733
 IR Inten    --      1.4041                60.7151                 5.1341

                     19                     20                     21
                      A                      A                      A
 Frequencies --    632.3122               661.4714               752.3509
 Red. masses --     12.0970                13.9292                18.5303
 Frc consts  --      2.8496                 3.5908                 6.1798
 IR Inten    --     44.9963               196.7774               317.5134

                     22                     23                     24
                      A                      A                      A
 Frequencies --    814.9589              1097.5026              1157.8026
 Red. masses --     16.6597                15.5642                 1.2520
 Frc consts  --      6.5191                11.0456                 0.9888
 IR Inten    --     27.2730               173.7615                85.5651

                     25                     26                     27
                      A                      A                      A
 Frequencies --   1234.5337              1340.4246              1390.0794
 Red. masses --     13.2711                13.1135                10.4487
 Frc consts  --     11.9169                13.8821                11.8957
 IR Inten    --    275.1016               168.5668               230.5429

                     28                     29                     30
                      A                      A                      A
 Frequencies --   1540.7433              1558.0990              3849.5464
 Red. masses --     12.8900                13.2659                 1.0660
 Frc consts  --     18.0286                18.9747                 9.3074
 IR Inten    --    442.2987               287.5114               158.5032

 - Thermochemistry -
 -------------------
 Temperature   298.150 Kelvin.  Pressure   1.00000 Atm.
 Atom     1 has atomic number  6 and mass  12.00000

 Molecular mass:   199.95666 amu.
 Principal axes and moments of inertia in atomic units:
                           1         2         3
     Eigenvalues --  1314.681531918.996991932.00158
           X            0.82111  -0.27908   0.49788
           Y           -0.16996   0.71318   0.68006
           Z            0.54488   0.64302  -0.53817
 This molecule is an asymmetric top.
 Rotational symmetry number  1.
 Warning -- assumption of classical behavior for rotation
           may cause significant error
 Rotational temperatures (Kelvin)      0.06588     0.04513     0.04483
 Rotational constants (GHZ):           1.37276     0.94046     0.93413
    1 imaginary frequencies ignored.
 Zero-point vibrational energy     131876.5 (Joules/Mol)
                                   31.51923 (Kcal/Mol)
 Warning -- explicit consideration of  16 degrees of freedom as
           vibrations may cause significant error
 Vibrational temperatures:     69.37    79.04   269.97   275.13   301.48
          (Kelvin)            380.80   403.78   439.65   461.64   537.19
                              593.20   732.65   765.54   774.47   796.87
                              879.09   898.98   909.76   951.71  1082.47
                             1172.54  1579.06  1665.82  1776.22  1928.57
                             2000.01  2216.79  2241.76  5538.64

 Zero-point correction=                           0.050229 (Hartree/Particle)
 Thermal correction to Energy=                    0.060407
 Thermal correction to Enthalpy=                  0.061351
 Thermal correction to Gibbs Free Energy=         0.013747
 Sum of electronic and zero-point Energies=          -1199.714979
 Sum of electronic and thermal Energies=             -1199.704801
 Sum of electronic and thermal Enthalpies=           -1199.703857
 Sum of electronic and thermal Free Energies=        -1199.751462

                     E (Thermal)             CV                S
                      KCal/Mol        Cal/Mol-Kelvin    Cal/Mol-Kelvin
 Total                   37.906             36.150            100.193
 Electronic               0.000              0.000              0.000
 Translational            0.889              2.981             41.783
 Rotational               0.889              2.981             29.967
 Vibrational             36.129             30.189             28.442
 Vibration     1          0.595              1.978              4.889
 Vibration     2          0.596              1.976              4.631
 Vibration     3          0.632              1.857              2.251
 Vibration     4          0.634              1.852              2.216
 Vibration     5          0.642              1.826              2.048
 Vibration     6          0.671              1.738              1.631
 Vibration     7          0.680              1.709              1.530
 Vibration     8          0.696              1.663              1.386
 Vibration     9          0.706              1.634              1.306
 Vibration    10          0.745              1.527              1.066
 Vibration    11          0.776              1.444              0.919
 Vibration    12          0.864              1.230              0.635
 Vibration    13          0.887              1.179              0.583
 Vibration    14          0.893              1.165              0.569
 Vibration    15          0.909              1.131              0.536
 Vibration    16          0.970              1.009              0.431

 Normal termination of Gaussian 16 at Sat May 24 08:43:28 2025.
