 Gaussian 16, Revision C.01,
 Gaussian 16:  ES64L-G16RevC.01  3-Jul-2019

 ----------------------------------------------------------------------
 #P M062X/Def2TZVPP Symm(None) scf(xqc) pop(None) opt(NoFreeze,TS,CalcA
 ll,NoEigentest,MaxCycle=999)
 ----------------------------------------------------------------------

 ------------------------------
 Gaussian input prepared by ASE
 ------------------------------
 Symbolic Z-matrix:
 Charge =  0 Multiplicity = 1

 SCF Done:  E(RM062X) =  -1199.73734169     A.U. after   21 cycles
 SCF Done:  E(RM062X) =  -1199.73957941     A.U. after   19 cycles
 SCF Done:  E(RM062X) =  -1199.74012813     A.U. after   16 cycles
 SCF Done:  E(RM062X) =  -1199.73954605     A.U. after   18 cycles
 SCF Done:  E(RM062X) =  -1199.74035342     A.U. after   16 cycles
 SCF Done:  E(RM062X) =  -1199.74040659     A.U. after   15 cycles
 SCF Done:  E(RM062X) =  -1199.74040839     A.U. after   13 cycles
 SCF Done:  E(RM062X) =  -1199.74040843     A.U. after   10 cycles

 Isotropic polarizability for W=    0.000000       66.45 Bohr**3.
 End of Minotr F.D. properties file   721 does not exist.

 Optimization completed.
    -- Stationary point found.

                          Input orientation:
 ---------------------------------------------------------------------
 Center     Atomic      Atomic             Coordinates (Angstroms)
 Number     Number       Type             X           Y           Z
 ---------------------------------------------------------------------
      1          6           0       -0.860084    0.450395    1.259858
      2          6           0       -0.010111    0.021107    0.059804
      3          9           0       -0.368506   -1.199689   -0.331347
      4          9           0       -0.279266    0.893806   -0.945997
      5         16           0        2.061212    0.021049    0.076752
      6          8           0        1.868168   -0.477050    1.497799
      7          8           0        3.457679   -0.304757    0.667145
      8          8           0        2.166046    1.613484    0.128877
      9          9           0       -0.745263   -0.408038    2.257188
     10          9           0       -0.462094    1.654376    1.670035
     11          9           0       -2.143369    0.530635    0.918221
     12          1           0        1.389592    2.027941   -0.273565
 ---------------------------------------------------------------------

 ******    1 imaginary frequencies (negative Signs) ******

                      1                      2                      3
                      A                      A                      A
 Frequencies --   -878.0644                51.8120                76.8407
 Red. masses --     17.9705                11.5099                13.9345
 Frc consts  --      8.1632                 0.0182                 0.0485
 IR Inten    --    460.2020                 1.7940                 0.7071

                      4                      5                      6
                      A                      A                      A
 Frequencies --    120.5032               176.8228               200.5252
 Red. masses --     16.7129                13.7472                17.4335
 Frc consts  --      0.1430                 0.2532                 0.4130
 IR Inten    --      1.2159                 4.2883                11.6585

                      7                      8                      9
                      A                      A                      A
 Frequencies --    226.7525               236.3473               293.5541
 Red. masses --     14.6053                13.2158                13.2398
 Frc consts  --      0.4425                 0.4350                 0.6722
 IR Inten    --      3.7832                 0.8420                 3.6494

                     10                     11                     12
                      A                      A                      A
 Frequencies --    302.7543               347.6760               374.6275
 Red. masses --     14.3378                 2.0204                 7.8960
 Frc consts  --      0.7743                 0.1439                 0.6529
 IR Inten    --      3.3809                86.1179                13.7148

                     13                     14                     15
                      A                      A                      A
 Frequencies --    403.9165               454.9653               478.1323
 Red. masses --      2.8867                13.7545                 7.9535
 Frc consts  --      0.2775                 1.6775                 1.0713
 IR Inten    --     16.8967                 0.2829                 9.6806

                     16                     17                     18
                      A                      A                      A
 Frequencies --    540.4732               602.2953               629.4953
 Red. masses --     17.7739                17.7826                17.0117
 Frc consts  --      3.0590                 3.8007                 3.9718
 IR Inten    --      4.3395                 2.1056                 8.6453

                     19                     20                     21
                      A                      A                      A
 Frequencies --    752.2188               857.8837               872.2522
 Red. masses --     16.1513                17.2570                13.9874
 Frc consts  --      5.3845                 7.4830                 6.2701
 IR Inten    --     45.7988                72.0722               101.3902

                     22                     23                     24
                      A                      A                      A
 Frequencies --    933.5072              1116.9181              1129.7312
 Red. masses --     13.2740                 4.9296                15.5947
 Frc consts  --      6.8154                 3.6233                11.7268
 IR Inten    --     80.7226               250.6061                16.7372

                     25                     26                     27
                      A                      A                      A
 Frequencies --   1184.6897              1231.6633              1255.5703
 Red. masses --      1.4217                 8.4741                12.9643
 Frc consts  --      1.1756                 7.5741                12.0416
 IR Inten    --    161.4613                85.6359               244.0666

                     28                     29                     30
                      A                      A                      A
 Frequencies --   1295.0770              1372.4623              3802.4030
 Red. masses --     13.0666                12.5881                 1.0657
 Frc consts  --     12.9123                13.9705                 9.0783
 IR Inten    --    246.2480               287.4323               127.9491

 - Thermochemistry -
 -------------------
 Temperature   298.150 Kelvin.  Pressure   1.00000 Atm.
 Atom     1 has atomic number  6 and mass  12.00000

 Molecular mass:   199.95666 amu.
 Principal axes and moments of inertia in atomic units:
                           1         2         3
     Eigenvalues --  1087.523862418.864082496.68857
           X            0.98405   0.14789   0.09889
           Y           -0.06875  -0.19658   0.97807
           Z           -0.16409   0.96927   0.18328
 This molecule is an asymmetric top.
 Rotational symmetry number  1.
 Warning -- assumption of classical behavior for rotation
           may cause significant error
 Rotational temperatures (Kelvin)      0.07964     0.03581     0.03469
 Rotational constants (GHZ):           1.65950     0.74611     0.72285
    1 imaginary frequencies ignored.
 Zero-point vibrational energy     127533.1 (Joules/Mol)
                                   30.48114 (Kcal/Mol)
 Warning -- explicit consideration of  16 degrees of freedom as
           vibrations may cause significant error
 Vibrational temperatures:     74.55   110.56   173.38   254.41   288.51
          (Kelvin)            326.25   340.05   422.36   435.60   500.23
                              539.01   581.15   654.59   687.93   777.62
                              866.57   905.70  1082.28  1234.30  1254.98
                             1343.11  1607.00  1625.43  1704.50  1772.09
                             1806.49  1863.33  1974.67  5470.81

 Zero-point correction=                           0.048575 (Hartree/Particle)
 Thermal correction to Energy=                    0.059122
 Thermal correction to Enthalpy=                  0.060066
 Thermal correction to Gibbs Free Energy=         0.011604
 Sum of electronic and zero-point Energies=          -1199.691834
 Sum of electronic and thermal Energies=             -1199.681286
 Sum of electronic and thermal Enthalpies=           -1199.680342
 Sum of electronic and thermal Free Energies=        -1199.728804

                     E (Thermal)             CV                S
                      KCal/Mol        Cal/Mol-Kelvin    Cal/Mol-Kelvin
 Total                   37.100             36.504            101.997
 Electronic               0.000              0.000              0.000
 Translational            0.889              2.981             41.783
 Rotational               0.889              2.981             30.264
 Vibrational             35.322             30.542             29.950
 Vibration     1          0.596              1.977              4.747
 Vibration     2          0.599              1.965              3.970
 Vibration     3          0.609              1.932              3.092
 Vibration     4          0.628              1.871              2.362
 Vibration     5          0.638              1.839              2.128
 Vibration     6          0.650              1.800              1.905
 Vibration     7          0.655              1.785              1.830
 Vibration     8          0.688              1.686              1.453
 Vibration     9          0.694              1.668              1.402
 Vibration    10          0.725              1.580              1.177
 Vibration    11          0.746              1.524              1.061
 Vibration    12          0.769              1.462              0.948
 Vibration    13          0.813              1.350              0.781
 Vibration    14          0.835              1.299              0.715
 Vibration    15          0.896              1.161              0.564
 Vibration    16          0.961              1.027              0.446

 Normal termination of Gaussian 16 at Sat May 24 07:01:51 2025.
