 Gaussian 16, Revision C.01,
 Gaussian 16:  ES64L-G16RevC.01  3-Jul-2019

 ------------------------------------------
 #P am1 Symm(None) scf(xqc) pop(None) force
 ------------------------------------------

 ------------------------------
 Gaussian input prepared by ASE
 ------------------------------
 Symbolic Z-matrix:
 Charge =  0 Multiplicity = 1

                          Input orientation:
 ---------------------------------------------------------------------
 Center     Atomic      Atomic             Coordinates (Angstroms)
 Number     Number       Type             X           Y           Z
 ---------------------------------------------------------------------
      1          6           0        1.786620   -0.972752   -1.130951
      2          6           0        2.243290    0.032554   -0.100690
      3          9           0       -0.288594    0.347254    0.103074
      4          9           0        3.005455   -0.476616    0.846200
      5         16           0        1.892064    1.670516   -0.046673
      6          8           0        0.425464    1.896522   -0.182232
      7          8           0        2.473695    2.413313    1.004674
      8          8           0        2.358606    2.274689   -1.398366
      9          9           0        1.016517   -0.455623   -2.074611
     10          9           0        2.808847   -1.537269   -1.790708
     11          9           0        1.099385   -1.988069   -0.630611
     12          1           0        3.188732    2.064709   -1.853125
 ---------------------------------------------------------------------

 SCF Done:  E(RAM1) =  0.508655639805     A.U. after   27 cycles
 Normal termination of Gaussian 16 at Sat May 24 08:10:21 2025.
