 Gaussian 16, Revision C.01,
 Gaussian 16:  ES64L-G16RevC.01  3-Jul-2019

 ----------------------------------------------------------------------
 #P M062X/Def2TZVPP Symm(None) scf(xqc) pop(None) opt(NoFreeze,TS,CalcA
 ll,NoEigentest,MaxCycle=999)
 ----------------------------------------------------------------------

 ------------------------------
 Gaussian input prepared by ASE
 ------------------------------
 Symbolic Z-matrix:
 Charge =  0 Multiplicity = 1

 SCF Done:  E(RM062X) =  -1199.72219244     A.U. after   16 cycles
 SCF Done:  E(RM062X) =  -1199.73804957     A.U. after   14 cycles
 SCF Done:  E(RM062X) =  -1199.74737246     A.U. after   15 cycles
 SCF Done:  E(RM062X) =  -1199.74815850     A.U. after   13 cycles
 SCF Done:  E(RM062X) =  -1199.74835652     A.U. after   12 cycles
 SCF Done:  E(RM062X) =  -1199.74836007     A.U. after    9 cycles

 Isotropic polarizability for W=    0.000000       62.01 Bohr**3.
 End of Minotr F.D. properties file   721 does not exist.

 Optimization completed.
    -- Stationary point found.

                          Input orientation:
 ---------------------------------------------------------------------
 Center     Atomic      Atomic             Coordinates (Angstroms)
 Number     Number       Type             X           Y           Z
 ---------------------------------------------------------------------
      1          6           0       -0.143835    0.532954    0.133138
      2          6           0        1.805016   -0.231805    0.243063
      3          9           0        2.306678   -0.702623    1.380819
      4          9           0        2.215758   -1.014389   -0.754435
      5         16           0        2.483920    1.479775   -0.062462
      6          8           0        2.500613    2.280317    1.109429
      7          8           0        3.251411    1.781717   -1.215691
      8          8           0        0.785882    1.658766   -0.660566
      9          9           0       -0.168239    0.471030    1.453516
     10          9           0       -1.259701    1.336123   -0.096273
     11          9           0       -0.470579   -0.546539   -0.544075
     12          1           0        0.389263    2.546814   -0.639822
 ---------------------------------------------------------------------

 ******    1 imaginary frequencies (negative Signs) ******

                      1                      2                      3
                      A                      A                      A
 Frequencies --   -550.9331                55.5512                96.7756
 Red. masses --     10.4240                13.7067                14.4202
 Frc consts  --      1.8642                 0.0249                 0.0796
 IR Inten    --     25.7484                 1.1971                17.5113

                      4                      5                      6
                      A                      A                      A
 Frequencies --    122.7661               144.1764               156.7253
 Red. masses --     16.2914                14.7607                15.0541
 Frc consts  --      0.1447                 0.1808                 0.2179
 IR Inten    --     37.1548                25.2053                23.5970

                      7                      8                      9
                      A                      A                      A
 Frequencies --    214.7985               263.8302               268.9558
 Red. masses --     16.3285                13.7890                 5.5602
 Frc consts  --      0.4439                 0.5655                 0.2370
 IR Inten    --     20.2390                 5.7974                15.5061

                     10                     11                     12
                      A                      A                      A
 Frequencies --    330.4986               370.6807               441.0104
 Red. masses --     13.2554                13.4474                10.5648
 Frc consts  --      0.8531                 1.0887                 1.2106
 IR Inten    --     13.4559                29.1348                15.7700

                     13                     14                     15
                      A                      A                      A
 Frequencies --    451.9348               489.7183               535.3394
 Red. masses --      4.6798                 4.7032                11.0094
 Frc consts  --      0.5632                 0.6646                 1.8590
 IR Inten    --     37.0413                68.4155               144.8976

                     16                     17                     18
                      A                      A                      A
 Frequencies --    541.2895               612.5565               649.7973
 Red. masses --      4.0616                15.1922                13.4175
 Frc consts  --      0.7011                 3.3586                 3.3379
 IR Inten    --     93.1830                14.4506                10.1396

                     19                     20                     21
                      A                      A                      A
 Frequencies --    686.9724               728.6322               736.1907
 Red. masses --      8.2831                 3.9641                15.0029
 Frc consts  --      2.3032                 1.2400                 4.7908
 IR Inten    --     96.5955                40.5595                91.7437

                     22                     23                     24
                      A                      A                      A
 Frequencies --    824.1935              1066.7956              1141.4848
 Red. masses --      9.1151                 4.3908                 1.8347
 Frc consts  --      3.6481                 2.9441                 1.4085
 IR Inten    --    435.5837               353.2252               305.8688

                     25                     26                     27
                      A                      A                      A
 Frequencies --   1195.0651              1221.9755              1272.9871
 Red. masses --      8.9657                13.2745                13.3740
 Frc consts  --      7.5443                11.6787                12.7691
 IR Inten    --    272.3000               138.7414               121.5531

                     28                     29                     30
                      A                      A                      A
 Frequencies --   1328.2115              1476.0705              3730.0322
 Red. masses --     10.9143                20.3408                 1.0657
 Frc consts  --     11.3443                26.1116                 8.7359
 IR Inten    --    291.6799               282.5247               211.9872

 - Thermochemistry -
 -------------------
 Temperature   298.150 Kelvin.  Pressure   1.00000 Atm.
 Atom     1 has atomic number  6 and mass  12.00000

 Molecular mass:   199.95666 amu.
 Principal axes and moments of inertia in atomic units:
                           1         2         3
     Eigenvalues --  1325.148712045.972322368.16751
           X            0.97385  -0.22337   0.04141
           Y            0.21587   0.96668   0.13760
           Z           -0.07076  -0.12506   0.98962
 This molecule is an asymmetric top.
 Rotational symmetry number  1.
 Warning -- assumption of classical behavior for rotation
           may cause significant error
 Rotational temperatures (Kelvin)      0.06536     0.04233     0.03657
 Rotational constants (GHZ):           1.36192     0.88209     0.76208
    1 imaginary frequencies ignored.
 Zero-point vibrational energy     126535.1 (Joules/Mol)
                                   30.24261 (Kcal/Mol)
 Warning -- explicit consideration of  16 degrees of freedom as
           vibrations may cause significant error
 Vibrational temperatures:     79.93   139.24   176.63   207.44   225.49
          (Kelvin)            309.05   379.59   386.97   475.51   533.33
                              634.52   650.23   704.60   770.23   778.79
                              881.33   934.91   988.40  1048.34  1059.21
                             1185.83  1534.88  1642.34  1719.43  1758.15
                             1831.54  1911.00  2123.74  5366.68

 Zero-point correction=                           0.048195 (Hartree/Particle)
 Thermal correction to Energy=                    0.058705
 Thermal correction to Enthalpy=                  0.059649
 Thermal correction to Gibbs Free Energy=         0.011338
 Sum of electronic and zero-point Energies=          -1199.700165
 Sum of electronic and thermal Energies=             -1199.689655
 Sum of electronic and thermal Enthalpies=           -1199.688711
 Sum of electronic and thermal Free Energies=        -1199.737022

                     E (Thermal)             CV                S
                      KCal/Mol        Cal/Mol-Kelvin    Cal/Mol-Kelvin
 Total                   36.838             36.668            101.679
 Electronic               0.000              0.000              0.000
 Translational            0.889              2.981             41.783
 Rotational               0.889              2.981             30.241
 Vibrational             35.060             30.706             29.655
 Vibration     1          0.596              1.975              4.609
 Vibration     2          0.603              1.951              3.518
 Vibration     3          0.610              1.930              3.056
 Vibration     4          0.616              1.909              2.748
 Vibration     5          0.620              1.895              2.589
 Vibration     6          0.645              1.818              2.003
 Vibration     7          0.670              1.739              1.636
 Vibration     8          0.673              1.730              1.603
 Vibration     9          0.713              1.615              1.258
 Vibration    10          0.743              1.532              1.077
 Vibration    11          0.801              1.381              0.823
 Vibration    12          0.811              1.357              0.790
 Vibration    13          0.846              1.273              0.684
 Vibration    14          0.890              1.172              0.575
 Vibration    15          0.896              1.159              0.563
 Vibration    16          0.972              1.005              0.429

 Normal termination of Gaussian 16 at Sat May 24 11:19:11 2025.
