 Gaussian 16, Revision C.01,
 Gaussian 16:  ES64L-G16RevC.01  3-Jul-2019

 ------------------------------------------
 #P am1 Symm(None) scf(xqc) pop(None) force
 ------------------------------------------

 ------------------------------
 Gaussian input prepared by ASE
 ------------------------------
 Symbolic Z-matrix:
 Charge =  0 Multiplicity = 1

                          Input orientation:
 ---------------------------------------------------------------------
 Center     Atomic      Atomic             Coordinates (Angstroms)
 Number     Number       Type             X           Y           Z
 ---------------------------------------------------------------------
      1          6           0       -0.507147   -0.922140   -0.144232
      2          6           0        0.110660    0.156412    0.792836
      3          9           0       -0.387984    1.347704    0.467994
      4          9           0       -0.228899    0.082982    2.060223
      5         16           0        1.731008   -0.317338    0.030939
      6          8           0        2.831390    0.390911    0.594986
      7          8           0        1.598142   -1.670076   -0.498225
      8          8           0        1.386343    0.557960   -1.291523
      9          9           0       -1.089389   -1.948076    0.266409
     10          9           0        0.969098   -1.456357    1.377419
     11          9           0       -0.645662   -0.814853   -1.391057
     12          1           0        1.680376    1.472471   -1.371562
 ---------------------------------------------------------------------

 SCF Done:  E(RAM1) =  0.847317180576     A.U. after   17 cycles
 Normal termination of Gaussian 16 at Sat May 24 07:26:09 2025.
