 Gaussian 16, Revision C.01,
 Gaussian 16:  ES64L-G16RevC.01  3-Jul-2019

 ----------------------------------------------------------------------
 #P M062X/Def2TZVPP Symm(None) scf(xqc) pop(None) freq opt(CalcFC, Tigh
 t)
 ----------------------------------------------------------------------

 ------------------------------
 Gaussian input prepared by ASE
 ------------------------------
 Symbolic Z-matrix:
 Charge =  0 Multiplicity = 1

 SCF Done:  E(RM062X) =  -1199.93791665     A.U. after   13 cycles
 SCF Done:  E(RM062X) =  -1199.93845926     A.U. after   12 cycles
 SCF Done:  E(RM062X) =  -1199.94010169     A.U. after   13 cycles
 SCF Done:  E(RM062X) =  -1199.94039883     A.U. after   11 cycles
 SCF Done:  E(RM062X) =  -1199.94044117     A.U. after    9 cycles
 SCF Done:  E(RM062X) =  -1199.94046533     A.U. after   10 cycles
 SCF Done:  E(RM062X) =  -1199.94049927     A.U. after   10 cycles
 SCF Done:  E(RM062X) =  -1199.94055702     A.U. after    9 cycles
 SCF Done:  E(RM062X) =  -1199.94056340     A.U. after    8 cycles
 SCF Done:  E(RM062X) =  -1199.94056344     A.U. after    6 cycles
 SCF Done:  E(RM062X) =  -1199.94056345     A.U. after    5 cycles
 SCF Done:  E(RM062X) =  -1199.94056345     A.U. after    3 cycles
 Optimization completed.
    -- Stationary point found.
 Normal termination of Gaussian 16 at Fri May 23 23:56:21 2025.

 ---------------------------------------------------------------------
 #P Geom=AllCheck Guess=TCheck SCRF=Check GenChk RM062X/def2TZVPP Freq
 ---------------------------------------------------------------------

 Structure from the checkpoint file:  "/tmp/Gau-206666.chk"
 ------------------------------
 Gaussian input prepared by ASE
 ------------------------------
 Charge =  0 Multiplicity = 1

                          Input orientation:
 ---------------------------------------------------------------------
 Center     Atomic      Atomic             Coordinates (Angstroms)
 Number     Number       Type             X           Y           Z
 ---------------------------------------------------------------------
      1          6           0       -0.673564    0.837608    1.128666
      2          6           0        0.006026    0.037906   -0.008143
      3          9           0       -0.391445   -1.230064    0.069457
      4          9           0       -0.367617    0.553221   -1.177896
      5         16           0        1.850239    0.042905    0.075263
      6          8           0        2.205436   -0.084303    1.443927
      7          8           0        2.288503   -0.839956   -0.934707
      8          8           0        2.162413    1.501601   -0.413334
      9          9           0       -0.551702    0.215442    2.283126
     10          9           0       -0.114352    2.047099    1.225167
     11          9           0       -1.957469    0.989969    0.850481
     12          1           0        2.185746    2.110472    0.339414
 ---------------------------------------------------------------------

 SCF Done:  E(RM062X) =  -1199.94056345     A.U. after    1 cycles

 Isotropic polarizability for W=    0.000000       53.48 Bohr**3.
 End of Minotr F.D. properties file   721 does not exist.

                      1                      2                      3
                      A                      A                      A
 Frequencies --     57.7208                73.0558               144.6137
 Red. masses --     12.9325                16.1955                13.0047
 Frc consts  --      0.0254                 0.0509                 0.1602
 IR Inten    --      1.7399                 0.8545                 3.3396

                      4                      5                      6
                      A                      A                      A
 Frequencies --    204.4598               224.7281               242.4349
 Red. masses --     12.3556                16.2430                11.3369
 Frc consts  --      0.3043                 0.4833                 0.3926
 IR Inten    --      5.1104                 2.1669                 1.7505

                      7                      8                      9
                      A                      A                      A
 Frequencies --    288.5471               312.9435               323.4195
 Red. masses --     17.6071                 8.9115                 9.7548
 Frc consts  --      0.8637                 0.5142                 0.6012
 IR Inten    --      3.3427                 7.4157                 7.1224

                     10                     11                     12
                      A                      A                      A
 Frequencies --    358.4441               390.6741               448.5813
 Red. masses --      2.5982                 3.0322                14.1036
 Frc consts  --      0.1967                 0.2727                 1.6721
 IR Inten    --     43.6846                40.5133                 8.9488

                     13                     14                     15
                      A                      A                      A
 Frequencies --    476.2301               529.7881               542.7990
 Red. masses --      3.5749                16.4437                17.6210
 Frc consts  --      0.4777                 2.7193                 3.0589
 IR Inten    --     35.4562                13.2048                23.8842

                     16                     17                     18
                      A                      A                      A
 Frequencies --    608.4191               630.6444               665.5928
 Red. masses --     17.7040                19.9898                15.9630
 Frc consts  --      3.8612                 4.6841                 4.1666
 IR Inten    --      3.0637               111.0143                50.0298

                     19                     20                     21
                      A                      A                      A
 Frequencies --    779.7814               904.3583              1036.4343
 Red. masses --     17.4539                16.7602                12.6440
 Frc consts  --      6.2530                 8.0763                 8.0023
 IR Inten    --     10.3010               183.3592                83.0903

                     22                     23                     24
                      A                      A                      A
 Frequencies --   1146.9740              1198.6793              1259.6899
 Red. masses --      1.1969                13.5078                14.4233
 Frc consts  --      0.9277                11.4351                13.4847
 IR Inten    --    122.1512               143.3248                57.2478

                     25                     26                     27
                      A                      A                      A
 Frequencies --   1274.8862              1277.2496              1313.2271
 Red. masses --     12.4925                14.5243                13.3920
 Frc consts  --     11.9630                13.9604                13.6074
 IR Inten    --    257.0718                75.5903               349.9202

                     28                     29                     30
                      A                      A                      A
 Frequencies --   1393.0743              1501.7335              3802.6475
 Red. masses --     12.7093                15.2365                 1.0656
 Frc consts  --     14.5318                20.2451                 9.0785
 IR Inten    --     96.9190               279.7347               173.4030

 - Thermochemistry -
 -------------------
 Temperature   298.150 Kelvin.  Pressure   1.00000 Atm.
 Atom     1 has atomic number  6 and mass  12.00000

 Molecular mass:   199.95666 amu.
 Principal axes and moments of inertia in atomic units:
                           1         2         3
     Eigenvalues --  1137.674762086.715442236.34816
           X            0.89852   0.43673  -0.04393
           Y           -0.23265   0.55873   0.79605
           Z           -0.37220   0.70504  -0.60364
 This molecule is an asymmetric top.
 Rotational symmetry number  1.
 Warning -- assumption of classical behavior for rotation
           may cause significant error
 Rotational temperatures (Kelvin)      0.07613     0.04151     0.03873
 Rotational constants (GHZ):           1.58634     0.86487     0.80700
 Zero-point vibrational energy     140033.8 (Joules/Mol)
                                   33.46889 (Kcal/Mol)
 Warning -- explicit consideration of  16 degrees of freedom as
           vibrations may cause significant error
 Vibrational temperatures:     83.05   105.11   208.07   294.17   323.33
          (Kelvin)            348.81   415.15   450.26   465.33   515.72
                              562.09   645.41   685.19   762.25   780.97
                              875.38   907.36   957.64  1121.93  1301.17
                             1491.20  1650.24  1724.63  1812.41  1834.28
                             1837.68  1889.44  2004.32  2160.66  5471.16

 Zero-point correction=                           0.053336 (Hartree/Particle)
 Thermal correction to Energy=                    0.063502
 Thermal correction to Enthalpy=                  0.064446
 Thermal correction to Gibbs Free Energy=         0.017045
 Sum of electronic and zero-point Energies=          -1199.887227
 Sum of electronic and thermal Energies=             -1199.877061
 Sum of electronic and thermal Enthalpies=           -1199.876117
 Sum of electronic and thermal Free Energies=        -1199.923518

                     E (Thermal)             CV                S
                      KCal/Mol        Cal/Mol-Kelvin    Cal/Mol-Kelvin
 Total                   39.848             35.908             99.763
 Electronic               0.000              0.000              0.000
 Translational            0.889              2.981             41.783
 Rotational               0.889              2.981             30.052
 Vibrational             38.071             29.946             27.928
 Vibration     1          0.596              1.974              4.534
 Vibration     2          0.599              1.967              4.069
 Vibration     3          0.616              1.908              2.742
 Vibration     4          0.640              1.834              2.093
 Vibration     5          0.649              1.803              1.921
 Vibration     6          0.659              1.775              1.785
 Vibration     7          0.685              1.695              1.482
 Vibration     8          0.701              1.649              1.347
 Vibration     9          0.708              1.629              1.293
 Vibration    10          0.733              1.558              1.129
 Vibration    11          0.758              1.490              0.998
 Vibration    12          0.808              1.364              0.800
 Vibration    13          0.833              1.303              0.720
 Vibration    14          0.885              1.184              0.588
 Vibration    15          0.898              1.155              0.559
 Vibration    16          0.967              1.014              0.435

 Optimization completed.
    -- Stationary point found.
 Normal termination of Gaussian 16 at Sat May 24 00:01:05 2025.
