 Gaussian 16, Revision C.01,
 Gaussian 16:  ES64L-G16RevC.01  3-Jul-2019

 ----------------------------------------------------------------------
 #P M062X/Def2TZVPP Symm(None) scf(xqc) pop(None) opt(NoFreeze,TS,CalcA
 ll,NoEigentest,MaxCycle=999)
 ----------------------------------------------------------------------

 ------------------------------
 Gaussian input prepared by ASE
 ------------------------------
 Symbolic Z-matrix:
 Charge =  0 Multiplicity = 1

 SCF Done:  E(RM062X) =  -1199.78218095     A.U. after   15 cycles
 SCF Done:  E(RM062X) =  -1199.78891206     A.U. after   13 cycles
 SCF Done:  E(RM062X) =  -1199.79128436     A.U. after   14 cycles
 SCF Done:  E(RM062X) =  -1199.79193526     A.U. after   12 cycles
 SCF Done:  E(RM062X) =  -1199.79196718     A.U. after   10 cycles

 Isotropic polarizability for W=    0.000000       58.52 Bohr**3.
 End of Minotr F.D. properties file   721 does not exist.

 Optimization completed.
    -- Stationary point found.

                          Input orientation:
 ---------------------------------------------------------------------
 Center     Atomic      Atomic             Coordinates (Angstroms)
 Number     Number       Type             X           Y           Z
 ---------------------------------------------------------------------
      1          6           0       -0.433778   -2.141312   -1.133206
      2          6           0        0.494764   -1.734198    0.024625
      3          9           0        0.144678    0.035426    0.001942
      4          9           0       -0.041637   -2.116098    1.130004
      5         16           0        1.895297   -0.102131    0.088242
      6          8           0        2.305964   -0.480131    1.385223
      7          8           0        2.445073   -0.414542   -1.181680
      8          8           0        1.951574    1.477639    0.166495
      9          9           0       -0.114411   -1.506285   -2.245318
     10          9           0       -0.261496   -3.449367   -1.310574
     11          9           0       -1.713522   -1.914174   -0.861704
     12          1           0        1.936907    1.842268   -0.728530
 ---------------------------------------------------------------------

 ******    1 imaginary frequencies (negative Signs) ******

                      1                      2                      3
                      A                      A                      A
 Frequencies --   -373.1734                50.3735                89.6231
 Red. masses --     14.9351                15.7313                13.1206
 Frc consts  --      1.2254                 0.0235                 0.0621
 IR Inten    --      4.8388                 0.5520                 0.3181

                      4                      5                      6
                      A                      A                      A
 Frequencies --     96.5635               155.8744               196.4055
 Red. masses --     14.5243                10.5077                15.6458
 Frc consts  --      0.0798                 0.1504                 0.3556
 IR Inten    --      2.9117                39.6905                11.9355

                      7                      8                      9
                      A                      A                      A
 Frequencies --    253.8471               287.5070               309.7191
 Red. masses --     13.8727                 8.9432                 2.9306
 Frc consts  --      0.5267                 0.4356                 0.1656
 IR Inten    --      3.4831                 6.6123                55.6980

                     10                     11                     12
                      A                      A                      A
 Frequencies --    358.6863               372.6767               399.2269
 Red. masses --      7.9465                 6.8620                 2.8208
 Frc consts  --      0.6024                 0.5615                 0.2649
 IR Inten    --     12.3278                65.4465                21.2158

                     13                     14                     15
                      A                      A                      A
 Frequencies --    453.1480               519.5125               522.8059
 Red. masses --     16.9610                11.2991                 6.1939
 Frc consts  --      2.0520                 1.7967                 0.9975
 IR Inten    --      3.9703                24.3026                 9.5137

                     16                     17                     18
                      A                      A                      A
 Frequencies --    549.0319               583.3862               601.7772
 Red. masses --     17.6126                17.0420                17.7109
 Frc consts  --      3.1280                 3.4173                 3.7789
 IR Inten    --    145.5627                26.1566               279.8282

                     19                     20                     21
                      A                      A                      A
 Frequencies --    690.5347               738.8342               870.2190
 Red. masses --     13.9536                15.8701                15.6674
 Frc consts  --      3.9202                 5.1042                 6.9904
 IR Inten    --     85.3979                31.6174               348.5908

                     22                     23                     24
                      A                      A                      A
 Frequencies --    932.9175              1193.5976              1204.2062
 Red. masses --     14.3077                 1.2884                 8.5531
 Frc consts  --      7.3368                 1.0815                 7.3076
 IR Inten    --     20.2719                71.8227               116.3068

                     25                     26                     27
                      A                      A                      A
 Frequencies --   1244.1097              1288.1800              1306.5267
 Red. masses --     13.3255                12.8663                13.3163
 Frc consts  --     12.1521                12.5793                13.3927
 IR Inten    --    297.8007               147.0538               285.8876

                     28                     29                     30
                      A                      A                      A
 Frequencies --   1394.8298              1501.4348              3825.7906
 Red. masses --     13.1793                13.6092                 1.0657
 Frc consts  --     15.1072                18.0757                 9.1902
 IR Inten    --    126.1418               285.4019               157.2060

 - Thermochemistry -
 -------------------
 Temperature   298.150 Kelvin.  Pressure   1.00000 Atm.
 Atom     1 has atomic number  6 and mass  12.00000

 Molecular mass:   199.95666 amu.
 Principal axes and moments of inertia in atomic units:
                           1         2         3
     Eigenvalues --   967.751792586.112482809.45680
           X            0.66730  -0.13684   0.73211
           Y            0.67050  -0.31757  -0.67051
           Z            0.32425   0.93831  -0.12016
 This molecule is an asymmetric top.
 Rotational symmetry number  1.
 Warning -- assumption of classical behavior for rotation
           may cause significant error
 Rotational temperatures (Kelvin)      0.08950     0.03349     0.03083
 Rotational constants (GHZ):           1.86488     0.69786     0.64238
    1 imaginary frequencies ignored.
 Zero-point vibrational energy     131537.5 (Joules/Mol)
                                   31.43821 (Kcal/Mol)
 Warning -- explicit consideration of  17 degrees of freedom as
           vibrations may cause significant error
 Vibrational temperatures:     72.48   128.95   138.93   224.27   282.58
          (Kelvin)            365.23   413.66   445.62   516.07   536.20
                              574.40   651.98   747.46   752.20   789.93
                              839.36   865.82   993.53  1063.02  1252.05
                             1342.26  1717.32  1732.58  1790.00  1853.40
                             1879.80  2006.85  2160.23  5504.46

 Zero-point correction=                           0.050100 (Hartree/Particle)
 Thermal correction to Energy=                    0.060389
 Thermal correction to Enthalpy=                  0.061333
 Thermal correction to Gibbs Free Energy=         0.013284
 Sum of electronic and zero-point Energies=          -1199.741867
 Sum of electronic and thermal Energies=             -1199.731578
 Sum of electronic and thermal Enthalpies=           -1199.730634
 Sum of electronic and thermal Free Energies=        -1199.778683

                     E (Thermal)             CV                S
                      KCal/Mol        Cal/Mol-Kelvin    Cal/Mol-Kelvin
 Total                   37.895             35.924            101.128
 Electronic               0.000              0.000              0.000
 Translational            0.889              2.981             41.783
 Rotational               0.889              2.981             30.331
 Vibrational             36.117             29.963             29.013
 Vibration     1          0.595              1.977              4.803
 Vibration     2          0.602              1.957              3.668
 Vibration     3          0.603              1.952              3.523
 Vibration     4          0.620              1.896              2.599
 Vibration     5          0.636              1.845              2.167
 Vibration     6          0.665              1.756              1.704
 Vibration     7          0.685              1.697              1.489
 Vibration     8          0.699              1.655              1.364
 Vibration     9          0.734              1.557              1.128
 Vibration    10          0.744              1.528              1.069
 Vibration    11          0.765              1.472              0.965
 Vibration    12          0.812              1.354              0.786
 Vibration    13          0.875              1.207              0.611
 Vibration    14          0.878              1.199              0.603
 Vibration    15          0.904              1.142              0.546
 Vibration    16          0.940              1.067              0.479
 Vibration    17          0.960              1.028              0.447

 Normal termination of Gaussian 16 at Sat May 24 06:06:51 2025.
