 Gaussian 16, Revision C.01,
 Gaussian 16:  ES64L-G16RevC.01  3-Jul-2019

 ----------------------------------------------------------------------
 #P M062X/Def2TZVPP Symm(None) scf(xqc) pop(None) freq opt(CalcFC, Tigh
 t)
 ----------------------------------------------------------------------

 ------------------------------
 Gaussian input prepared by ASE
 ------------------------------
 Symbolic Z-matrix:
 Charge =  0 Multiplicity = 1

 SCF Done:  E(RM062X) =  -1199.93460249     A.U. after   13 cycles
 SCF Done:  E(RM062X) =  -1199.93900804     A.U. after   13 cycles
 SCF Done:  E(RM062X) =  -1199.92609229     A.U. after   12 cycles
 SCF Done:  E(RM062X) =  -1199.93971112     A.U. after   12 cycles
 SCF Done:  E(RM062X) =  -1199.94042084     A.U. after   12 cycles
 SCF Done:  E(RM062X) =  -1199.94060491     A.U. after   11 cycles
 SCF Done:  E(RM062X) =  -1199.94065334     A.U. after   10 cycles
 SCF Done:  E(RM062X) =  -1199.94066432     A.U. after   10 cycles
 SCF Done:  E(RM062X) =  -1199.94067108     A.U. after    9 cycles
 SCF Done:  E(RM062X) =  -1199.94067509     A.U. after   10 cycles
 SCF Done:  E(RM062X) =  -1199.94067545     A.U. after    8 cycles
 SCF Done:  E(RM062X) =  -1199.94067547     A.U. after    6 cycles
 SCF Done:  E(RM062X) =  -1199.94067547     A.U. after    5 cycles
 SCF Done:  E(RM062X) =  -1199.94067547     A.U. after    4 cycles
 Optimization completed.
    -- Stationary point found.
 Normal termination of Gaussian 16 at Fri May 23 23:55:02 2025.

 ---------------------------------------------------------------------
 #P Geom=AllCheck Guess=TCheck SCRF=Check GenChk RM062X/def2TZVPP Freq
 ---------------------------------------------------------------------

 Structure from the checkpoint file:  "/tmp/Gau-164983.chk"
 ------------------------------
 Gaussian input prepared by ASE
 ------------------------------
 Charge =  0 Multiplicity = 1

                          Input orientation:
 ---------------------------------------------------------------------
 Center     Atomic      Atomic             Coordinates (Angstroms)
 Number     Number       Type             X           Y           Z
 ---------------------------------------------------------------------
      1          6           0       -0.617777   -1.331622    0.195883
      2          6           0        0.073615    0.047951    0.103192
      3          9           0       -0.214183    0.588733   -1.087293
      4          9           0       -0.396627    0.833128    1.068198
      5         16           0        1.909033   -0.030780    0.253873
      6          8           0        2.223014   -0.230026    1.614952
      7          8           0        2.374444   -0.866795   -0.794172
      8          8           0        2.235587    1.467885   -0.089101
      9          9           0       -0.301449   -2.079405   -0.846160
     10          9           0       -0.253264   -1.948888    1.307948
     11          9           0       -1.930338   -1.148114    0.211672
     12          1           0        2.345886    1.577525   -1.044796
 ---------------------------------------------------------------------

 SCF Done:  E(RM062X) =  -1199.94067547     A.U. after    1 cycles

 Isotropic polarizability for W=    0.000000       53.49 Bohr**3.
 End of Minotr F.D. properties file   721 does not exist.

                      1                      2                      3
                      A                      A                      A
 Frequencies --     21.6749                68.8977               128.1259
 Red. masses --     14.7150                13.7870                14.6245
 Frc consts  --      0.0041                 0.0386                 0.1415
 IR Inten    --      1.2285                 0.9851                 1.3852

                      4                      5                      6
                      A                      A                      A
 Frequencies --    192.2166               221.5061               237.5903
 Red. masses --      9.2274                16.7996                 7.7241
 Frc consts  --      0.2009                 0.4856                 0.2569
 IR Inten    --      7.8949                 1.6721                11.9833

                      7                      8                      9
                      A                      A                      A
 Frequencies --    283.5565               317.4154               323.4012
 Red. masses --     13.4728                 5.0517                17.8963
 Frc consts  --      0.6382                 0.2999                 1.1028
 IR Inten    --      0.3098                16.2584                 0.0413

                     10                     11                     12
                      A                      A                      A
 Frequencies --    363.8994               376.1599               446.1548
 Red. masses --      1.8572                16.0672                 4.8008
 Frc consts  --      0.1449                 1.3395                 0.5630
 IR Inten    --     53.4752                 0.9214                22.5527

                     13                     14                     15
                      A                      A                      A
 Frequencies --    499.7126               507.2236               543.7108
 Red. masses --      7.3516                14.7006                17.7522
 Frc consts  --      1.0816                 2.2284                 3.0920
 IR Inten    --      7.8213                32.5525                25.3509

                     16                     17                     18
                      A                      A                      A
 Frequencies --    608.8827               630.7568               664.0456
 Red. masses --     17.1470                19.4401                17.6360
 Frc consts  --      3.7455                 4.5569                 4.5819
 IR Inten    --      3.6986               110.9493                47.0764

                     19                     20                     21
                      A                      A                      A
 Frequencies --    781.7228               897.9936              1041.0237
 Red. masses --     17.3617                16.5723                14.0139
 Frc consts  --      6.2510                 7.8737                 8.9481
 IR Inten    --     19.5153               228.7698                28.4780

                     22                     23                     24
                      A                      A                      A
 Frequencies --   1138.8344              1200.8560              1256.1905
 Red. masses --      1.1818                13.6124                15.9162
 Frc consts  --      0.9031                11.5655                14.7980
 IR Inten    --     93.1297               247.0089                16.2098

                     25                     26                     27
                      A                      A                      A
 Frequencies --   1263.5737              1301.8240              1305.0684
 Red. masses --     13.3311                13.8474                13.2102
 Frc consts  --     12.5406                13.8268                13.2564
 IR Inten    --     89.8834               320.6784               236.1478

                     28                     29                     30
                      A                      A                      A
 Frequencies --   1389.3809              1504.2924              3806.4221
 Red. masses --     12.6855                15.5274                 1.0657
 Frc consts  --     14.4278                20.7020                 9.0970
 IR Inten    --     91.6111               295.8324               188.0137

 - Thermochemistry -
 -------------------
 Temperature   298.150 Kelvin.  Pressure   1.00000 Atm.
 Atom     1 has atomic number  6 and mass  12.00000

 Molecular mass:   199.95666 amu.
 Principal axes and moments of inertia in atomic units:
                           1         2         3
     Eigenvalues --  1118.910102147.726872266.32128
           X            0.87930  -0.47069  -0.07271
           Y            0.47622   0.87122   0.11917
           Z            0.00725  -0.13941   0.99021
 This molecule is an asymmetric top.
 Rotational symmetry number  1.
 Warning -- assumption of classical behavior for rotation
           may cause significant error
 Rotational temperatures (Kelvin)      0.07741     0.04033     0.03822
 Rotational constants (GHZ):           1.61295     0.84030     0.79633
 Zero-point vibrational energy     139497.2 (Joules/Mol)
                                   33.34064 (Kcal/Mol)
 Warning -- explicit consideration of  16 degrees of freedom as
           vibrations may cause significant error
 Vibrational temperatures:     31.19    99.13   184.34   276.56   318.70
          (Kelvin)            341.84   407.97   456.69   465.30   523.57
                              541.21   641.92   718.97   729.78   782.28
                              876.05   907.52   955.41  1124.72  1292.01
                             1497.80  1638.53  1727.76  1807.38  1818.00
                             1873.03  1877.70  1999.01  2164.34  5476.59

 Zero-point correction=                           0.053132 (Hartree/Particle)
 Thermal correction to Energy=                    0.063454
 Thermal correction to Enthalpy=                  0.064398
 Thermal correction to Gibbs Free Energy=         0.015796
 Sum of electronic and zero-point Energies=          -1199.887544
 Sum of electronic and thermal Energies=             -1199.877222
 Sum of electronic and thermal Enthalpies=           -1199.876278
 Sum of electronic and thermal Free Energies=        -1199.924880

                     E (Thermal)             CV                S
                      KCal/Mol        Cal/Mol-Kelvin    Cal/Mol-Kelvin
 Total                   39.818             35.996            102.292
 Electronic               0.000              0.000              0.000
 Translational            0.889              2.981             41.783
 Rotational               0.889              2.981             30.078
 Vibrational             38.040             30.035             30.431
 Vibration     1          0.593              1.985              6.475
 Vibration     2          0.598              1.969              4.185
 Vibration     3          0.611              1.925              2.974
 Vibration     4          0.634              1.851              2.206
 Vibration     5          0.648              1.808              1.947
 Vibration     6          0.656              1.783              1.821
 Vibration     7          0.682              1.704              1.512
 Vibration     8          0.704              1.640              1.323
 Vibration     9          0.708              1.629              1.293
 Vibration    10          0.737              1.547              1.105
 Vibration    11          0.747              1.521              1.055
 Vibration    12          0.805              1.369              0.807
 Vibration    13          0.855              1.251              0.659
 Vibration    14          0.862              1.234              0.640
 Vibration    15          0.899              1.153              0.557
 Vibration    16          0.968              1.013              0.435

 Optimization completed.
    -- Stationary point found.
 Normal termination of Gaussian 16 at Sat May 24 00:00:19 2025.
