 Gaussian 16, Revision C.01,
 Gaussian 16:  ES64L-G16RevC.01  3-Jul-2019

 ----------------------------------------------------------------------
 #P M062X/Def2TZVPP Symm(None) scf(xqc) pop(None) opt(NoFreeze,TS,CalcA
 ll,NoEigentest,MaxCycle=999)
 ----------------------------------------------------------------------

 ------------------------------
 Gaussian input prepared by ASE
 ------------------------------
 Symbolic Z-matrix:
 Charge =  0 Multiplicity = 1

 SCF Done:  E(RM062X) =  -1199.66215957     A.U. after   22 cycles
 SCF Done:  E(RM062X) =  -1199.67339398     A.U. after   17 cycles
 SCF Done:  E(RM062X) =  -1199.67427521     A.U. after   17 cycles
 SCF Done:  E(RM062X) =  -1199.67428145     A.U. after   15 cycles
 SCF Done:  E(RM062X) =  -1199.67428147     A.U. after    9 cycles

 Isotropic polarizability for W=    0.000000       69.76 Bohr**3.
 End of Minotr F.D. properties file   721 does not exist.

 Optimization completed.
    -- Stationary point found.

                          Input orientation:
 ---------------------------------------------------------------------
 Center     Atomic      Atomic             Coordinates (Angstroms)
 Number     Number       Type             X           Y           Z
 ---------------------------------------------------------------------
      1          6           0        1.884208   -0.990340   -1.196869
      2          6           0        2.228571    0.006652   -0.116104
      3          9           0       -0.283491    0.460204    0.070699
      4          9           0        2.475567   -0.536672    1.058860
      5         16           0        1.934690    1.656437   -0.083823
      6          8           0        0.521707    1.978849    0.262463
      7          8           0        2.856783    2.326626    0.750430
      8          8           0        2.021798    2.097589   -1.569616
      9          9           0        1.277670   -0.426081   -2.228718
     10          9           0        3.017145   -1.551971   -1.643987
     11          9           0        1.129030   -1.968663   -0.721375
     12          1           0        2.946403    2.216597   -1.835980
 ---------------------------------------------------------------------

 ******    1 imaginary frequencies (negative Signs) ******

                      1                      2                      3
                      A                      A                      A
 Frequencies --   -632.7366                39.2053                68.3708
 Red. masses --     17.9121                14.6640                14.7484
 Frc consts  --      4.2252                 0.0133                 0.0406
 IR Inten    --    730.2655                 0.6846                 0.6426

                      4                      5                      6
                      A                      A                      A
 Frequencies --     91.9079               140.6967               169.2295
 Red. masses --     17.4334                14.7986                 9.1035
 Frc consts  --      0.0868                 0.1726                 0.1536
 IR Inten    --      1.0562                 5.8055                 8.9815

                      7                      8                      9
                      A                      A                      A
 Frequencies --    230.4577               245.0278               279.7681
 Red. masses --      4.8090                16.6041                 2.8463
 Frc consts  --      0.1505                 0.5873                 0.1313
 IR Inten    --     17.0323                 4.7114                50.6061

                     10                     11                     12
                      A                      A                      A
 Frequencies --    301.6849               324.7794               344.1029
 Red. masses --      5.1112                 5.4675                 6.3180
 Frc consts  --      0.2741                 0.3398                 0.4408
 IR Inten    --     11.7294                18.2573                14.5959

                     13                     14                     15
                      A                      A                      A
 Frequencies --    437.8037               461.3667               483.7929
 Red. masses --     11.3459                 7.0681                11.7274
 Frc consts  --      1.2813                 0.8864                 1.6172
 IR Inten    --      3.7911                35.9656                14.4337

                     16                     17                     18
                      A                      A                      A
 Frequencies --    513.1316               596.1657               611.0377
 Red. masses --     14.4803                16.6302                16.6706
 Frc consts  --      2.2464                 3.4824                 3.6672
 IR Inten    --     45.6115                13.5721                14.0598

                     19                     20                     21
                      A                      A                      A
 Frequencies --    633.9927               772.2519               904.4818
 Red. masses --     17.3493                17.4746                16.4855
 Frc consts  --      4.1087                 6.1401                 7.9461
 IR Inten    --    118.6138                10.0073                23.7248

                     22                     23                     24
                      A                      A                      A
 Frequencies --    973.8235              1084.0350              1140.6972
 Red. masses --     16.2672                11.6487                 1.1977
 Frc consts  --      9.0891                 8.0652                 0.9182
 IR Inten    --    249.3076               161.3096                41.3032

                     25                     26                     27
                      A                      A                      A
 Frequencies --   1201.2204              1287.9602              1303.2850
 Red. masses --     13.0360                13.5341                12.7733
 Frc consts  --     11.0825                13.2277                12.7830
 IR Inten    --    229.4284               277.1381               121.0670

                     28                     29                     30
                      A                      A                      A
 Frequencies --   1377.2560              1417.8868              3792.2330
 Red. masses --     12.9716                16.5629                 1.0659
 Frc consts  --     14.4968                19.6187                 9.0311
 IR Inten    --    310.2963               214.2673               237.2205

 - Thermochemistry -
 -------------------
 Temperature   298.150 Kelvin.  Pressure   1.00000 Atm.
 Atom     1 has atomic number  6 and mass  12.00000

 Molecular mass:   199.95666 amu.
 Principal axes and moments of inertia in atomic units:
                           1         2         3
     Eigenvalues --  1219.988192268.202082336.74270
           X           -0.04338   0.99804   0.04515
           Y            0.93095   0.05678  -0.36071
           Z            0.36257  -0.02639   0.93158
 This molecule is an asymmetric top.
 Rotational symmetry number  1.
 Warning -- assumption of classical behavior for rotation
           may cause significant error
 Rotational temperatures (Kelvin)      0.07100     0.03819     0.03707
 Rotational constants (GHZ):           1.47931     0.79567     0.77233
    1 imaginary frequencies ignored.
 Zero-point vibrational energy     126969.6 (Joules/Mol)
                                   30.34645 (Kcal/Mol)
 Warning -- explicit consideration of  17 degrees of freedom as
           vibrations may cause significant error
 Vibrational temperatures:     56.41    98.37   132.23   202.43   243.48
          (Kelvin)            331.58   352.54   402.52   434.06   467.29
                              495.09   629.90   663.80   696.07   738.28
                              857.75   879.15   912.17  1111.10  1301.35
                             1401.11  1559.68  1641.21  1728.29  1853.09
                             1875.14  1981.56  2040.02  5456.18

 Zero-point correction=                           0.048360 (Hartree/Particle)
 Thermal correction to Energy=                    0.059219
 Thermal correction to Enthalpy=                  0.060163
 Thermal correction to Gibbs Free Energy=         0.010569
 Sum of electronic and zero-point Energies=          -1199.625921
 Sum of electronic and thermal Energies=             -1199.615063
 Sum of electronic and thermal Enthalpies=           -1199.614119
 Sum of electronic and thermal Free Energies=        -1199.663713

                     E (Thermal)             CV                S
                      KCal/Mol        Cal/Mol-Kelvin    Cal/Mol-Kelvin
 Total                   37.160             36.917            104.379
 Electronic               0.000              0.000              0.000
 Translational            0.889              2.981             41.783
 Rotational               0.889              2.981             30.248
 Vibrational             35.383             30.956             32.348
 Vibration     1          0.594              1.981              5.299
 Vibration     2          0.598              1.969              4.200
 Vibration     3          0.602              1.955              3.619
 Vibration     4          0.615              1.913              2.794
 Vibration     5          0.625              1.880              2.444
 Vibration     6          0.652              1.794              1.875
 Vibration     7          0.660              1.771              1.766
 Vibration     8          0.680              1.711              1.535
 Vibration     9          0.694              1.671              1.408
 Vibration    10          0.709              1.626              1.286
 Vibration    11          0.723              1.587              1.193
 Vibration    12          0.798              1.388              0.834
 Vibration    13          0.819              1.336              0.762
 Vibration    14          0.840              1.286              0.700
 Vibration    15          0.868              1.221              0.626
 Vibration    16          0.954              1.040              0.456
 Vibration    17          0.970              1.008              0.431

 Normal termination of Gaussian 16 at Sat May 24 08:37:01 2025.
