 Gaussian 16, Revision C.01,
 Gaussian 16:  ES64L-G16RevC.01  3-Jul-2019

 ----------------------------------------------------------------------
 #P M062X/Def2TZVPP Symm(None) scf(xqc) pop(None) opt(NoFreeze,TS,CalcA
 ll,NoEigentest,MaxCycle=999)
 ----------------------------------------------------------------------

 ------------------------------
 Gaussian input prepared by ASE
 ------------------------------
 Symbolic Z-matrix:
 Charge =  0 Multiplicity = 1

 SCF Done:  E(RM062X) =  -1199.73568466     A.U. after   22 cycles
 SCF Done:  E(RM062X) =  -1199.73852379     A.U. after   18 cycles
 SCF Done:  E(RM062X) =  -1199.74032173     A.U. after   17 cycles
 SCF Done:  E(RM062X) =  -1199.74040461     A.U. after   15 cycles
 SCF Done:  E(RM062X) =  -1199.74040469     A.U. after   11 cycles

 Isotropic polarizability for W=    0.000000       66.44 Bohr**3.
 End of Minotr F.D. properties file   721 does not exist.

 Optimization completed.
    -- Stationary point found.

                          Input orientation:
 ---------------------------------------------------------------------
 Center     Atomic      Atomic             Coordinates (Angstroms)
 Number     Number       Type             X           Y           Z
 ---------------------------------------------------------------------
      1          6           0       -0.789244    0.551629    1.149714
      2          6           0        0.035588   -0.024404   -0.005635
      3          9           0       -0.350574   -1.273633   -0.254677
      4          9           0       -0.231950    0.737046   -1.098571
      5         16           0        2.106320   -0.064012   -0.014810
      6          8           0        1.925792   -0.397036    1.455312
      7          8           0        3.505345   -0.350227    0.589770
      8          8           0        2.241214    1.521934   -0.141738
      9          9           0       -0.675827   -0.193355    2.234581
     10          9           0       -0.363865    1.785546    1.419254
     11          9           0       -2.075596    0.618588    0.816704
     12          1           0        1.466577    1.904389   -0.577919
 ---------------------------------------------------------------------

 ******    1 imaginary frequencies (negative Signs) ******

                      1                      2                      3
                      A                      A                      A
 Frequencies --   -878.3948                52.1771                76.7368
 Red. masses --     17.9709                11.9433                13.5721
 Frc consts  --      8.1696                 0.0192                 0.0471
 IR Inten    --    460.9591                 1.6361                 0.7502

                      4                      5                      6
                      A                      A                      A
 Frequencies --    120.1279               175.7243               200.3745
 Red. masses --     16.5963                13.5387                17.5853
 Frc consts  --      0.1411                 0.2463                 0.4160
 IR Inten    --      1.3327                 4.4067                11.3101

                      7                      8                      9
                      A                      A                      A
 Frequencies --    226.0594               235.8268               293.6422
 Red. masses --     15.0220                13.0767                13.5412
 Frc consts  --      0.4523                 0.4285                 0.6879
 IR Inten    --      3.4798                 0.8287                 3.5974

                     10                     11                     12
                      A                      A                      A
 Frequencies --    303.0784               349.5058               374.2708
 Red. masses --     14.5122                 2.1254                 7.8266
 Frc consts  --      0.7854                 0.1530                 0.6459
 IR Inten    --      3.1922                83.3123                14.4970

                     13                     14                     15
                      A                      A                      A
 Frequencies --    405.4655               455.0158               477.8378
 Red. masses --      2.7079                13.2406                 7.7505
 Frc consts  --      0.2623                 1.6151                 1.0427
 IR Inten    --     18.7727                 0.3309                10.3703

                     16                     17                     18
                      A                      A                      A
 Frequencies --    540.3631               602.0518               629.4186
 Red. masses --     17.7755                17.7823                17.0142
 Frc consts  --      3.0580                 3.7976                 3.9714
 IR Inten    --      4.3792                 2.0833                 8.5554

                     19                     20                     21
                      A                      A                      A
 Frequencies --    752.2493               858.9106               872.9945
 Red. masses --     16.1474                17.0982                14.0415
 Frc consts  --      5.3837                 7.4318                 6.3050
 IR Inten    --     45.8281                72.8504               100.3683

                     22                     23                     24
                      A                      A                      A
 Frequencies --    933.5144              1116.3012              1130.1591
 Red. masses --     13.2557                 4.5203                15.8669
 Frc consts  --      6.8060                 3.3188                11.9405
 IR Inten    --     80.4403               253.3954                15.9628

                     25                     26                     27
                      A                      A                      A
 Frequencies --   1181.6355              1231.8228              1255.7548
 Red. masses --      1.4469                 9.0211                12.9720
 Frc consts  --      1.1903                 8.0651                12.0522
 IR Inten    --    154.4764                90.2444               242.9043

                     28                     29                     30
                      A                      A                      A
 Frequencies --   1294.9956              1371.1574              3804.7490
 Red. masses --     13.0642                12.5909                 1.0658
 Frc consts  --     12.9083                13.9470                 9.0899
 IR Inten    --    246.7641               288.8981               128.1034

 - Thermochemistry -
 -------------------
 Temperature   298.150 Kelvin.  Pressure   1.00000 Atm.
 Atom     1 has atomic number  6 and mass  12.00000

 Molecular mass:   199.95666 amu.
 Principal axes and moments of inertia in atomic units:
                           1         2         3
     Eigenvalues --  1087.401262419.214532497.14549
           X            0.98009   0.15844   0.11967
           Y           -0.10604  -0.09184   0.99011
           Z           -0.16786   0.98309   0.07321
 This molecule is an asymmetric top.
 Rotational symmetry number  1.
 Warning -- assumption of classical behavior for rotation
           may cause significant error
 Rotational temperatures (Kelvin)      0.07965     0.03580     0.03469
 Rotational constants (GHZ):           1.65968     0.74600     0.72272
    1 imaginary frequencies ignored.
 Zero-point vibrational energy     127533.4 (Joules/Mol)
                                   30.48122 (Kcal/Mol)
 Warning -- explicit consideration of  16 degrees of freedom as
           vibrations may cause significant error
 Vibrational temperatures:     75.07   110.41   172.84   252.83   288.29
          (Kelvin)            325.25   339.30   422.49   436.06   502.86
                              538.49   583.37   654.67   687.50   777.46
                              866.22   905.59  1082.32  1235.78  1256.04
                             1343.12  1606.11  1626.05  1700.11  1772.32
                             1806.75  1863.21  1972.79  5474.19

 Zero-point correction=                           0.048575 (Hartree/Particle)
 Thermal correction to Energy=                    0.059123
 Thermal correction to Enthalpy=                  0.060067
 Thermal correction to Gibbs Free Energy=         0.011603
 Sum of electronic and zero-point Energies=          -1199.691830
 Sum of electronic and thermal Energies=             -1199.681282
 Sum of electronic and thermal Enthalpies=           -1199.680338
 Sum of electronic and thermal Free Energies=        -1199.728802

                     E (Thermal)             CV                S
                      KCal/Mol        Cal/Mol-Kelvin    Cal/Mol-Kelvin
 Total                   37.100             36.502            102.001
 Electronic               0.000              0.000              0.000
 Translational            0.889              2.981             41.783
 Rotational               0.889              2.981             30.264
 Vibrational             35.323             30.540             29.954
 Vibration     1          0.596              1.977              4.733
 Vibration     2          0.599              1.965              3.973
 Vibration     3          0.609              1.932              3.098
 Vibration     4          0.628              1.872              2.373
 Vibration     5          0.638              1.839              2.130
 Vibration     6          0.650              1.801              1.910
 Vibration     7          0.655              1.786              1.834
 Vibration     8          0.688              1.686              1.453
 Vibration     9          0.695              1.668              1.400
 Vibration    10          0.727              1.576              1.168
 Vibration    11          0.745              1.525              1.062
 Vibration    12          0.770              1.458              0.943
 Vibration    13          0.813              1.350              0.781
 Vibration    14          0.834              1.299              0.716
 Vibration    15          0.895              1.161              0.565
 Vibration    16          0.960              1.027              0.446

 Normal termination of Gaussian 16 at Sat May 24 06:48:11 2025.
