 Gaussian 16, Revision C.01,
 Gaussian 16:  ES64L-G16RevC.01  3-Jul-2019

 ----------------------------------------------------------------------
 #P M062X/Def2TZVPP Symm(None) scf(xqc) pop(None) opt(NoFreeze,TS,CalcA
 ll,NoEigentest,MaxCycle=999)
 ----------------------------------------------------------------------

 ------------------------------
 Gaussian input prepared by ASE
 ------------------------------
 Symbolic Z-matrix:
 Charge =  0 Multiplicity = 1

 SCF Done:  E(RM062X) =  -1199.73195952     A.U. after   17 cycles
 SCF Done:  E(RM062X) =  -1199.75201946     A.U. after   15 cycles
 SCF Done:  E(RM062X) =  -1199.75902007     A.U. after   15 cycles
 SCF Done:  E(RM062X) =  -1199.76117944     A.U. after   14 cycles
 SCF Done:  E(RM062X) =  -1199.76151049     A.U. after   13 cycles
 SCF Done:  E(RM062X) =  -1199.76151960     A.U. after   11 cycles
 SCF Done:  E(RM062X) =  -1199.76151971     A.U. after    8 cycles

 Isotropic polarizability for W=    0.000000       58.90 Bohr**3.
 End of Minotr F.D. properties file   721 does not exist.

 Optimization completed.
    -- Stationary point found.

                          Input orientation:
 ---------------------------------------------------------------------
 Center     Atomic      Atomic             Coordinates (Angstroms)
 Number     Number       Type             X           Y           Z
 ---------------------------------------------------------------------
      1          6           0       -0.081594   -1.071481    1.036027
      2          6           0       -0.069064   -0.116224   -0.189216
      3          9           0       -0.635870   -0.607269   -1.260550
      4          9           0       -0.722327    0.997669    0.163178
      5         16           0        1.759714    0.100346   -0.137065
      6          8           0        1.853487   -0.301175    1.283320
      7          8           0        2.654125   -0.077037   -1.214143
      8          8           0        1.785685    1.698006   -0.007264
      9          9           0        1.275076   -1.832671   -0.321451
     10          9           0       -0.346849   -0.541732    2.172467
     11          9           0       -0.516036   -2.255815    1.024111
     12          1           0        1.499960    1.970113    0.873217
 ---------------------------------------------------------------------

 ******    1 imaginary frequencies (negative Signs) ******

                      1                      2                      3
                      A                      A                      A
 Frequencies --   -393.9072               101.8840               137.9504
 Red. masses --     16.9938                15.1110                 9.3735
 Frc consts  --      1.5536                 0.0924                 0.1051
 IR Inten    --      3.9520               141.4209                83.4742

                      4                      5                      6
                      A                      A                      A
 Frequencies --    190.4791               206.1764               254.4929
 Red. masses --     18.1733                10.6165                16.3862
 Frc consts  --      0.3885                 0.2659                 0.6253
 IR Inten    --     11.4325                30.1078                 0.9440

                      7                      8                      9
                      A                      A                      A
 Frequencies --    283.4027               300.1898               311.7533
 Red. masses --     11.9089                14.8173                12.2485
 Frc consts  --      0.5635                 0.7867                 0.7014
 IR Inten    --      8.1847                 3.7124                35.5041

                     10                     11                     12
                      A                      A                      A
 Frequencies --    381.6096               401.5636               415.5961
 Red. masses --      8.0773                 1.6031                16.7334
 Frc consts  --      0.6930                 0.1523                 1.7029
 IR Inten    --      7.9726                81.3956                55.2309

                     13                     14                     15
                      A                      A                      A
 Frequencies --    437.4862               510.7067               544.4924
 Red. masses --     14.5198                 6.6563                 5.2132
 Frc consts  --      1.6373                 1.0229                 0.9106
 IR Inten    --     43.1968                 4.7148                47.7541

                     16                     17                     18
                      A                      A                      A
 Frequencies --    565.8109               582.3979               646.9299
 Red. masses --     16.4474                16.6869                17.7691
 Frc consts  --      3.1023                 3.3348                 4.3816
 IR Inten    --     45.8550               126.1997                38.1657

                     19                     20                     21
                      A                      A                      A
 Frequencies --    680.1954               774.6685               827.2811
 Red. masses --     15.9653                16.3109                14.7601
 Frc consts  --      4.3521                 5.7671                 5.9517
 IR Inten    --     35.8211                42.1861               218.8369

                     22                     23                     24
                      A                      A                      A
 Frequencies --    981.8111              1100.0958              1166.6212
 Red. masses --     12.6282                10.6336                 2.4924
 Frc consts  --      7.1721                 7.5821                 1.9986
 IR Inten    --     35.4215               180.8283               257.3773

                     25                     26                     27
                      A                      A                      A
 Frequencies --   1182.5471              1321.0011              1384.2978
 Red. masses --      2.0801                13.4505                13.0458
 Frc consts  --      1.7138                13.8291                14.7293
 IR Inten    --     24.1819               302.8839               202.4637

                     28                     29                     30
                      A                      A                      A
 Frequencies --   1422.2848              1494.1176              3846.9988
 Red. masses --     15.0142                13.1512                 1.0658
 Frc consts  --     17.8948                17.2975                 9.2937
 IR Inten    --    398.0313               233.1596               113.8088

 - Thermochemistry -
 -------------------
 Temperature   298.150 Kelvin.  Pressure   1.00000 Atm.
 Atom     1 has atomic number  6 and mass  12.00000

 Molecular mass:   199.95666 amu.
 Principal axes and moments of inertia in atomic units:
                           1         2         3
     Eigenvalues --  1234.968731876.616641975.98447
           X            0.74410  -0.45750   0.48684
           Y            0.51434   0.85736   0.01957
           Z           -0.42635   0.23584   0.87327
 This molecule is an asymmetric top.
 Rotational symmetry number  1.
 Warning -- assumption of classical behavior for rotation
           may cause significant error
 Rotational temperatures (Kelvin)      0.07013     0.04615     0.04383
 Rotational constants (GHZ):           1.46137     0.96170     0.91334
    1 imaginary frequencies ignored.
 Zero-point vibrational energy     134309.8 (Joules/Mol)
                                   32.10081 (Kcal/Mol)
 Warning -- explicit consideration of  16 degrees of freedom as
           vibrations may cause significant error
 Vibrational temperatures:    146.59   198.48   274.06   296.64   366.16
          (Kelvin)            407.75   431.91   448.54   549.05   577.76
                              597.95   629.45   734.79   783.40   814.08
                              837.94   930.79   978.65  1114.58  1190.27
                             1412.61  1582.79  1678.51  1701.42  1900.63
                             1991.70  2046.35  2149.70  5534.97

 Zero-point correction=                           0.051156 (Hartree/Particle)
 Thermal correction to Energy=                    0.060767
 Thermal correction to Enthalpy=                  0.061711
 Thermal correction to Gibbs Free Energy=         0.016298
 Sum of electronic and zero-point Energies=          -1199.710364
 Sum of electronic and thermal Energies=             -1199.700753
 Sum of electronic and thermal Enthalpies=           -1199.699808
 Sum of electronic and thermal Free Energies=        -1199.745222

                     E (Thermal)             CV                S
                      KCal/Mol        Cal/Mol-Kelvin    Cal/Mol-Kelvin
 Total                   38.132             35.295             95.581
 Electronic               0.000              0.000              0.000
 Translational            0.889              2.981             41.783
 Rotational               0.889              2.981             29.905
 Vibrational             36.355             29.333             23.892
 Vibration     1          0.604              1.948              3.418
 Vibration     2          0.614              1.915              2.832
 Vibration     3          0.634              1.853              2.223
 Vibration     4          0.641              1.831              2.077
 Vibration     5          0.665              1.755              1.699
 Vibration     6          0.682              1.704              1.513
 Vibration     7          0.693              1.673              1.416
 Vibration     8          0.700              1.651              1.353
 Vibration     9          0.751              1.509              1.033
 Vibration    10          0.767              1.467              0.957
 Vibration    11          0.779              1.436              0.907
 Vibration    12          0.798              1.388              0.835
 Vibration    13          0.866              1.226              0.632
 Vibration    14          0.900              1.152              0.556
 Vibration    15          0.922              1.105              0.512
 Vibration    16          0.939              1.069              0.481

 Normal termination of Gaussian 16 at Sat May 24 06:40:34 2025.
