 Gaussian 16, Revision C.01,
 Gaussian 16:  ES64L-G16RevC.01  3-Jul-2019

 ------------------------------------------
 #P am1 Symm(None) scf(xqc) pop(None) force
 ------------------------------------------

 ------------------------------
 Gaussian input prepared by ASE
 ------------------------------
 Symbolic Z-matrix:
 Charge =  0 Multiplicity = 1

                          Input orientation:
 ---------------------------------------------------------------------
 Center     Atomic      Atomic             Coordinates (Angstroms)
 Number     Number       Type             X           Y           Z
 ---------------------------------------------------------------------
      1          6           0       -0.179998    0.527544    0.401061
      2          6           0        1.654941   -0.473803   -0.603123
      3          9           0        2.013316   -1.635261   -0.045427
      4          9           0        1.375499   -0.768554   -1.888526
      5         16           0        2.498369    1.084268   -0.187625
      6          8           0        1.189934    1.744227    0.042777
      7          8           0        3.405702    1.370475    0.869719
      8          8           0        3.028111    1.850452   -1.467776
      9          9           0       -0.840327    1.548614    0.905577
     10          9           0       -0.753484    0.108651   -0.688671
     11          9           0        0.115479   -0.323812    1.339020
     12          1           0        3.250950    2.791377   -1.419605
 ---------------------------------------------------------------------

 SCF Done:  E(RAM1) =  0.256638549446     A.U. after   17 cycles
 Normal termination of Gaussian 16 at Sat May 24 10:26:12 2025.
