 Gaussian 16, Revision C.01,
 Gaussian 16:  ES64L-G16RevC.01  3-Jul-2019

 ----------------------------------------------------------------------
 #P M062X/Def2TZVPP Symm(None) scf(xqc) pop(None) freq opt(CalcFC, Tigh
 t)
 ----------------------------------------------------------------------

 ------------------------------
 Gaussian input prepared by ASE
 ------------------------------
 Symbolic Z-matrix:
 Charge =  0 Multiplicity = 1

 SCF Done:  E(RM062X) =  -1199.93197995     A.U. after   13 cycles
 SCF Done:  E(RM062X) =  -1199.93829559     A.U. after   13 cycles
 SCF Done:  E(RM062X) =  -1199.93983940     A.U. after   13 cycles
 SCF Done:  E(RM062X) =  -1199.94017789     A.U. after   11 cycles
 SCF Done:  E(RM062X) =  -1199.94052355     A.U. after   12 cycles
 SCF Done:  E(RM062X) =  -1199.94063605     A.U. after   10 cycles
 SCF Done:  E(RM062X) =  -1199.94066876     A.U. after   11 cycles
 SCF Done:  E(RM062X) =  -1199.94068073     A.U. after   10 cycles
 SCF Done:  E(RM062X) =  -1199.94068221     A.U. after    8 cycles
 SCF Done:  E(RM062X) =  -1199.94068223     A.U. after    6 cycles
 SCF Done:  E(RM062X) =  -1199.94068223     A.U. after    5 cycles
 SCF Done:  E(RM062X) =  -1199.94068224     A.U. after    5 cycles
 SCF Done:  E(RM062X) =  -1199.94068224     A.U. after    3 cycles
 Optimization completed.
    -- Stationary point found.
 Normal termination of Gaussian 16 at Fri May 23 23:55:05 2025.

 ---------------------------------------------------------------------
 #P Geom=AllCheck Guess=TCheck SCRF=Check GenChk RM062X/def2TZVPP Freq
 ---------------------------------------------------------------------

 Structure from the checkpoint file:  "/tmp/Gau-272331.chk"
 ------------------------------
 Gaussian input prepared by ASE
 ------------------------------
 Charge =  0 Multiplicity = 1

                          Input orientation:
 ---------------------------------------------------------------------
 Center     Atomic      Atomic             Coordinates (Angstroms)
 Number     Number       Type             X           Y           Z
 ---------------------------------------------------------------------
      1          6           0       -0.650982   -1.405973    0.239199
      2          6           0       -0.074062    0.024601    0.138483
      3          9           0       -0.476867    0.565393   -1.018046
      4          9           0       -0.541435    0.750855    1.150105
      5         16           0        1.767679    0.088042    0.174207
      6          8           0        2.181808   -0.132984    1.504820
      7          8           0        2.230120   -0.669925   -0.932828
      8          8           0        1.953054    1.619390   -0.128053
      9          9           0       -0.334006   -2.109999   -0.832847
     10          9           0       -0.181508   -2.010903    1.317969
     11          9           0       -1.971053   -1.325311    0.326787
     12          1           0        1.998285    1.769787   -1.083488
 ---------------------------------------------------------------------

 SCF Done:  E(RM062X) =  -1199.94068224     A.U. after    1 cycles

 Isotropic polarizability for W=    0.000000       53.47 Bohr**3.
 End of Minotr F.D. properties file   721 does not exist.

                      1                      2                      3
                      A                      A                      A
 Frequencies --     26.4277                70.1681               128.5282
 Red. masses --     14.5848                13.9358                14.8226
 Frc consts  --      0.0060                 0.0404                 0.1443
 IR Inten    --      1.2584                 0.9206                 1.2896

                      4                      5                      6
                      A                      A                      A
 Frequencies --    195.6870               220.6140               238.4618
 Red. masses --      9.9502                16.8443                 8.2096
 Frc consts  --      0.2245                 0.4830                 0.2750
 IR Inten    --      7.1159                 1.5762                11.1032

                      7                      8                      9
                      A                      A                      A
 Frequencies --    283.8570               318.6329               323.4181
 Red. masses --     14.0543                 5.6266                17.8039
 Frc consts  --      0.6672                 0.3366                 1.0972
 IR Inten    --      0.4505                13.7329                 0.0432

                     10                     11                     12
                      A                      A                      A
 Frequencies --    368.9077               376.2628               446.4783
 Red. masses --      1.8274                12.2804                 4.5429
 Frc consts  --      0.1465                 1.0243                 0.5336
 IR Inten    --     54.0778                 3.1716                23.6450

                     13                     14                     15
                      A                      A                      A
 Frequencies --    499.8683               507.6701               543.9569
 Red. masses --      7.3788                14.7297                17.7400
 Frc consts  --      1.0863                 2.2367                 3.0927
 IR Inten    --      8.0549                32.6070                25.3827

                     16                     17                     18
                      A                      A                      A
 Frequencies --    609.1497               631.2459               664.0730
 Red. masses --     17.1564                19.3884                17.6379
 Frc consts  --      3.7508                 4.5519                 4.5828
 IR Inten    --      3.6504               110.3601                48.0363

                     19                     20                     21
                      A                      A                      A
 Frequencies --    781.8489               897.0868              1041.1719
 Red. masses --     17.3566                16.5890                14.0288
 Frc consts  --      6.2511                 7.8657                 8.9602
 IR Inten    --     19.6331               227.7498                28.9497

                     22                     23                     24
                      A                      A                      A
 Frequencies --   1140.8105              1200.9815              1257.2156
 Red. masses --      1.1811                13.6283                15.7299
 Frc consts  --      0.9057                11.5815                14.6486
 IR Inten    --     92.4396               245.7356                21.3330

                     25                     26                     27
                      A                      A                      A
 Frequencies --   1263.5545              1302.5599              1306.0290
 Red. masses --     13.4547                13.8718                13.1984
 Frc consts  --     12.6565                13.8668                13.2640
 IR Inten    --     86.5169               322.3483               234.1579

                     28                     29                     30
                      A                      A                      A
 Frequencies --   1389.6224              1505.6011              3808.8743
 Red. masses --     12.6846                15.4988                 1.0657
 Frc consts  --     14.4318                20.7000                 9.1088
 IR Inten    --     91.5272               296.1136               188.3387

 - Thermochemistry -
 -------------------
 Temperature   298.150 Kelvin.  Pressure   1.00000 Atm.
 Atom     1 has atomic number  6 and mass  12.00000

 Molecular mass:   199.95666 amu.
 Principal axes and moments of inertia in atomic units:
                           1         2         3
     Eigenvalues --  1118.636202148.744962267.10181
           X            0.83861  -0.54436  -0.02009
           Y            0.54364   0.83403   0.09407
           Z           -0.03446  -0.08981   0.99536
 This molecule is an asymmetric top.
 Rotational symmetry number  1.
 Warning -- assumption of classical behavior for rotation
           may cause significant error
 Rotational temperatures (Kelvin)      0.07743     0.04031     0.03820
 Rotational constants (GHZ):           1.61334     0.83990     0.79606
 Zero-point vibrational energy     139656.6 (Joules/Mol)
                                   33.37873 (Kcal/Mol)
 Warning -- explicit consideration of  16 degrees of freedom as
           vibrations may cause significant error
 Vibrational temperatures:     38.02   100.96   184.92   281.55   317.41
          (Kelvin)            343.09   408.41   458.44   465.33   530.78
                              541.36   642.38   719.20   730.42   782.63
                              876.43   908.22   955.45  1124.91  1290.71
                             1498.01  1641.37  1727.94  1808.85  1817.97
                             1874.09  1879.08  1999.36  2166.22  5480.12

 Zero-point correction=                           0.053192 (Hartree/Particle)
 Thermal correction to Energy=                    0.063486
 Thermal correction to Enthalpy=                  0.064431
 Thermal correction to Gibbs Free Energy=         0.016067
 Sum of electronic and zero-point Energies=          -1199.887490
 Sum of electronic and thermal Energies=             -1199.877196
 Sum of electronic and thermal Enthalpies=           -1199.876252
 Sum of electronic and thermal Free Energies=        -1199.924616

                     E (Thermal)             CV                S
                      KCal/Mol        Cal/Mol-Kelvin    Cal/Mol-Kelvin
 Total                   39.838             35.969            101.791
 Electronic               0.000              0.000              0.000
 Translational            0.889              2.981             41.783
 Rotational               0.889              2.981             30.078
 Vibrational             38.061             30.008             29.929
 Vibration     1          0.593              1.985              6.081
 Vibration     2          0.598              1.968              4.149
 Vibration     3          0.611              1.925              2.968
 Vibration     4          0.636              1.846              2.173
 Vibration     5          0.647              1.810              1.954
 Vibration     6          0.656              1.782              1.814
 Vibration     7          0.682              1.704              1.510
 Vibration     8          0.705              1.638              1.317
 Vibration     9          0.708              1.629              1.293
 Vibration    10          0.741              1.536              1.084
 Vibration    11          0.747              1.521              1.054
 Vibration    12          0.806              1.369              0.806
 Vibration    13          0.855              1.250              0.658
 Vibration    14          0.863              1.233              0.639
 Vibration    15          0.899              1.153              0.557
 Vibration    16          0.968              1.012              0.434

                           ! Non-Optimized Parameters !
 Normal termination of Gaussian 16 at Fri May 23 23:59:59 2025.
