 Gaussian 16, Revision C.01,
 Gaussian 16:  ES64L-G16RevC.01  3-Jul-2019

 ----------------------------------------------------------------------
 #P M062X/Def2TZVPP Symm(None) scf(xqc) pop(None) opt(NoFreeze,TS,CalcA
 ll,NoEigentest,MaxCycle=999)
 ----------------------------------------------------------------------

 ------------------------------
 Gaussian input prepared by ASE
 ------------------------------
 Symbolic Z-matrix:
 Charge =  0 Multiplicity = 1

 SCF Done:  E(RM062X) =  -1199.76541024     A.U. after   15 cycles

 Isotropic polarizability for W=    0.000000       64.16 Bohr**3.
 End of Minotr F.D. properties file   721 does not exist.

 Optimization completed.
    -- Stationary point found.

                          Input orientation:
 ---------------------------------------------------------------------
 Center     Atomic      Atomic             Coordinates (Angstroms)
 Number     Number       Type             X           Y           Z
 ---------------------------------------------------------------------
      1          6           0       -0.219840    0.509338    0.450660
      2          6           0        1.638357   -0.415324   -0.583839
      3          9           0        2.553626   -1.363862   -0.358006
      4          9           0        1.368692   -0.430121   -1.904554
      5         16           0        2.314966    1.226743   -0.187087
      6          8           0        0.995787    1.865762    0.041071
      7          8           0        3.260345    1.233283    0.875626
      8          8           0        2.842998    2.065630   -1.421551
      9          9           0       -1.019282    1.476452    0.849078
     10          9           0       -0.847943   -0.098699   -0.512487
     11          9           0        0.069534   -0.194857    1.505294
     12          1           0        3.801250    1.949834   -1.496802
 ---------------------------------------------------------------------

 ******    1 imaginary frequencies (negative Signs) ******

                      1                      2                      3
                      A                      A                      A
 Frequencies --   -451.7502                40.0134                76.7049
 Red. masses --     15.3098                15.4726                13.8067
 Frc consts  --      1.8408                 0.0146                 0.0479
 IR Inten    --     69.4651                 1.0323                 1.6092

                      4                      5                      6
                      A                      A                      A
 Frequencies --     98.7063               156.4650               163.7394
 Red. masses --     16.1108                11.1309                15.3392
 Frc consts  --      0.0925                 0.1606                 0.2423
 IR Inten    --     14.1861                 4.9981                18.7882

                      7                      8                      9
                      A                      A                      A
 Frequencies --    208.7313               239.4023               297.8803
 Red. masses --      2.3441                 2.3558                13.2752
 Frc consts  --      0.0602                 0.0796                 0.6940
 IR Inten    --     32.2181                71.7403                 5.5992

                     10                     11                     12
                      A                      A                      A
 Frequencies --    326.8825               348.1489               406.4722
 Red. masses --     11.5897                11.1722                 8.2422
 Frc consts  --      0.7296                 0.7978                 0.8023
 IR Inten    --     35.9175                10.6517                16.1485

                     13                     14                     15
                      A                      A                      A
 Frequencies --    468.4772               494.5324               524.5783
 Red. masses --     13.3687                 8.5553                16.1072
 Frc consts  --      1.7287                 1.2328                 2.6115
 IR Inten    --      5.8833                24.0845                25.7086

                     16                     17                     18
                      A                      A                      A
 Frequencies --    589.9091               605.7097               641.5053
 Red. masses --     16.8023                18.2227                13.3495
 Frc consts  --      3.4450                 3.9391                 3.2368
 IR Inten    --    124.5887                 4.1629                74.6997

                     19                     20                     21
                      A                      A                      A
 Frequencies --    680.9602               720.6682               899.6367
 Red. masses --     16.8662                14.7846                18.5562
 Frc consts  --      4.6080                 4.5241                 8.8486
 IR Inten    --     28.5991               349.7366               289.8408

                     22                     23                     24
                      A                      A                      A
 Frequencies --    952.6965              1066.7027              1150.0455
 Red. masses --     16.6051                10.4368                 5.6149
 Frc consts  --      8.8798                 6.9969                 4.3754
 IR Inten    --    473.2238                43.6501               183.9308

                     25                     26                     27
                      A                      A                      A
 Frequencies --   1151.2941              1196.4291              1251.8199
 Red. masses --      1.5243                 9.2124                11.2927
 Frc consts  --      1.1904                 7.7696                10.4263
 IR Inten    --     46.9476               250.2092               346.6723

                     28                     29                     30
                      A                      A                      A
 Frequencies --   1380.3164              1395.8874              3810.8300
 Red. masses --     12.9222                13.6234                 1.0658
 Frc consts  --     14.5059                15.6400                 9.1196
 IR Inten    --    181.1904               415.8377               238.7821

 - Thermochemistry -
 -------------------
 Temperature   298.150 Kelvin.  Pressure   1.00000 Atm.
 Atom     1 has atomic number  6 and mass  12.00000

 Molecular mass:   199.95666 amu.
 Principal axes and moments of inertia in atomic units:
                           1         2         3
     Eigenvalues --  1330.642952105.805072449.24110
           X            0.94363   0.04031   0.32855
           Y            0.09324   0.92000  -0.38067
           Z           -0.31760   0.38985   0.86438
 This molecule is an asymmetric top.
 Rotational symmetry number  1.
 Warning -- assumption of classical behavior for rotation
           may cause significant error
 Rotational temperatures (Kelvin)      0.06509     0.04113     0.03536
 Rotational constants (GHZ):           1.35629     0.85703     0.73686
    1 imaginary frequencies ignored.
 Zero-point vibrational energy     127672.3 (Joules/Mol)
                                   30.51442 (Kcal/Mol)
 Warning -- explicit consideration of  16 degrees of freedom as
           vibrations may cause significant error
 Vibrational temperatures:     57.57   110.36   142.02   225.12   235.58
          (Kelvin)            300.32   344.45   428.58   470.31   500.91
                              584.82   674.03   711.52   754.75   848.75
                              871.48   922.98   979.75  1036.88  1294.38
                             1370.72  1534.75  1654.66  1656.46  1721.39
                             1801.09  1985.97  2008.37  5482.93

 Zero-point correction=                           0.048628 (Hartree/Particle)
 Thermal correction to Energy=                    0.059194
 Thermal correction to Enthalpy=                  0.060138
 Thermal correction to Gibbs Free Energy=         0.011183
 Sum of electronic and zero-point Energies=          -1199.716782
 Sum of electronic and thermal Energies=             -1199.706216
 Sum of electronic and thermal Enthalpies=           -1199.705272
 Sum of electronic and thermal Free Energies=        -1199.754227

                     E (Thermal)             CV                S
                      KCal/Mol        Cal/Mol-Kelvin    Cal/Mol-Kelvin
 Total                   37.145             36.356            103.036
 Electronic               0.000              0.000              0.000
 Translational            0.889              2.981             41.783
 Rotational               0.889              2.981             30.307
 Vibrational             35.367             30.395             30.945
 Vibration     1          0.594              1.981              5.258
 Vibration     2          0.599              1.965              3.973
 Vibration     3          0.604              1.950              3.480
 Vibration     4          0.620              1.895              2.592
 Vibration     5          0.623              1.887              2.506
 Vibration     6          0.642              1.827              2.055
 Vibration     7          0.657              1.780              1.807
 Vibration     8          0.691              1.678              1.429
 Vibration     9          0.711              1.622              1.275
 Vibration    10          0.726              1.579              1.175
 Vibration    11          0.771              1.456              0.939
 Vibration    12          0.826              1.320              0.742
 Vibration    13          0.850              1.262              0.672
 Vibration    14          0.880              1.196              0.599
 Vibration    15          0.947              1.053              0.467
 Vibration    16          0.964              1.020              0.440

 Normal termination of Gaussian 16 at Sat May 24 10:32:46 2025.
