 Gaussian 16, Revision C.01,
 Gaussian 16:  ES64L-G16RevC.01  3-Jul-2019

 ----------------------------------------------------------------------
 #P M062X/Def2TZVPP Symm(None) scf(xqc) pop(None) opt(NoFreeze,TS,CalcA
 ll,NoEigentest,MaxCycle=999)
 ----------------------------------------------------------------------

 ------------------------------
 Gaussian input prepared by ASE
 ------------------------------
 Symbolic Z-matrix:
 Charge =  0 Multiplicity = 1

 SCF Done:  E(RM062X) =  -1199.74857157     A.U. after   16 cycles
 SCF Done:  E(RM062X) =  -1199.76270462     A.U. after   14 cycles
 SCF Done:  E(RM062X) =  -1199.76402563     A.U. after   14 cycles
 SCF Done:  E(RM062X) =  -1199.76409730     A.U. after   11 cycles
 SCF Done:  E(RM062X) =  -1199.76409759     A.U. after    7 cycles

 Isotropic polarizability for W=    0.000000       59.18 Bohr**3.
 End of Minotr F.D. properties file   721 does not exist.

 Optimization completed.
    -- Stationary point found.

                          Input orientation:
 ---------------------------------------------------------------------
 Center     Atomic      Atomic             Coordinates (Angstroms)
 Number     Number       Type             X           Y           Z
 ---------------------------------------------------------------------
      1          6           0       -0.108537   -0.874761    1.318142
      2          6           0       -0.023338   -0.013520    0.024221
      3          9           0       -0.669776   -0.564181   -0.978801
      4          9           0       -0.612082    1.144230    0.317939
      5         16           0        1.826323    0.060633   -0.041025
      6          8           0        2.046724   -0.184618    1.379815
      7          8           0        2.654997   -0.192678   -1.172481
      8          8           0        1.846238    1.683557   -0.034706
      9          9           0        1.282354   -1.779772   -0.107511
     10          9           0       -0.214402   -0.288215    2.427066
     11          9           0       -0.531559   -2.048747    1.369763
     12          1           0        2.327100    1.970281   -0.819396
 ---------------------------------------------------------------------

 ******    1 imaginary frequencies (negative Signs) ******

                      1                      2                      3
                      A                      A                      A
 Frequencies --   -333.2553               110.4304               131.0700
 Red. masses --     15.7485                12.6774                15.1373
 Frc consts  --      1.0305                 0.0911                 0.1532
 IR Inten    --     19.9913                 4.9364               200.3479

                      4                      5                      6
                      A                      A                      A
 Frequencies --    176.4089               189.8511               253.3528
 Red. masses --     16.1195                12.9204                18.0482
 Frc consts  --      0.2956                 0.2744                 0.6826
 IR Inten    --      1.0635                 6.5191                 5.8048

                      7                      8                      9
                      A                      A                      A
 Frequencies --    283.4959               296.5273               301.1715
 Red. masses --     15.1890                15.5356                13.5280
 Frc consts  --      0.7192                 0.8048                 0.7230
 IR Inten    --     14.4231                 4.2690                28.7326

                     10                     11                     12
                      A                      A                      A
 Frequencies --    341.8231               372.9421               412.2908
 Red. masses --      2.3005                 2.2590                16.5798
 Frc consts  --      0.1584                 0.1851                 1.6605
 IR Inten    --     76.4884                27.2062                52.9932

                     13                     14                     15
                      A                      A                      A
 Frequencies --    443.3642               506.3704               535.5529
 Red. masses --     12.6332                 6.9062                 9.2741
 Frc consts  --      1.4631                 1.0433                 1.5672
 IR Inten    --     50.3919                 5.9388                 9.7934

                     16                     17                     18
                      A                      A                      A
 Frequencies --    561.0862               582.8894               640.9741
 Red. masses --     13.7894                17.4926                14.4629
 Frc consts  --      2.5577                 3.5017                 3.5009
 IR Inten    --     94.4224                57.6983                56.3638

                     19                     20                     21
                      A                      A                      A
 Frequencies --    675.4856               772.5830               796.6046
 Red. masses --     14.5137                16.3589                15.8935
 Frc consts  --      3.9018                 5.7530                 5.9423
 IR Inten    --     38.7147                34.5638               244.6445

                     22                     23                     24
                      A                      A                      A
 Frequencies --    960.4709              1124.0194              1166.3368
 Red. masses --     13.0537                11.7807                 1.3008
 Frc consts  --      7.0950                 8.7694                 1.0426
 IR Inten    --     14.5056               184.1126               163.9289

                     25                     26                     27
                      A                      A                      A
 Frequencies --   1211.1418              1310.7086              1402.2682
 Red. masses --     12.9193                12.7510                 9.9467
 Frc consts  --     11.1656                12.9065                11.5237
 IR Inten    --     91.1493               153.3594               370.6057

                     28                     29                     30
                      A                      A                      A
 Frequencies --   1454.1962              1532.4521              3858.1995
 Red. masses --     13.2977                13.4227                 1.0658
 Frc consts  --     16.5681                18.5722                 9.3474
 IR Inten    --    228.5264               376.3541               160.3890

 - Thermochemistry -
 -------------------
 Temperature   298.150 Kelvin.  Pressure   1.00000 Atm.
 Atom     1 has atomic number  6 and mass  12.00000

 Molecular mass:   199.95666 amu.
 Principal axes and moments of inertia in atomic units:
                           1         2         3
     Eigenvalues --  1230.153021904.683972007.05554
           X            0.75664  -0.42067   0.50053
           Y            0.41158   0.90127   0.13530
           Z           -0.50803   0.10364   0.85508
 This molecule is an asymmetric top.
 Rotational symmetry number  1.
 Warning -- assumption of classical behavior for rotation
           may cause significant error
 Rotational temperatures (Kelvin)      0.07041     0.04547     0.04315
 Rotational constants (GHZ):           1.46709     0.94753     0.89920
    1 imaginary frequencies ignored.
 Zero-point vibrational energy     134006.1 (Joules/Mol)
                                   32.02822 (Kcal/Mol)
 Warning -- explicit consideration of  16 degrees of freedom as
           vibrations may cause significant error
 Vibrational temperatures:    158.88   188.58   253.81   273.15   364.52
          (Kelvin)            407.89   426.64   433.32   491.81   536.58
                              593.19   637.90   728.55   770.54   807.28
                              838.65   922.22   971.87  1111.57  1146.14
                             1381.90  1617.21  1678.10  1742.56  1885.82
                             2017.55  2092.26  2204.86  5551.09

 Zero-point correction=                           0.051040 (Hartree/Particle)
 Thermal correction to Energy=                    0.060808
 Thermal correction to Enthalpy=                  0.061752
 Thermal correction to Gibbs Free Energy=         0.016008
 Sum of electronic and zero-point Energies=          -1199.713057
 Sum of electronic and thermal Energies=             -1199.703290
 Sum of electronic and thermal Enthalpies=           -1199.702345
 Sum of electronic and thermal Free Energies=        -1199.748090

                     E (Thermal)             CV                S
                      KCal/Mol        Cal/Mol-Kelvin    Cal/Mol-Kelvin
 Total                   38.158             35.580             96.277
 Electronic               0.000              0.000              0.000
 Translational            0.889              2.981             41.783
 Rotational               0.889              2.981             29.932
 Vibrational             36.380             29.618             24.562
 Vibration     1          0.606              1.941              3.261
 Vibration     2          0.612              1.922              2.930
 Vibration     3          0.628              1.871              2.366
 Vibration     4          0.633              1.854              2.229
 Vibration     5          0.665              1.757              1.707
 Vibration     6          0.682              1.704              1.512
 Vibration     7          0.690              1.680              1.436
 Vibration     8          0.693              1.671              1.410
 Vibration     9          0.721              1.592              1.204
 Vibration    10          0.744              1.528              1.068
 Vibration    11          0.776              1.444              0.919
 Vibration    12          0.803              1.376              0.816
 Vibration    13          0.862              1.236              0.642
 Vibration    14          0.891              1.171              0.575
 Vibration    15          0.917              1.115              0.522
 Vibration    16          0.940              1.068              0.480

 Normal termination of Gaussian 16 at Sat May 24 06:32:16 2025.
