 Gaussian 16, Revision C.01,
 Gaussian 16:  ES64L-G16RevC.01  3-Jul-2019

 ----------------------------------------------------------------------
 #P M062X/Def2TZVPP Symm(None) scf(xqc) pop(None) freq opt(CalcFC, Tigh
 t)
 ----------------------------------------------------------------------

 ------------------------------
 Gaussian input prepared by ASE
 ------------------------------
 Symbolic Z-matrix:
 Charge =  0 Multiplicity = 1

 SCF Done:  E(RM062X) =  -1199.91901721     A.U. after   13 cycles
 SCF Done:  E(RM062X) =  -1199.92124078     A.U. after   11 cycles
 SCF Done:  E(RM062X) =  -1199.92136700     A.U. after   12 cycles
 SCF Done:  E(RM062X) =  -1199.92138526     A.U. after   10 cycles
 SCF Done:  E(RM062X) =  -1199.92138586     A.U. after    8 cycles
 SCF Done:  E(RM062X) =  -1199.92138592     A.U. after    7 cycles
 SCF Done:  E(RM062X) =  -1199.92138594     A.U. after    5 cycles
 SCF Done:  E(RM062X) =  -1199.92138594     A.U. after    5 cycles
 SCF Done:  E(RM062X) =  -1199.92138594     A.U. after    3 cycles
 SCF Done:  E(RM062X) =  -1199.92138594     A.U. after    3 cycles
 Optimization completed.
    -- Stationary point found.
 Normal termination of Gaussian 16 at Sat May 24 06:05:22 2025.

 ---------------------------------------------------------------------
 #P Geom=AllCheck Guess=TCheck SCRF=Check GenChk RM062X/def2TZVPP Freq
 ---------------------------------------------------------------------

 Structure from the checkpoint file:  "/tmp/Gau-265431.chk"
 ------------------------------
 Gaussian input prepared by ASE
 ------------------------------
 Charge =  0 Multiplicity = 1

                          Input orientation:
 ---------------------------------------------------------------------
 Center     Atomic      Atomic             Coordinates (Angstroms)
 Number     Number       Type             X           Y           Z
 ---------------------------------------------------------------------
      1          6           0        3.522487   -1.532017   -1.101813
      2          6           0        1.323240    0.004501   -0.039094
      3          9           0       -0.008425    0.110098   -0.078465
      4          9           0        1.628440   -0.766315    1.018000
      5         16           0        1.827055   -0.916215   -1.577062
      6          8           0        2.008702    0.022891   -2.627971
      7          8           0        0.982760   -2.056168   -1.672418
      8          8           0        1.938960    1.188067   -0.011794
      9          9           0        3.435026   -2.541057   -0.260291
     10          9           0        4.111211   -1.931149   -2.212540
     11          9           0        4.221851   -0.554525   -0.552459
     12          1           0        1.655822    1.692255    0.763192
 ---------------------------------------------------------------------

 SCF Done:  E(RM062X) =  -1199.92138594     A.U. after    1 cycles

 Isotropic polarizability for W=    0.000000       55.77 Bohr**3.
 End of Minotr F.D. properties file   721 does not exist.

                      1                      2                      3
                      A                      A                      A
 Frequencies --     32.8455                47.9552               110.2345
 Red. masses --     15.5863                16.8729                11.8328
 Frc consts  --      0.0099                 0.0229                 0.0847
 IR Inten    --      0.2558                 0.6763                 0.8273

                      4                      5                      6
                      A                      A                      A
 Frequencies --    187.9964               198.2130               213.9002
 Red. masses --      6.2499                 4.7348                 1.5566
 Frc consts  --      0.1301                 0.1096                 0.0420
 IR Inten    --     12.8413                22.3415                68.9319

                      7                      8                      9
                      A                      A                      A
 Frequencies --    228.9251               274.9464               294.9643
 Red. masses --     16.4253                13.3684                16.3342
 Frc consts  --      0.5072                 0.5954                 0.8373
 IR Inten    --      7.4048                 2.7689                 2.5205

                     10                     11                     12
                      A                      A                      A
 Frequencies --    307.0508               345.0446               406.8513
 Red. masses --     10.1575                13.6802                15.0849
 Frc consts  --      0.5642                 0.9596                 1.4712
 IR Inten    --      3.6529                 1.2254                14.2967

                     13                     14                     15
                      A                      A                      A
 Frequencies --    528.9644               544.3804               556.4393
 Red. masses --     17.0777                15.1207                16.1901
 Frc consts  --      2.8154                 2.6401                 2.9535
 IR Inten    --     37.4464                57.9299                 2.0749

                     16                     17                     18
                      A                      A                      A
 Frequencies --    579.0253               601.9635               631.2183
 Red. masses --     15.8866                16.1059                13.1596
 Frc consts  --      3.1382                 3.4386                 3.0892
 IR Inten    --      1.9121                35.3534               154.6912

                     19                     20                     21
                      A                      A                      A
 Frequencies --    762.2694               799.7856              1043.0649
 Red. masses --      6.3266                14.9746                 3.5629
 Frc consts  --      2.1659                 5.6435                 2.2839
 IR Inten    --     21.7691                 6.5145               118.9338

                     22                     23                     24
                      A                      A                      A
 Frequencies --   1159.9273              1197.1314              1267.7977
 Red. masses --     13.0899                11.0344                 6.7158
 Frc consts  --     10.3764                 9.3171                 6.3598
 IR Inten    --    107.9995               313.4204                84.1380

                     25                     26                     27
                      A                      A                      A
 Frequencies --   1283.5581              1298.3153              1314.1567
 Red. masses --     10.5015                12.5173                 9.2566
 Frc consts  --     10.1937                12.4314                 9.4188
 IR Inten    --     71.8368               240.5894               440.2866

                     28                     29                     30
                      A                      A                      A
 Frequencies --   1389.7926              1476.9943              3810.9136
 Red. masses --      2.4984                19.5819                 1.0650
 Frc consts  --      2.8433                25.1689                 9.1132
 IR Inten    --     52.6707               280.3666               137.7840

 - Thermochemistry -
 -------------------
 Temperature   298.150 Kelvin.  Pressure   1.00000 Atm.
 Atom     1 has atomic number  6 and mass  12.00000

 Molecular mass:   199.95666 amu.
 Principal axes and moments of inertia in atomic units:
                           1         2         3
     Eigenvalues --  1190.976712074.439202271.20303
           X            0.77663   0.48406   0.40314
           Y           -0.51054   0.10875   0.85295
           Z           -0.36904   0.86825  -0.33159
 This molecule is an asymmetric top.
 Rotational symmetry number  1.
 Warning -- assumption of classical behavior for rotation
           may cause significant error
 Rotational temperatures (Kelvin)      0.07273     0.04175     0.03814
 Rotational constants (GHZ):           1.51535     0.86999     0.79462
 Zero-point vibrational energy     136940.3 (Joules/Mol)
                                   32.72951 (Kcal/Mol)
 Warning -- explicit consideration of  17 degrees of freedom as
           vibrations may cause significant error
 Vibrational temperatures:     47.26    69.00   158.60   270.48   285.18
          (Kelvin)            307.75   329.37   395.59   424.39   441.78
                              496.44   585.37   761.06   783.24   800.59
                              833.09   866.09   908.18  1096.74  1150.71
                             1500.74  1668.88  1722.41  1824.08  1846.75
                             1867.99  1890.78  1999.60  2125.07  5483.05

 Zero-point correction=                           0.052158 (Hartree/Particle)
 Thermal correction to Energy=                    0.062928
 Thermal correction to Enthalpy=                  0.063872
 Thermal correction to Gibbs Free Energy=         0.014323
 Sum of electronic and zero-point Energies=          -1199.869228
 Sum of electronic and thermal Energies=             -1199.858458
 Sum of electronic and thermal Enthalpies=           -1199.857514
 Sum of electronic and thermal Free Energies=        -1199.907063

                     E (Thermal)             CV                S
                      KCal/Mol        Cal/Mol-Kelvin    Cal/Mol-Kelvin
 Total                   39.488             36.757            104.286
 Electronic               0.000              0.000              0.000
 Translational            0.889              2.981             41.783
 Rotational               0.889              2.981             30.107
 Vibrational             37.710             30.795             32.395
 Vibration     1          0.594              1.983              5.650
 Vibration     2          0.595              1.978              4.900
 Vibration     3          0.606              1.941              3.265
 Vibration     4          0.633              1.856              2.247
 Vibration     5          0.637              1.842              2.150
 Vibration     6          0.644              1.820              2.010
 Vibration     7          0.652              1.797              1.887
 Vibration     8          0.677              1.720              1.565
 Vibration     9          0.689              1.683              1.445
 Vibration    10          0.697              1.660              1.378
 Vibration    11          0.723              1.585              1.189
 Vibration    12          0.772              1.455              0.938
 Vibration    13          0.884              1.186              0.590
 Vibration    14          0.900              1.152              0.556
 Vibration    15          0.912              1.126              0.531
 Vibration    16          0.936              1.077              0.487
 Vibration    17          0.960              1.028              0.446

                           ! Non-Optimized Parameters !
 Normal termination of Gaussian 16 at Sat May 24 06:10:11 2025.
