 Gaussian 16, Revision C.01,
 Gaussian 16:  ES64L-G16RevC.01  3-Jul-2019

 ----------------------------------------------------------------------
 #P M062X/Def2TZVPP Symm(None) scf(xqc) pop(None) freq opt(CalcFC, Tigh
 t)
 ----------------------------------------------------------------------

 ------------------------------
 Gaussian input prepared by ASE
 ------------------------------
 Symbolic Z-matrix:
 Charge =  0 Multiplicity = 1

 SCF Done:  E(RM062X) =  -1199.91921338     A.U. after   13 cycles
 SCF Done:  E(RM062X) =  -1199.92197814     A.U. after   12 cycles
 SCF Done:  E(RM062X) =  -1199.92219754     A.U. after   12 cycles
 SCF Done:  E(RM062X) =  -1199.92225645     A.U. after   10 cycles
 SCF Done:  E(RM062X) =  -1199.92225700     A.U. after    7 cycles
 SCF Done:  E(RM062X) =  -1199.92225702     A.U. after    7 cycles
 SCF Done:  E(RM062X) =  -1199.92225705     A.U. after    6 cycles
 SCF Done:  E(RM062X) =  -1199.92225705     A.U. after    4 cycles
 Optimization completed.
    -- Stationary point found.
 Normal termination of Gaussian 16 at Sat May 24 06:03:13 2025.

 ---------------------------------------------------------------------
 #P Geom=AllCheck Guess=TCheck SCRF=Check GenChk RM062X/def2TZVPP Freq
 ---------------------------------------------------------------------

 Structure from the checkpoint file:  "/tmp/Gau-143108.chk"
 ------------------------------
 Gaussian input prepared by ASE
 ------------------------------
 Charge =  0 Multiplicity = 1

                          Input orientation:
 ---------------------------------------------------------------------
 Center     Atomic      Atomic             Coordinates (Angstroms)
 Number     Number       Type             X           Y           Z
 ---------------------------------------------------------------------
      1          6           0        1.896123    0.484439   -2.830304
      2          6           0        1.297987    0.031401   -0.040377
      3          9           0       -0.028438    0.156097   -0.133000
      4          9           0        1.547564   -0.766165    1.003770
      5         16           0        1.946136   -0.860363   -1.538475
      6          8           0        0.971470   -1.824199   -1.916078
      7          8           0        3.312740   -1.170357   -1.300365
      8          8           0        1.925392    1.212079    0.037732
      9          9           0        2.902618    1.319078   -2.686280
     10          9           0        1.978777   -0.109223   -4.005569
     11          9           0        0.752343    1.143363   -2.744702
     12          1           0        1.605037    1.715070    0.798652
 ---------------------------------------------------------------------

 SCF Done:  E(RM062X) =  -1199.92225705     A.U. after    1 cycles

 Isotropic polarizability for W=    0.000000       55.70 Bohr**3.
 End of Minotr F.D. properties file   721 does not exist.

                      1                      2                      3
                      A                      A                      A
 Frequencies --     49.5786                53.0638               116.3719
 Red. masses --     16.0085                16.2643                11.2891
 Frc consts  --      0.0232                 0.0270                 0.0901
 IR Inten    --      0.0873                 0.5830                 1.1189

                      4                      5                      6
                      A                      A                      A
 Frequencies --    190.8046               196.0491               204.4655
 Red. masses --      3.6111                 2.2809                 3.3440
 Frc consts  --      0.0775                 0.0517                 0.0824
 IR Inten    --     31.2088                34.6356                40.9729

                      7                      8                      9
                      A                      A                      A
 Frequencies --    229.3325               275.0686               295.3100
 Red. masses --     12.3607                14.3224                15.4674
 Frc consts  --      0.3830                 0.6385                 0.7947
 IR Inten    --      3.9938                 2.4197                 2.4798

                     10                     11                     12
                      A                      A                      A
 Frequencies --    305.0094               346.4913               407.2880
 Red. masses --     13.2741                12.5519                15.5831
 Frc consts  --      0.7276                 0.8879                 1.5230
 IR Inten    --      2.6340                 1.1920                15.7216

                     13                     14                     15
                      A                      A                      A
 Frequencies --    528.6246               541.6050               558.4782
 Red. masses --     18.1673                13.5460                16.7509
 Frc consts  --      2.9911                 2.3411                 3.0782
 IR Inten    --     34.4076                55.2197                 2.2744

                     16                     17                     18
                      A                      A                      A
 Frequencies --    580.5556               602.8271               631.6196
 Red. masses --     16.5340                17.0855                12.3445
 Frc consts  --      3.2833                 3.6582                 2.9016
 IR Inten    --      1.2079                36.9571               144.7858

                     19                     20                     21
                      A                      A                      A
 Frequencies --    763.5040               799.7983              1044.6027
 Red. masses --      6.3014                14.8540                 3.4396
 Frc consts  --      2.1643                 5.5983                 2.2113
 IR Inten    --     29.1003                 7.6775               125.7823

                     22                     23                     24
                      A                      A                      A
 Frequencies --   1160.3195              1209.9245              1266.1110
 Red. masses --     11.8504                13.1723                 6.5010
 Frc consts  --      9.4002                11.3613                 6.1400
 IR Inten    --    141.6139               234.7988                65.1572

                     25                     26                     27
                      A                      A                      A
 Frequencies --   1282.9549              1294.8225              1315.1285
 Red. masses --     12.3216                13.4172                 8.9611
 Frc consts  --     11.9492                13.2536                 9.1316
 IR Inten    --    177.8401               181.8709               443.0701

                     28                     29                     30
                      A                      A                      A
 Frequencies --   1383.2567              1474.1090              3812.7679
 Red. masses --      2.4753                19.9791                 1.0652
 Frc consts  --      2.7905                25.5791                 9.1233
 IR Inten    --     60.9204               279.7269               142.1073

 - Thermochemistry -
 -------------------
 Temperature   298.150 Kelvin.  Pressure   1.00000 Atm.
 Atom     1 has atomic number  6 and mass  12.00000

 Molecular mass:   199.95666 amu.
 Principal axes and moments of inertia in atomic units:
                           1         2         3
     Eigenvalues --  1184.563442090.779082284.93790
           X           -0.21428  -0.32133   0.92240
           Y           -0.17890   0.94127   0.28635
           Z            0.96025   0.10366   0.25918
 This molecule is an asymmetric top.
 Rotational symmetry number  1.
 Warning -- assumption of classical behavior for rotation
           may cause significant error
 Rotational temperatures (Kelvin)      0.07312     0.04143     0.03791
 Rotational constants (GHZ):           1.52355     0.86319     0.78984
 Zero-point vibrational energy     137091.1 (Joules/Mol)
                                   32.76556 (Kcal/Mol)
 Warning -- explicit consideration of  17 degrees of freedom as
           vibrations may cause significant error
 Vibrational temperatures:     71.33    76.35   167.43   274.53   282.07
          (Kelvin)            294.18   329.96   395.76   424.89   438.84
                              498.52   586.00   760.57   779.25   803.53
                              835.29   867.33   908.76  1098.51  1150.73
                             1502.95  1669.44  1740.81  1821.65  1845.89
                             1862.96  1892.18  1990.20  2120.91  5485.72

 Zero-point correction=                           0.052215 (Hartree/Particle)
 Thermal correction to Energy=                    0.062939
 Thermal correction to Enthalpy=                  0.063883
 Thermal correction to Gibbs Free Energy=         0.014830
 Sum of electronic and zero-point Energies=          -1199.870042
 Sum of electronic and thermal Energies=             -1199.859318
 Sum of electronic and thermal Enthalpies=           -1199.858374
 Sum of electronic and thermal Free Energies=        -1199.907427

                     E (Thermal)             CV                S
                      KCal/Mol        Cal/Mol-Kelvin    Cal/Mol-Kelvin
 Total                   39.495             36.746            103.241
 Electronic               0.000              0.000              0.000
 Translational            0.889              2.981             41.783
 Rotational               0.889              2.981             30.116
 Vibrational             37.717             30.784             31.342
 Vibration     1          0.595              1.978              4.834
 Vibration     2          0.596              1.976              4.700
 Vibration     3          0.608              1.936              3.160
 Vibration     4          0.634              1.853              2.220
 Vibration     5          0.636              1.845              2.170
 Vibration     6          0.640              1.834              2.093
 Vibration     7          0.652              1.796              1.884
 Vibration     8          0.677              1.719              1.564
 Vibration     9          0.690              1.682              1.443
 Vibration    10          0.696              1.664              1.389
 Vibration    11          0.724              1.582              1.182
 Vibration    12          0.772              1.454              0.936
 Vibration    13          0.884              1.187              0.590
 Vibration    14          0.897              1.158              0.562
 Vibration    15          0.914              1.121              0.527
 Vibration    16          0.937              1.073              0.484
 Vibration    17          0.961              1.026              0.445

 Optimization completed.
    -- Stationary point found.
 Normal termination of Gaussian 16 at Sat May 24 06:07:56 2025.
