 Gaussian 16, Revision C.01,
 Gaussian 16:  ES64L-G16RevC.01  3-Jul-2019

 ----------------------------------------------------------------------
 #P M062X/Def2TZVPP Symm(None) scf(xqc) pop(None) opt(NoFreeze,TS,CalcA
 ll,NoEigentest,MaxCycle=999)
 ----------------------------------------------------------------------

 ------------------------------
 Gaussian input prepared by ASE
 ------------------------------
 Symbolic Z-matrix:
 Charge =  0 Multiplicity = 1

 SCF Done:  E(RM062X) =  -1199.78465914     A.U. after   15 cycles
 SCF Done:  E(RM062X) =  -1199.79111144     A.U. after   12 cycles
 SCF Done:  E(RM062X) =  -1199.79190931     A.U. after   13 cycles
 SCF Done:  E(RM062X) =  -1199.79196514     A.U. after   10 cycles
 SCF Done:  E(RM062X) =  -1199.79196556     A.U. after    7 cycles

 Isotropic polarizability for W=    0.000000       58.51 Bohr**3.
 End of Minotr F.D. properties file   721 does not exist.

 Optimization completed.
    -- Stationary point found.

                          Input orientation:
 ---------------------------------------------------------------------
 Center     Atomic      Atomic             Coordinates (Angstroms)
 Number     Number       Type             X           Y           Z
 ---------------------------------------------------------------------
      1          6           0       -0.472636   -2.232767   -1.115171
      2          6           0        0.477726   -1.755635   -0.002722
      3          9           0       -0.049547   -0.031810    0.038627
      4          9           0        0.048349   -2.210589    1.121825
      5         16           0        1.708433    0.010316    0.022302
      6          8           0        2.232066   -0.349596    1.283097
      7          8           0        2.209955   -0.218443   -1.284807
      8          8           0        1.607818    1.585484    0.138635
      9          9           0       -0.279288   -1.552956   -2.229882
     10          9           0       -0.187259   -3.515321   -1.328920
     11          9           0       -1.750593   -2.133775   -0.768579
     12          1           0        1.499555    1.964212   -0.744040
 ---------------------------------------------------------------------

 ******    1 imaginary frequencies (negative Signs) ******

                      1                      2                      3
                      A                      A                      A
 Frequencies --   -371.7728                52.3267                87.3649
 Red. masses --     14.9328                15.3507                13.6545
 Frc consts  --      1.2160                 0.0248                 0.0614
 IR Inten    --      4.8700                 0.5892                 0.2719

                      4                      5                      6
                      A                      A                      A
 Frequencies --     95.0996               155.8733               195.2875
 Red. masses --     13.7119                 9.7730                15.2528
 Frc consts  --      0.0731                 0.1399                 0.3427
 IR Inten    --      3.3393                38.2432                12.5487

                      7                      8                      9
                      A                      A                      A
 Frequencies --    252.1050               286.3287               303.1744
 Red. masses --     12.1259                 5.9122                 2.8992
 Frc consts  --      0.4541                 0.2856                 0.1570
 IR Inten    --      4.6760                12.3302                54.9716

                     10                     11                     12
                      A                      A                      A
 Frequencies --    357.4240               372.0700               393.9240
 Red. masses --      7.6387                 6.7254                 3.7302
 Frc consts  --      0.5750                 0.5486                 0.3410
 IR Inten    --     13.4565                60.6858                20.2419

                     13                     14                     15
                      A                      A                      A
 Frequencies --    453.0677               519.3035               522.0333
 Red. masses --     17.0562                 9.3719                 7.0626
 Frc consts  --      2.0628                 1.4891                 1.1340
 IR Inten    --      3.7825                28.9599                 6.9512

                     16                     17                     18
                      A                      A                      A
 Frequencies --    549.0174               583.5667               601.6995
 Red. masses --     17.6221                17.0515                18.0021
 Frc consts  --      3.1295                 3.4213                 3.8400
 IR Inten    --    143.7100                24.8255               280.3081

                     19                     20                     21
                      A                      A                      A
 Frequencies --    690.8313               738.7565               870.4562
 Red. masses --     14.0418                15.8483                15.7251
 Frc consts  --      3.9484                 5.0961                 7.0200
 IR Inten    --     83.5326                32.0386               349.4353

                     22                     23                     24
                      A                      A                      A
 Frequencies --    932.1584              1190.4465              1204.5993
 Red. masses --     14.3189                 1.2562                10.3218
 Frc consts  --      7.3306                 1.0489                 8.8245
 IR Inten    --     20.1159                74.7504               112.8942

                     25                     26                     27
                      A                      A                      A
 Frequencies --   1244.9943              1287.7586              1307.6635
 Red. masses --     13.3295                12.8629                13.3183
 Frc consts  --     12.1730                12.5678                13.4181
 IR Inten    --    298.9646               147.7317               286.6514

                     28                     29                     30
                      A                      A                      A
 Frequencies --   1395.2382              1501.9773              3828.7153
 Red. masses --     13.1849                13.7391                 1.0657
 Frc consts  --     15.1225                18.2615                 9.2042
 IR Inten    --    124.5530               284.8065               156.8039

 - Thermochemistry -
 -------------------
 Temperature   298.150 Kelvin.  Pressure   1.00000 Atm.
 Atom     1 has atomic number  6 and mass  12.00000

 Molecular mass:   199.95666 amu.
 Principal axes and moments of inertia in atomic units:
                           1         2         3
     Eigenvalues --   967.624342586.877222810.17255
           X            0.61452  -0.04804   0.78744
           Y            0.72865  -0.34801  -0.58987
           Z            0.30238   0.93626  -0.17885
 This molecule is an asymmetric top.
 Rotational symmetry number  1.
 Warning -- assumption of classical behavior for rotation
           may cause significant error
 Rotational temperatures (Kelvin)      0.08951     0.03348     0.03082
 Rotational constants (GHZ):           1.86513     0.69765     0.64222
    1 imaginary frequencies ignored.
 Zero-point vibrational energy     131429.3 (Joules/Mol)
                                   31.41235 (Kcal/Mol)
 Warning -- explicit consideration of  17 degrees of freedom as
           vibrations may cause significant error
 Vibrational temperatures:     75.29   125.70   136.83   224.27   280.98
          (Kelvin)            362.72   411.96   436.20   514.25   535.33
                              566.77   651.86   747.16   751.09   789.91
                              839.62   865.71   993.95  1062.91  1252.39
                             1341.17  1712.79  1733.15  1791.27  1852.80
                             1881.44  2007.44  2161.01  5508.67

 Zero-point correction=                           0.050059 (Hartree/Particle)
 Thermal correction to Energy=                    0.060373
 Thermal correction to Enthalpy=                  0.061317
 Thermal correction to Gibbs Free Energy=         0.013220
 Sum of electronic and zero-point Energies=          -1199.741907
 Sum of electronic and thermal Energies=             -1199.731593
 Sum of electronic and thermal Enthalpies=           -1199.730649
 Sum of electronic and thermal Free Energies=        -1199.778746

                     E (Thermal)             CV                S
                      KCal/Mol        Cal/Mol-Kelvin    Cal/Mol-Kelvin
 Total                   37.885             35.963            101.229
 Electronic               0.000              0.000              0.000
 Translational            0.889              2.981             41.783
 Rotational               0.889              2.981             30.332
 Vibrational             36.107             30.002             29.113
 Vibration     1          0.596              1.977              4.727
 Vibration     2          0.601              1.958              3.718
 Vibration     3          0.603              1.953              3.552
 Vibration     4          0.620              1.896              2.599
 Vibration     5          0.636              1.846              2.177
 Vibration     6          0.664              1.759              1.716
 Vibration     7          0.684              1.699              1.496
 Vibration     8          0.695              1.668              1.399
 Vibration     9          0.733              1.560              1.133
 Vibration    10          0.744              1.530              1.071
 Vibration    11          0.761              1.483              0.985
 Vibration    12          0.812              1.354              0.787
 Vibration    13          0.874              1.207              0.612
 Vibration    14          0.877              1.201              0.605
 Vibration    15          0.904              1.142              0.546
 Vibration    16          0.940              1.067              0.479
 Vibration    17          0.960              1.028              0.447

 Normal termination of Gaussian 16 at Sat May 24 06:04:19 2025.
