 Gaussian 16, Revision C.01,
 Gaussian 16:  ES64L-G16RevC.01  3-Jul-2019

 ----------------------------------------------------------------------
 #P M062X/Def2TZVPP Symm(None) scf(xqc) pop(None) opt(NoFreeze,TS,CalcA
 ll,NoEigentest,MaxCycle=999)
 ----------------------------------------------------------------------

 ------------------------------
 Gaussian input prepared by ASE
 ------------------------------
 Symbolic Z-matrix:
 Charge =  0 Multiplicity = 1

 SCF Done:  E(RM062X) =  -1199.72307521     A.U. after   16 cycles
 SCF Done:  E(RM062X) =  -1199.74534338     A.U. after   15 cycles
 SCF Done:  E(RM062X) =  -1199.75724618     A.U. after   14 cycles
 SCF Done:  E(RM062X) =  -1199.76226819     A.U. after   14 cycles
 SCF Done:  E(RM062X) =  -1199.76294199     A.U. after   14 cycles
 SCF Done:  E(RM062X) =  -1199.76354653     A.U. after   14 cycles
 SCF Done:  E(RM062X) =  -1199.76419956     A.U. after   15 cycles
 SCF Done:  E(RM062X) =  -1199.76486212     A.U. after   14 cycles
 SCF Done:  E(RM062X) =  -1199.76495491     A.U. after   12 cycles
 SCF Done:  E(RM062X) =  -1199.76495521     A.U. after    8 cycles

 Isotropic polarizability for W=    0.000000       63.71 Bohr**3.
 End of Minotr F.D. properties file   721 does not exist.

 Optimization completed.
    -- Stationary point found.

                          Input orientation:
 ---------------------------------------------------------------------
 Center     Atomic      Atomic             Coordinates (Angstroms)
 Number     Number       Type             X           Y           Z
 ---------------------------------------------------------------------
      1          6           0       -0.189659    0.600883    0.355315
      2          6           0        1.642068   -0.422592   -0.582124
      3          9           0        2.152976   -1.373609    0.216053
      4          9           0        2.024301   -0.722199   -1.836882
      5         16           0        2.446905    1.164321   -0.076157
      6          8           0        1.291243    1.642543    0.724772
      7          8           0        3.735009    1.262422    0.527805
      8          8           0        2.356870    2.068277   -1.364989
      9          9           0       -0.864244    1.462716    1.094342
     10          9           0       -0.666429    0.710882   -0.852358
     11          9           0       -0.330884   -0.550105    0.950182
     12          1           0        3.160335    1.980641   -1.898556
 ---------------------------------------------------------------------

 ******    1 imaginary frequencies (negative Signs) ******

                      1                      2                      3
                      A                      A                      A
 Frequencies --   -457.9777                38.2212                77.9253
 Red. masses --     16.3109                15.2008                12.4859
 Frc consts  --      2.0157                 0.0131                 0.0447
 IR Inten    --     59.6634                 2.0128                 0.3593

                      4                      5                      6
                      A                      A                      A
 Frequencies --     91.0085               139.1219               155.0015
 Red. masses --     17.5068                 3.9156                 8.3237
 Frc consts  --      0.0854                 0.0447                 0.1178
 IR Inten    --      9.4032                37.0185                16.9033

                      7                      8                      9
                      A                      A                      A
 Frequencies --    198.2310               259.1714               294.6220
 Red. masses --      4.6656                 2.1778                16.4138
 Frc consts  --      0.1080                 0.0862                 0.8394
 IR Inten    --     12.2596                77.2093                 2.3716

                     10                     11                     12
                      A                      A                      A
 Frequencies --    334.3703               353.9036               392.1905
 Red. masses --     16.9488                 7.5139                15.7735
 Frc consts  --      1.1165                 0.5545                 1.4295
 IR Inten    --     38.7407                12.7188                 7.4502

                     13                     14                     15
                      A                      A                      A
 Frequencies --    466.1358               501.3259               517.1131
 Red. masses --      7.8677                11.7207                16.4354
 Frc consts  --      1.0072                 1.7356                 2.5894
 IR Inten    --     11.9330                30.0677                16.2738

                     16                     17                     18
                      A                      A                      A
 Frequencies --    589.9607               607.7888               654.1152
 Red. masses --     17.2479                18.2537                16.0105
 Frc consts  --      3.5370                 3.9729                 4.0361
 IR Inten    --    145.6209                 3.6038                79.3717

                     19                     20                     21
                      A                      A                      A
 Frequencies --    682.0892               725.4929               915.4725
 Red. masses --     14.4551                14.7499                17.9539
 Frc consts  --      3.9624                 4.5741                 8.8654
 IR Inten    --     52.6439               278.7087               238.7530

                     22                     23                     24
                      A                      A                      A
 Frequencies --    950.6906              1068.5475              1132.2231
 Red. masses --     16.2697                11.7333                 1.3705
 Frc consts  --      8.6638                 7.8933                 1.0351
 IR Inten    --    440.6690               126.5914               102.8133

                     25                     26                     27
                      A                      A                      A
 Frequencies --   1151.1974              1172.2984              1238.6072
 Red. masses --     10.5042                 7.5252                11.2608
 Frc consts  --      8.2018                 6.0932                10.1786
 IR Inten    --    126.0232               255.1115               367.8107

                     28                     29                     30
                      A                      A                      A
 Frequencies --   1363.5159              1376.0128              3806.6603
 Red. masses --     14.2518                13.6054                 1.0657
 Frc consts  --     15.6113                15.1777                 9.0985
 IR Inten    --    132.3207               437.6110               218.2854

 - Thermochemistry -
 -------------------
 Temperature   298.150 Kelvin.  Pressure   1.00000 Atm.
 Atom     1 has atomic number  6 and mass  12.00000

 Molecular mass:   199.95666 amu.
 Principal axes and moments of inertia in atomic units:
                           1         2         3
     Eigenvalues --  1338.069422092.236482442.60260
           X            0.95929   0.03641   0.28008
           Y            0.04039   0.96379  -0.26360
           Z           -0.27954   0.26418   0.92307
 This molecule is an asymmetric top.
 Rotational symmetry number  1.
 Warning -- assumption of classical behavior for rotation
           may cause significant error
 Rotational temperatures (Kelvin)      0.06473     0.04140     0.03546
 Rotational constants (GHZ):           1.34877     0.86259     0.73886
    1 imaginary frequencies ignored.
 Zero-point vibrational energy     127121.3 (Joules/Mol)
                                   30.38271 (Kcal/Mol)
 Warning -- explicit consideration of  16 degrees of freedom as
           vibrations may cause significant error
 Vibrational temperatures:     54.99   112.12   130.94   200.17   223.01
          (Kelvin)            285.21   372.89   423.90   481.08   509.19
                              564.27   670.67   721.30   744.01   848.82
                              874.47   941.13   981.37  1043.82  1317.16
                             1367.83  1537.40  1629.02  1656.32  1686.68
                             1782.08  1961.80  1979.78  5476.94

 Zero-point correction=                           0.048418 (Hartree/Particle)
 Thermal correction to Energy=                    0.059032
 Thermal correction to Enthalpy=                  0.059976
 Thermal correction to Gibbs Free Energy=         0.010788
 Sum of electronic and zero-point Energies=          -1199.716537
 Sum of electronic and thermal Energies=             -1199.705923
 Sum of electronic and thermal Enthalpies=           -1199.704979
 Sum of electronic and thermal Free Energies=        -1199.754167

                     E (Thermal)             CV                S
                      KCal/Mol        Cal/Mol-Kelvin    Cal/Mol-Kelvin
 Total                   37.043             36.379            103.525
 Electronic               0.000              0.000              0.000
 Translational            0.889              2.981             41.783
 Rotational               0.889              2.981             30.304
 Vibrational             35.266             30.418             31.437
 Vibration     1          0.594              1.982              5.349
 Vibration     2          0.599              1.964              3.942
 Vibration     3          0.602              1.956              3.638
 Vibration     4          0.615              1.914              2.816
 Vibration     5          0.620              1.897              2.610
 Vibration     6          0.637              1.842              2.149
 Vibration     7          0.668              1.747              1.667
 Vibration     8          0.689              1.684              1.447
 Vibration     9          0.716              1.607              1.239
 Vibration    10          0.730              1.567              1.149
 Vibration    11          0.760              1.487              0.992
 Vibration    12          0.823              1.325              0.748
 Vibration    13          0.857              1.247              0.655
 Vibration    14          0.872              1.212              0.617
 Vibration    15          0.947              1.053              0.467
 Vibration    16          0.967              1.015              0.436

 Normal termination of Gaussian 16 at Sat May 24 11:18:37 2025.
