 Gaussian 16, Revision C.01,
 Gaussian 16:  ES64L-G16RevC.01  3-Jul-2019

 ----------------------------------------------------------------------
 #P M062X/Def2TZVPP Symm(None) scf(xqc) pop(None) freq opt(CalcFC, Tigh
 t)
 ----------------------------------------------------------------------

 ------------------------------
 Gaussian input prepared by ASE
 ------------------------------
 Symbolic Z-matrix:
 Charge =  0 Multiplicity = 1

 SCF Done:  E(RM062X) =  -1199.70337676     A.U. after   15 cycles
 SCF Done:  E(RM062X) =  -1199.71168199     A.U. after   15 cycles
 SCF Done:  E(RM062X) =  -1199.71087449     A.U. after   15 cycles
 SCF Done:  E(RM062X) =  -1199.71357732     A.U. after   14 cycles
 SCF Done:  E(RM062X) =  -1199.71352854     A.U. after   13 cycles
 SCF Done:  E(RM062X) =  -1199.71369600     A.U. after   13 cycles
 SCF Done:  E(RM062X) =  -1199.71370517     A.U. after   10 cycles
 SCF Done:  E(RM062X) =  -1199.71370651     A.U. after   10 cycles
 SCF Done:  E(RM062X) =  -1199.71370690     A.U. after    8 cycles
 SCF Done:  E(RM062X) =  -1199.71370697     A.U. after    7 cycles
 SCF Done:  E(RM062X) =  -1199.71370698     A.U. after    6 cycles
 SCF Done:  E(RM062X) =  -1199.71370698     A.U. after    5 cycles
 SCF Done:  E(RM062X) =  -1199.71370698     A.U. after    4 cycles
 Optimization completed.
    -- Stationary point found.
 Normal termination of Gaussian 16 at Sat May 24 08:24:33 2025.

 ---------------------------------------------------------------------
 #P Geom=AllCheck Guess=TCheck SCRF=Check GenChk RM062X/def2TZVPP Freq
 ---------------------------------------------------------------------

 Structure from the checkpoint file:  "/tmp/Gau-204162.chk"
 ------------------------------
 Gaussian input prepared by ASE
 ------------------------------
 Charge =  0 Multiplicity = 1

                          Input orientation:
 ---------------------------------------------------------------------
 Center     Atomic      Atomic             Coordinates (Angstroms)
 Number     Number       Type             X           Y           Z
 ---------------------------------------------------------------------
      1          6           0        2.453016    0.039329   -2.590773
      2          6           0        2.525306   -0.612389   -1.252380
      3          9           0       -0.526076   -0.897799   -0.113809
      4          9           0        2.905391   -1.900065   -1.268158
      5         16           0        1.784141   -0.099419    0.072857
      6          8           0        0.143998    0.312286   -0.013597
      7          8           0        1.937553   -0.905673    1.226132
      8          8           0        2.128528    1.411844    0.211231
      9          9           0        1.845807    1.226243   -2.518687
     10          9           0        3.667267    0.227489   -3.109686
     11          9           0        1.778275   -0.715727   -3.461636
     12          1           0        1.430005    1.909317    0.668381
 ---------------------------------------------------------------------

 SCF Done:  E(RM062X) =  -1199.71370698     A.U. after    1 cycles

 Isotropic polarizability for W=    0.000000       59.69 Bohr**3.
 End of Minotr F.D. properties file   721 does not exist.

                      1                      2                      3
                      A                      A                      A
 Frequencies --     33.7762                50.9533               102.7714
 Red. masses --     17.5242                15.2432                15.6839
 Frc consts  --      0.0118                 0.0233                 0.0976
 IR Inten    --      0.2391                 0.9349                 0.8023

                      4                      5                      6
                      A                      A                      A
 Frequencies --    145.9433               160.9421               199.1231
 Red. masses --     10.5646                16.1158                 6.5728
 Frc consts  --      0.1326                 0.2459                 0.1535
 IR Inten    --      3.6754                 0.9488                14.5392

                      7                      8                      9
                      A                      A                      A
 Frequencies --    249.7753               293.2900               321.2141
 Red. masses --     16.4790                 6.3970                 2.9523
 Frc consts  --      0.6057                 0.3242                 0.1795
 IR Inten    --      0.4637                16.2501                30.5401

                     10                     11                     12
                      A                      A                      A
 Frequencies --    342.2855               351.2385               422.6498
 Red. masses --      3.9567                 4.4645                 8.7584
 Frc consts  --      0.2731                 0.3245                 0.9218
 IR Inten    --     13.5752                21.7844                16.2038

                     13                     14                     15
                      A                      A                      A
 Frequencies --    442.5586               481.1174               504.3145
 Red. masses --     11.8642                13.4402                17.0539
 Frc consts  --      1.3691                 1.8330                 2.5555
 IR Inten    --      7.4935                29.7777                30.7425

                     16                     17                     18
                      A                      A                      A
 Frequencies --    581.8526               599.3988               608.5052
 Red. masses --     13.2941                15.8179                16.3872
 Frc consts  --      2.6518                 3.3483                 3.5751
 IR Inten    --     49.2665                 6.8854                 4.4999

                     19                     20                     21
                      A                      A                      A
 Frequencies --    690.4145               782.8917               929.8794
 Red. masses --      9.8295                13.8873                17.1679
 Frc consts  --      2.7606                 5.0150                 8.7462
 IR Inten    --    234.2632                30.2859               203.7919

                     22                     23                     24
                      A                      A                      A
 Frequencies --   1109.3181              1114.6150              1182.2258
 Red. masses --      4.8336                 6.9180                 1.6638
 Frc consts  --      3.5046                 5.0638                 1.3701
 IR Inten    --     95.6910                88.2749               106.0148

                     25                     26                     27
                      A                      A                      A
 Frequencies --   1217.2556              1246.5030              1343.0890
 Red. masses --     13.1320                13.1368                14.0022
 Frc consts  --     11.4642                12.0262                14.8819
 IR Inten    --    289.7132               293.7217                39.4218

                     28                     29                     30
                      A                      A                      A
 Frequencies --   1390.4126              1434.5415              3749.6100
 Red. masses --     12.5484                15.9841                 1.0649
 Frc consts  --     14.2931                19.3805                 8.8213
 IR Inten    --    431.2663               160.9489               189.6712

 - Thermochemistry -
 -------------------
 Temperature   298.150 Kelvin.  Pressure   1.00000 Atm.
 Atom     1 has atomic number  6 and mass  12.00000

 Molecular mass:   199.95666 amu.
 Principal axes and moments of inertia in atomic units:
                           1         2         3
     Eigenvalues --  1215.174012469.385952519.73701
           X           -0.47250  -0.57598   0.66708
           Y           -0.04957   0.77307   0.63238
           Z            0.87994  -0.26573   0.39382
 This molecule is an asymmetric top.
 Rotational symmetry number  1.
 Warning -- assumption of classical behavior for rotation
           may cause significant error
 Rotational temperatures (Kelvin)      0.07128     0.03508     0.03437
 Rotational constants (GHZ):           1.48517     0.73085     0.71624
 Zero-point vibrational energy     132082.5 (Joules/Mol)
                                   31.56847 (Kcal/Mol)
 Warning -- explicit consideration of  18 degrees of freedom as
           vibrations may cause significant error
 Vibrational temperatures:     48.60    73.31   147.87   209.98   231.56
          (Kelvin)            286.49   359.37   421.98   462.16   492.47
                              505.35   608.10   636.74   692.22   725.60
                              837.16   862.40   875.50   993.35  1126.41
                             1337.89  1596.06  1603.68  1700.96  1751.36
                             1793.44  1932.41  2000.49  2063.99  5394.85

 Zero-point correction=                           0.050308 (Hartree/Particle)
 Thermal correction to Energy=                    0.061319
 Thermal correction to Enthalpy=                  0.062263
 Thermal correction to Gibbs Free Energy=         0.012089
 Sum of electronic and zero-point Energies=          -1199.663399
 Sum of electronic and thermal Energies=             -1199.652388
 Sum of electronic and thermal Enthalpies=           -1199.651444
 Sum of electronic and thermal Free Energies=        -1199.701618

                     E (Thermal)             CV                S
                      KCal/Mol        Cal/Mol-Kelvin    Cal/Mol-Kelvin
 Total                   38.478             37.647            105.600
 Electronic               0.000              0.000              0.000
 Translational            0.889              2.981             41.783
 Rotational               0.889              2.981             30.404
 Vibrational             36.700             31.685             33.413
 Vibration     1          0.594              1.983              5.594
 Vibration     2          0.595              1.977              4.780
 Vibration     3          0.605              1.947              3.401
 Vibration     4          0.617              1.907              2.724
 Vibration     5          0.622              1.890              2.539
 Vibration     6          0.637              1.841              2.141
 Vibration     7          0.663              1.763              1.732
 Vibration     8          0.688              1.686              1.455
 Vibration     9          0.707              1.633              1.304
 Vibration    10          0.721              1.591              1.201
 Vibration    11          0.728              1.573              1.161
 Vibration    12          0.785              1.421              0.883
 Vibration    13          0.802              1.377              0.819
 Vibration    14          0.837              1.292              0.707
 Vibration    15          0.860              1.240              0.647
 Vibration    16          0.939              1.071              0.482
 Vibration    17          0.957              1.033              0.451
 Vibration    18          0.967              1.014              0.435

 Optimization completed.
    -- Stationary point found.
 Normal termination of Gaussian 16 at Sat May 24 08:29:36 2025.
