 Gaussian 16, Revision C.01,
 Gaussian 16:  ES64L-G16RevC.01  3-Jul-2019

 ------------------------------------------
 #P am1 Symm(None) scf(xqc) pop(None) force
 ------------------------------------------

 ------------------------------
 Gaussian input prepared by ASE
 ------------------------------
 Symbolic Z-matrix:
 Charge =  0 Multiplicity = 1

                          Input orientation:
 ---------------------------------------------------------------------
 Center     Atomic      Atomic             Coordinates (Angstroms)
 Number     Number       Type             X           Y           Z
 ---------------------------------------------------------------------
      1          6           0       -0.451482   -0.701360    0.690224
      2          6           0        0.013414   -0.120702   -0.677234
      3          9           0       -0.611646   -0.522248   -1.761306
      4          9           0       -0.373091    1.153502   -0.694639
      5         16           0        1.735967   -0.383098   -0.048688
      6          8           0        1.646918   -1.537326    0.838619
      7          8           0        2.750392    0.052741   -0.949677
      8          8           0        1.619438    0.853794    0.995662
      9          9           0        0.670736   -1.758675   -0.861216
     10          9           0       -0.396907   -0.116228    1.803614
     11          9           0       -1.071499   -1.779494    0.804797
     12          1           0        1.915692    1.738683    0.754041
 ---------------------------------------------------------------------

 SCF Done:  E(RAM1) =  0.542290903293     A.U. after   19 cycles
 Normal termination of Gaussian 16 at Sat May 24 06:01:02 2025.
