 Gaussian 16, Revision C.01,
 Gaussian 16:  ES64L-G16RevC.01  3-Jul-2019

 ----------------------------------------------------------------------
 #P M062X/Def2TZVPP Symm(None) scf(xqc) pop(None) opt(NoFreeze,TS,CalcA
 ll,NoEigentest,MaxCycle=999)
 ----------------------------------------------------------------------

 ------------------------------
 Gaussian input prepared by ASE
 ------------------------------
 Symbolic Z-matrix:
 Charge =  0 Multiplicity = 1

 SCF Done:  E(RM062X) =  -1199.74782200     A.U. after   17 cycles
 SCF Done:  E(RM062X) =  -1199.75555743     A.U. after   15 cycles
 SCF Done:  E(RM062X) =  -1199.76030978     A.U. after   14 cycles
 SCF Done:  E(RM062X) =  -1199.76134396     A.U. after   14 cycles
 SCF Done:  E(RM062X) =  -1199.76150923     A.U. after   13 cycles
 SCF Done:  E(RM062X) =  -1199.76151469     A.U. after   11 cycles
 SCF Done:  E(RM062X) =  -1199.76151472     A.U. after    8 cycles

 Isotropic polarizability for W=    0.000000       58.90 Bohr**3.
 End of Minotr F.D. properties file   721 does not exist.

 Optimization completed.
    -- Stationary point found.

                          Input orientation:
 ---------------------------------------------------------------------
 Center     Atomic      Atomic             Coordinates (Angstroms)
 Number     Number       Type             X           Y           Z
 ---------------------------------------------------------------------
      1          6           0       -0.093583   -0.854689   -1.260198
      2          6           0       -0.068820   -0.097870    0.096496
      3          9           0       -0.684118    1.076457   -0.087981
      4          9           0       -0.665315   -0.728820    1.074530
      5         16           0        1.766106    0.066593    0.095948
      6          8           0        2.639449   -0.299471    1.142422
      7          8           0        1.869269   -0.114632   -1.368280
      8          8           0        1.839327    1.664059    0.213061
      9          9           0       -0.560332   -2.013746   -1.431900
     10          9           0        1.224527   -1.853974   -0.021012
     11          9           0       -0.326763   -0.151240   -2.305294
     12          1           0        1.573010    2.075857   -0.617843
 ---------------------------------------------------------------------

 ******    1 imaginary frequencies (negative Signs) ******

                      1                      2                      3
                      A                      A                      A
 Frequencies --   -394.2027               100.7991               134.4764
 Red. masses --     16.8503                15.0352                 7.8170
 Frc consts  --      1.5428                 0.0900                 0.0833
 IR Inten    --      3.6779               146.8653                69.7338

                      4                      5                      6
                      A                      A                      A
 Frequencies --    189.5550               203.8265               254.4104
 Red. masses --     17.9866                 8.6819                16.4444
 Frc consts  --      0.3808                 0.2125                 0.6271
 IR Inten    --      7.8499                40.5941                 1.0046

                      7                      8                      9
                      A                      A                      A
 Frequencies --    278.7685               298.0538               310.6394
 Red. masses --      7.6696                11.7706                11.4509
 Frc consts  --      0.3512                 0.6161                 0.6510
 IR Inten    --      6.6485                 8.0837                31.1760

                     10                     11                     12
                      A                      A                      A
 Frequencies --    367.7775               384.8324               415.1602
 Red. masses --      1.6829                 8.7430                17.1716
 Frc consts  --      0.1341                 0.7629                 1.7438
 IR Inten    --     49.0777                54.8223                55.5590

                     13                     14                     15
                      A                      A                      A
 Frequencies --    436.5644               506.3196               540.0264
 Red. masses --     15.4139                 7.0606                 7.3504
 Frc consts  --      1.7309                 1.0664                 1.2630
 IR Inten    --     44.9784                 6.2271                35.7677

                     16                     17                     18
                      A                      A                      A
 Frequencies --    565.8946               582.1608               646.7656
 Red. masses --     16.4783                16.6968                17.8272
 Frc consts  --      3.1091                 3.3340                 4.3937
 IR Inten    --     47.3843               123.2131                39.1098

                     19                     20                     21
                      A                      A                      A
 Frequencies --    679.8344               774.6214               827.8207
 Red. masses --     15.9971                16.3172                14.8334
 Frc consts  --      4.3561                 5.7686                 5.9891
 IR Inten    --     35.5353                42.0614               218.9361

                     22                     23                     24
                      A                      A                      A
 Frequencies --    981.4695              1098.3065              1163.9307
 Red. masses --     12.5365                 9.9130                 1.7682
 Frc consts  --      7.1151                 7.0454                 1.4114
 IR Inten    --     34.6347               172.8278               271.6979

                     25                     26                     27
                      A                      A                      A
 Frequencies --   1180.2106              1321.3073              1385.2420
 Red. masses --      3.2597                13.4497                13.0549
 Frc consts  --      2.6752                13.8347                14.7596
 IR Inten    --     16.8086               297.3600               210.3397

                     28                     29                     30
                      A                      A                      A
 Frequencies --   1422.5747              1494.2873              3846.4181
 Red. masses --     15.1850                13.1893                 1.0658
 Frc consts  --     18.1057                17.3516                 9.2909
 IR Inten    --    394.3382               234.9901               113.0650

 - Thermochemistry -
 -------------------
 Temperature   298.150 Kelvin.  Pressure   1.00000 Atm.
 Atom     1 has atomic number  6 and mass  12.00000

 Molecular mass:   199.95666 amu.
 Principal axes and moments of inertia in atomic units:
                           1         2         3
     Eigenvalues --  1234.796821876.904741976.47189
           X            0.75282  -0.42897  -0.49925
           Y            0.41961   0.89714  -0.13811
           Z            0.50714  -0.10551   0.85538
 This molecule is an asymmetric top.
 Rotational symmetry number  1.
 Warning -- assumption of classical behavior for rotation
           may cause significant error
 Rotational temperatures (Kelvin)      0.07014     0.04615     0.04382
 Rotational constants (GHZ):           1.46157     0.96155     0.91311
    1 imaginary frequencies ignored.
 Zero-point vibrational energy     133934.2 (Joules/Mol)
                                   32.01105 (Kcal/Mol)
 Warning -- explicit consideration of  16 degrees of freedom as
           vibrations may cause significant error
 Vibrational temperatures:    145.03   193.48   272.73   293.26   366.04
          (Kelvin)            401.09   428.83   446.94   529.15   553.69
                              597.32   628.12   728.48   776.98   814.20
                              837.60   930.55   978.13  1114.51  1191.05
                             1412.12  1580.22  1674.64  1698.06  1901.07
                             1993.05  2046.77  2149.95  5534.14

 Zero-point correction=                           0.051013 (Hartree/Particle)
 Thermal correction to Energy=                    0.060687
 Thermal correction to Enthalpy=                  0.061631
 Thermal correction to Gibbs Free Energy=         0.016078
 Sum of electronic and zero-point Energies=          -1199.710502
 Sum of electronic and thermal Energies=             -1199.700828
 Sum of electronic and thermal Enthalpies=           -1199.699884
 Sum of electronic and thermal Free Energies=        -1199.745437

                     E (Thermal)             CV                S
                      KCal/Mol        Cal/Mol-Kelvin    Cal/Mol-Kelvin
 Total                   38.081             35.411             95.874
 Electronic               0.000              0.000              0.000
 Translational            0.889              2.981             41.783
 Rotational               0.889              2.981             29.906
 Vibrational             36.304             29.449             24.185
 Vibration     1          0.604              1.948              3.439
 Vibration     2          0.613              1.919              2.881
 Vibration     3          0.633              1.854              2.232
 Vibration     4          0.639              1.834              2.098
 Vibration     5          0.665              1.755              1.700
 Vibration     6          0.679              1.713              1.541
 Vibration     7          0.691              1.677              1.428
 Vibration     8          0.699              1.653              1.359
 Vibration     9          0.740              1.538              1.089
 Vibration    10          0.754              1.503              1.020
 Vibration    11          0.779              1.437              0.909
 Vibration    12          0.797              1.390              0.837
 Vibration    13          0.862              1.236              0.643
 Vibration    14          0.895              1.162              0.565
 Vibration    15          0.922              1.105              0.512
 Vibration    16          0.939              1.070              0.481

 Normal termination of Gaussian 16 at Sat May 24 08:07:13 2025.
