 Gaussian 16, Revision C.01,
 Gaussian 16:  ES64L-G16RevC.01  3-Jul-2019

 ----------------------------------------------------------------------
 #P M062X/Def2TZVPP Symm(None) scf(xqc) pop(None) opt(NoFreeze,TS,CalcA
 ll,NoEigentest,MaxCycle=999)
 ----------------------------------------------------------------------

 ------------------------------
 Gaussian input prepared by ASE
 ------------------------------
 Symbolic Z-matrix:
 Charge =  0 Multiplicity = 1

 SCF Done:  E(RM062X) =  -1199.74088642     A.U. after   21 cycles
 SCF Done:  E(RM062X) =  -1199.74088688     A.U. after   11 cycles

 Isotropic polarizability for W=    0.000000       66.68 Bohr**3.
 End of Minotr F.D. properties file   721 does not exist.

 Optimization completed.
    -- Stationary point found.

                          Input orientation:
 ---------------------------------------------------------------------
 Center     Atomic      Atomic             Coordinates (Angstroms)
 Number     Number       Type             X           Y           Z
 ---------------------------------------------------------------------
      1          6           0       -0.815861    0.536946    1.184808
      2          6           0        0.000016   -0.000285   -0.000180
      3          9           0       -0.338194   -1.274959   -0.219688
      4          9           0       -0.310761    0.719106   -1.085793
      5         16           0        2.032832   -0.000653    0.000145
      6          8           0        1.907932   -0.479017    1.438383
      7          8           0        3.472650   -0.286382    0.566940
      8          8           0        2.047829    1.595680   -0.004624
      9          9           0       -0.670567   -0.244099    2.244553
     10          9           0       -0.425734    1.765945    1.497505
     11          9           0       -2.107454    0.573747    0.866245
     12          1           0        2.864655    1.902281    0.413456
 ---------------------------------------------------------------------

 ******    1 imaginary frequencies (negative Signs) ******

                      1                      2                      3
                      A                      A                      A
 Frequencies --   -944.1884                45.0738                82.7062
 Red. masses --     18.0953                15.7539                13.2428
 Frc consts  --      9.5046                 0.0189                 0.0534
 IR Inten    --    546.4293                 0.2438                 0.6416

                      4                      5                      6
                      A                      A                      A
 Frequencies --    120.0772               159.9786               193.1997
 Red. masses --     14.7066                 7.1950                 4.4489
 Frc consts  --      0.1249                 0.1085                 0.0978
 IR Inten    --      0.8837                 5.2986                13.8594

                      7                      8                      9
                      A                      A                      A
 Frequencies --    226.8612               236.2746               261.8875
 Red. masses --     18.6072                 9.6863                 2.3100
 Frc consts  --      0.5642                 0.3186                 0.0933
 IR Inten    --      1.4947                 4.9742                49.3746

                     10                     11                     12
                      A                      A                      A
 Frequencies --    297.7243               314.8710               369.6772
 Red. masses --     16.8468                 3.5906                18.1298
 Frc consts  --      0.8798                 0.2097                 1.4598
 IR Inten    --      1.8464                26.0208                 2.6277

                     13                     14                     15
                      A                      A                      A
 Frequencies --    395.8450               451.0768               461.8086
 Red. masses --     14.8942                13.7927                 6.9819
 Frc consts  --      1.3750                 1.6535                 0.8773
 IR Inten    --     20.5571                 3.3056                29.5417

                     16                     17                     18
                      A                      A                      A
 Frequencies --    544.6691               601.6518               638.5502
 Red. masses --     17.7062                17.6438                17.1141
 Frc consts  --      3.0949                 3.7630                 4.1115
 IR Inten    --      4.8880                 1.1972                 7.9154

                     19                     20                     21
                      A                      A                      A
 Frequencies --    756.1107               808.9226               868.3385
 Red. masses --     16.3123                16.9279                16.5005
 Frc consts  --      5.4946                 6.5263                 7.3303
 IR Inten    --     56.6584                68.1144               151.7517

                     22                     23                     24
                      A                      A                      A
 Frequencies --    939.6881              1097.4224              1156.9959
 Red. masses --     13.7065                 5.9742                 1.9404
 Frc consts  --      7.1309                 4.2392                 1.5304
 IR Inten    --    100.9171                36.9411               149.4219

                     25                     26                     27
                      A                      A                      A
 Frequencies --   1166.8062              1237.1489              1263.7860
 Red. masses --      3.7278                 9.2473                13.1638
 Frc consts  --      2.9902                 8.3389                12.3873
 IR Inten    --    144.4101                95.5944               227.7325

                     28                     29                     30
                      A                      A                      A
 Frequencies --   1291.9606              1368.5359              3812.2450
 Red. masses --     13.1450                12.2630                 1.0654
 Frc consts  --     12.9273                13.5319                 9.1230
 IR Inten    --    281.0973               279.0783               165.5502

 - Thermochemistry -
 -------------------
 Temperature   298.150 Kelvin.  Pressure   1.00000 Atm.
 Atom     1 has atomic number  6 and mass  12.00000

 Molecular mass:   199.95666 amu.
 Principal axes and moments of inertia in atomic units:
                           1         2         3
     Eigenvalues --  1089.841942393.964402456.04485
           X            0.98175   0.17063   0.08395
           Y           -0.09260   0.04332   0.99476
           Z           -0.16610   0.98438  -0.05833
 This molecule is an asymmetric top.
 Rotational symmetry number  1.
 Warning -- assumption of classical behavior for rotation
           may cause significant error
 Rotational temperatures (Kelvin)      0.07947     0.03618     0.03527
 Rotational constants (GHZ):           1.65597     0.75387     0.73482
    1 imaginary frequencies ignored.
 Zero-point vibrational energy     126624.1 (Joules/Mol)
                                   30.26388 (Kcal/Mol)
 Warning -- explicit consideration of  16 degrees of freedom as
           vibrations may cause significant error
 Vibrational temperatures:     64.85   119.00   172.76   230.17   277.97
          (Kelvin)            326.40   339.95   376.80   428.36   453.03
                              531.88   569.53   649.00   664.44   783.66
                              865.64   918.73  1087.87  1163.86  1249.35
                             1352.00  1578.95  1664.66  1678.77  1779.98
                             1818.31  1858.84  1969.02  5484.97

 Zero-point correction=                           0.048229 (Hartree/Particle)
 Thermal correction to Energy=                    0.058939
 Thermal correction to Enthalpy=                  0.059883
 Thermal correction to Gibbs Free Energy=         0.011007
 Sum of electronic and zero-point Energies=          -1199.692658
 Sum of electronic and thermal Energies=             -1199.681948
 Sum of electronic and thermal Enthalpies=           -1199.681004
 Sum of electronic and thermal Free Energies=        -1199.729880

                     E (Thermal)             CV                S
                      KCal/Mol        Cal/Mol-Kelvin    Cal/Mol-Kelvin
 Total                   36.985             36.782            102.869
 Electronic               0.000              0.000              0.000
 Translational            0.889              2.981             41.783
 Rotational               0.889              2.981             30.239
 Vibrational             35.207             30.820             30.846
 Vibration     1          0.595              1.979              5.023
 Vibration     2          0.600              1.961              3.826
 Vibration     3          0.609              1.933              3.099
 Vibration     4          0.622              1.891              2.550
 Vibration     5          0.635              1.849              2.197
 Vibration     6          0.651              1.800              1.904
 Vibration     7          0.655              1.785              1.831
 Vibration     8          0.669              1.743              1.649
 Vibration     9          0.691              1.678              1.430
 Vibration    10          0.702              1.645              1.337
 Vibration    11          0.742              1.535              1.081
 Vibration    12          0.763              1.479              0.978
 Vibration    13          0.810              1.359              0.793
 Vibration    14          0.820              1.335              0.761
 Vibration    15          0.900              1.151              0.555
 Vibration    16          0.960              1.028              0.447

 Normal termination of Gaussian 16 at Sat May 24 06:33:39 2025.
