 Gaussian 16, Revision C.01,
 Gaussian 16:  ES64L-G16RevC.01  3-Jul-2019

 ------------------------------------------
 #P am1 Symm(None) scf(xqc) pop(None) force
 ------------------------------------------

 ------------------------------
 Gaussian input prepared by ASE
 ------------------------------
 Symbolic Z-matrix:
 Charge =  0 Multiplicity = 1

                          Input orientation:
 ---------------------------------------------------------------------
 Center     Atomic      Atomic             Coordinates (Angstroms)
 Number     Number       Type             X           Y           Z
 ---------------------------------------------------------------------
      1          6           0       -0.168417    0.595695    0.283256
      2          6           0        1.706338   -0.539871   -0.474285
      3          9           0        2.098071   -1.631909    0.190877
      4          9           0        1.414864   -0.969712   -1.718273
      5         16           0        2.558691    1.040058   -0.176100
      6          8           0        1.418952    1.507118    0.650631
      7          8           0        3.805937    1.325765    0.445104
      8          8           0        2.491926    1.996885   -1.435654
      9          9           0       -0.786756    1.664377    0.740124
     10          9           0       -0.518015    0.392225   -0.952971
     11          9           0       -0.243168   -0.389351    1.129410
     12          1           0        2.980065    2.832898   -1.424717
 ---------------------------------------------------------------------

 SCF Done:  E(RAM1) =  0.254565112777     A.U. after   17 cycles
 Normal termination of Gaussian 16 at Sat May 24 10:26:59 2025.
