 Gaussian 16, Revision C.01,
 Gaussian 16:  ES64L-G16RevC.01  3-Jul-2019

 ----------------------------------------------------------------------
 #P M062X/Def2TZVPP Symm(None) scf(xqc) pop(None) freq opt(CalcFC, Tigh
 t)
 ----------------------------------------------------------------------

 ------------------------------
 Gaussian input prepared by ASE
 ------------------------------
 Symbolic Z-matrix:
 Charge =  0 Multiplicity = 1

 SCF Done:  E(RM062X) =  -1199.93453555     A.U. after   13 cycles
 SCF Done:  E(RM062X) =  -1199.93803396     A.U. after   13 cycles
 SCF Done:  E(RM062X) =  -1199.91320346     A.U. after   13 cycles
 SCF Done:  E(RM062X) =  -1199.93901530     A.U. after   12 cycles
 SCF Done:  E(RM062X) =  -1199.93970104     A.U. after   12 cycles
 SCF Done:  E(RM062X) =  -1199.94039410     A.U. after   11 cycles
 SCF Done:  E(RM062X) =  -1199.94041941     A.U. after   11 cycles
 SCF Done:  E(RM062X) =  -1199.94052522     A.U. after   11 cycles
 SCF Done:  E(RM062X) =  -1199.94055221     A.U. after    9 cycles
 SCF Done:  E(RM062X) =  -1199.94056418     A.U. after    9 cycles
 SCF Done:  E(RM062X) =  -1199.94056528     A.U. after    7 cycles
 SCF Done:  E(RM062X) =  -1199.94056543     A.U. after    6 cycles
 SCF Done:  E(RM062X) =  -1199.94056544     A.U. after    5 cycles
 SCF Done:  E(RM062X) =  -1199.94056544     A.U. after    3 cycles
 SCF Done:  E(RM062X) =  -1199.94056544     A.U. after    4 cycles
 Optimization completed.
    -- Stationary point found.
 Normal termination of Gaussian 16 at Fri May 23 23:54:50 2025.

 ---------------------------------------------------------------------
 #P Geom=AllCheck Guess=TCheck SCRF=Check GenChk RM062X/def2TZVPP Freq
 ---------------------------------------------------------------------

 Structure from the checkpoint file:  "/tmp/Gau-167341.chk"
 ------------------------------
 Gaussian input prepared by ASE
 ------------------------------
 Charge =  0 Multiplicity = 1

                          Input orientation:
 ---------------------------------------------------------------------
 Center     Atomic      Atomic             Coordinates (Angstroms)
 Number     Number       Type             X           Y           Z
 ---------------------------------------------------------------------
      1          6           0       -0.657513    0.873113    1.100579
      2          6           0        0.086331    0.094964   -0.009283
      3          9           0       -0.337501   -1.165898   -0.003421
      4          9           0       -0.198508    0.653812   -1.191289
      5         16           0        1.922358    0.061071    0.164997
      6          8           0        2.222971   -0.072597    1.538353
      7          8           0        2.385697   -0.832375   -0.834635
      8          8           0        2.273917    1.533114   -0.254501
      9          9           0       -0.564372    0.239995    2.253851
     10          9           0       -0.153032    2.092341    1.221533
     11          9           0       -1.937078    0.969985    0.764616
     12          1           0        2.404670    1.586772   -1.212390
 ---------------------------------------------------------------------

 SCF Done:  E(RM062X) =  -1199.94056544     A.U. after    1 cycles

 Isotropic polarizability for W=    0.000000       53.53 Bohr**3.
 End of Minotr F.D. properties file   721 does not exist.

                      1                      2                      3
                      A                      A                      A
 Frequencies --     47.6112                70.0053               133.7468
 Red. masses --     13.6727                15.5123                16.5550
 Frc consts  --      0.0183                 0.0448                 0.1745
 IR Inten    --      1.9953                 0.6736                 0.4477

                      4                      5                      6
                      A                      A                      A
 Frequencies --    193.9299               223.6513               241.9642
 Red. masses --      6.0082                17.0836                15.5387
 Frc consts  --      0.1331                 0.5035                 0.5360
 IR Inten    --     13.2818                 1.2189                 6.1131

                      7                      8                      9
                      A                      A                      A
 Frequencies --    286.7028               315.6778               324.3541
 Red. masses --     11.7243                16.9083                 6.9257
 Frc consts  --      0.5678                 0.9927                 0.4293
 IR Inten    --      0.7509                 0.2191                 7.7443

                     10                     11                     12
                      A                      A                      A
 Frequencies --    359.8628               380.8191               446.7088
 Red. masses --      2.1316                 4.5410                14.1319
 Frc consts  --      0.1626                 0.3880                 1.6615
 IR Inten    --     45.2267                17.3397                11.0595

                     13                     14                     15
                      A                      A                      A
 Frequencies --    474.2858               529.4271               543.1071
 Red. masses --      4.1284                14.4471                17.8967
 Frc consts  --      0.5472                 2.3858                 3.1102
 IR Inten    --     32.4658                17.5378                20.3655

                     16                     17                     18
                      A                      A                      A
 Frequencies --    609.8235               630.6355               664.4221
 Red. masses --     17.2559                19.2659                17.3870
 Frc consts  --      3.7809                 4.5144                 4.5223
 IR Inten    --      5.3568               109.5301                47.7361

                     19                     20                     21
                      A                      A                      A
 Frequencies --    781.5566               905.5354              1040.8068
 Red. masses --     17.3583                16.7483                13.6256
 Frc consts  --      6.2471                 8.0916                 8.6965
 IR Inten    --     11.4262               186.7798                96.4477

                     22                     23                     24
                      A                      A                      A
 Frequencies --   1142.8981              1196.8601              1256.7136
 Red. masses --      1.1853                13.9612                13.8521
 Frc consts  --      0.9122                11.7831                12.8895
 IR Inten    --     87.7623               127.4923                42.7970

                     25                     26                     27
                      A                      A                      A
 Frequencies --   1275.7574              1287.5137              1311.0275
 Red. masses --     14.7895                13.5560                13.3526
 Frc consts  --     14.1821                13.2400                13.5220
 IR Inten    --    186.0979               200.5756               368.6012

                     28                     29                     30
                      A                      A                      A
 Frequencies --   1389.9555              1502.8555              3808.7527
 Red. masses --     12.6963                15.3557                 1.0657
 Frc consts  --     14.4520                20.4340                 9.1083
 IR Inten    --     81.7122               279.1901               190.1433

 - Thermochemistry -
 -------------------
 Temperature   298.150 Kelvin.  Pressure   1.00000 Atm.
 Atom     1 has atomic number  6 and mass  12.00000

 Molecular mass:   199.95666 amu.
 Principal axes and moments of inertia in atomic units:
                           1         2         3
     Eigenvalues --  1131.742822109.082882245.96465
           X            0.91350   0.40672   0.00969
           Y           -0.23389   0.50555   0.83049
           Z           -0.33288   0.76092  -0.55694
 This molecule is an asymmetric top.
 Rotational symmetry number  1.
 Warning -- assumption of classical behavior for rotation
           may cause significant error
 Rotational temperatures (Kelvin)      0.07653     0.04107     0.03856
 Rotational constants (GHZ):           1.59466     0.85570     0.80355
 Zero-point vibrational energy     139825.3 (Joules/Mol)
                                   33.41905 (Kcal/Mol)
 Warning -- explicit consideration of  16 degrees of freedom as
           vibrations may cause significant error
 Vibrational temperatures:     68.50   100.72   192.43   279.02   321.78
          (Kelvin)            348.13   412.50   454.19   466.67   517.76
                              547.91   642.71   682.39   761.73   781.41
                              877.40   907.34   955.96  1124.49  1302.86
                             1497.49  1644.38  1722.01  1808.13  1835.53
                             1852.45  1886.28  1999.84  2162.27  5479.95

 Zero-point correction=                           0.053257 (Hartree/Particle)
 Thermal correction to Energy=                    0.063496
 Thermal correction to Enthalpy=                  0.064440
 Thermal correction to Gibbs Free Energy=         0.016676
 Sum of electronic and zero-point Energies=          -1199.887309
 Sum of electronic and thermal Energies=             -1199.877069
 Sum of electronic and thermal Enthalpies=           -1199.876125
 Sum of electronic and thermal Free Energies=        -1199.923889

                     E (Thermal)             CV                S
                      KCal/Mol        Cal/Mol-Kelvin    Cal/Mol-Kelvin
 Total                   39.844             35.957            100.528
 Electronic               0.000              0.000              0.000
 Translational            0.889              2.981             41.783
 Rotational               0.889              2.981             30.062
 Vibrational             38.067             29.996             28.683
 Vibration     1          0.595              1.978              4.914
 Vibration     2          0.598              1.968              4.153
 Vibration     3          0.613              1.920              2.891
 Vibration     4          0.635              1.848              2.190
 Vibration     5          0.649              1.805              1.929
 Vibration     6          0.658              1.776              1.788
 Vibration     7          0.684              1.698              1.493
 Vibration     8          0.703              1.644              1.332
 Vibration     9          0.709              1.627              1.288
 Vibration    10          0.734              1.555              1.123
 Vibration    11          0.751              1.511              1.036
 Vibration    12          0.806              1.368              0.806
 Vibration    13          0.831              1.307              0.726
 Vibration    14          0.884              1.185              0.588
 Vibration    15          0.898              1.155              0.559
 Vibration    16          0.969              1.011              0.433

                           ! Non-Optimized Parameters !
 Normal termination of Gaussian 16 at Fri May 23 23:59:36 2025.
