 Gaussian 16, Revision C.01,
 Gaussian 16:  ES64L-G16RevC.01  3-Jul-2019

 ----------------------------------------------------------------------
 #P M062X/Def2TZVPP Symm(None) scf(xqc) pop(None) opt(NoFreeze,TS,CalcA
 ll,NoEigentest,MaxCycle=999)
 ----------------------------------------------------------------------

 ------------------------------
 Gaussian input prepared by ASE
 ------------------------------
 Symbolic Z-matrix:
 Charge =  0 Multiplicity = 1

 SCF Done:  E(RM062X) =  -1199.75910995     A.U. after   17 cycles
 SCF Done:  E(RM062X) =  -1199.76085167     A.U. after   14 cycles
 SCF Done:  E(RM062X) =  -1199.76142987     A.U. after   14 cycles
 SCF Done:  E(RM062X) =  -1199.76151090     A.U. after   14 cycles
 SCF Done:  E(RM062X) =  -1199.76151433     A.U. after    9 cycles

 Isotropic polarizability for W=    0.000000       58.90 Bohr**3.
 End of Minotr F.D. properties file   721 does not exist.

 Optimization completed.
    -- Stationary point found.

                          Input orientation:
 ---------------------------------------------------------------------
 Center     Atomic      Atomic             Coordinates (Angstroms)
 Number     Number       Type             X           Y           Z
 ---------------------------------------------------------------------
      1          6           0       -0.044158   -0.854354    1.277932
      2          6           0        0.040854    0.014703   -0.007134
      3          9           0       -0.625413   -0.464133   -1.025489
      4          9           0       -0.452268    1.222635    0.291529
      5         16           0        1.882957   -0.002855   -0.026858
      6          8           0        1.981326   -0.324592    1.413473
      7          8           0        2.704747   -0.359450   -1.117272
      8          8           0        2.115133    1.583290   -0.003731
      9          9           0        1.151996   -1.864740   -0.068418
     10          9           0       -0.195740   -0.226889    2.385005
     11          9           0       -0.624217   -1.971834    1.356679
     12          1           0        1.903319    1.942856    0.866185
 ---------------------------------------------------------------------

 ******    1 imaginary frequencies (negative Signs) ******

                      1                      2                      3
                      A                      A                      A
 Frequencies --   -394.1665               101.6968               132.3949
 Red. masses --     16.8082                14.9934                 7.2984
 Frc consts  --      1.5386                 0.0914                 0.0754
 IR Inten    --      3.6830               143.8278                68.4923

                      4                      5                      6
                      A                      A                      A
 Frequencies --    190.0918               203.1421               254.4059
 Red. masses --     17.9616                 8.8555                16.2943
 Frc consts  --      0.3824                 0.2153                 0.6214
 IR Inten    --      7.3929                44.3336                 0.9804

                      7                      8                      9
                      A                      A                      A
 Frequencies --    278.4002               297.8502               310.1448
 Red. masses --      7.1823                11.1052                10.4700
 Frc consts  --      0.3280                 0.5805                 0.5934
 IR Inten    --      6.1849                 9.2689                28.9768

                     10                     11                     12
                      A                      A                      A
 Frequencies --    361.3325               384.2031               415.4033
 Red. masses --      1.6537                13.0028                17.3191
 Frc consts  --      0.1272                 1.1309                 1.7608
 IR Inten    --     63.1998                43.1155                54.6535

                     13                     14                     15
                      A                      A                      A
 Frequencies --    436.8569               506.4227               539.9920
 Red. masses --     15.3432                 7.1918                 7.3801
 Frc consts  --      1.7252                 1.0867                 1.2679
 IR Inten    --     45.0686                 5.8017                36.3394

                     16                     17                     18
                      A                      A                      A
 Frequencies --    565.9036               582.2445               646.6929
 Red. masses --     16.4648                16.6894                17.7846
 Frc consts  --      3.1066                 3.3335                 4.3822
 IR Inten    --     45.8767               124.8782                38.2847

                     19                     20                     21
                      A                      A                      A
 Frequencies --    680.1824               774.6840               827.2151
 Red. masses --     15.9897                16.3095                14.8700
 Frc consts  --      4.3585                 5.7669                 5.9951
 IR Inten    --     36.1834                41.8309               219.6528

                     22                     23                     24
                      A                      A                      A
 Frequencies --    981.4749              1097.9799              1163.2431
 Red. masses --     12.5421                 9.8123                 1.7404
 Frc consts  --      7.1184                 6.9696                 1.3875
 IR Inten    --     34.9309               172.0966               271.8626

                     25                     26                     27
                      A                      A                      A
 Frequencies --   1180.0523              1321.3919              1385.3182
 Red. masses --      3.3668                13.4520                13.0503
 Frc consts  --      2.7623                13.8389                14.7561
 IR Inten    --     17.5837               298.8276               209.9771

                     28                     29                     30
                      A                      A                      A
 Frequencies --   1422.4955              1494.1772              3846.8487
 Red. masses --     15.1970                13.1945                 1.0658
 Frc consts  --     18.1180                17.3559                 9.2929
 IR Inten    --    394.4726               234.1788               113.7534

 - Thermochemistry -
 -------------------
 Temperature   298.150 Kelvin.  Pressure   1.00000 Atm.
 Atom     1 has atomic number  6 and mass  12.00000

 Molecular mass:   199.95666 amu.
 Principal axes and moments of inertia in atomic units:
                           1         2         3
     Eigenvalues --  1234.901301876.677951976.15880
           X            0.78574  -0.33608   0.51929
           Y            0.38729   0.92190   0.01064
           Z           -0.48231   0.19276   0.85453
 This molecule is an asymmetric top.
 Rotational symmetry number  1.
 Warning -- assumption of classical behavior for rotation
           may cause significant error
 Rotational temperatures (Kelvin)      0.07014     0.04615     0.04383
 Rotational constants (GHZ):           1.46145     0.96167     0.91326
    1 imaginary frequencies ignored.
 Zero-point vibrational energy     133875.5 (Joules/Mol)
                                   31.99702 (Kcal/Mol)
 Warning -- explicit consideration of  16 degrees of freedom as
           vibrations may cause significant error
 Vibrational temperatures:    146.32   190.49   273.50   292.28   366.03
          (Kelvin)            400.56   428.54   446.23   519.88   552.78
                              597.67   628.54   728.63   776.93   814.21
                              837.72   930.45   978.63  1114.60  1190.18
                             1412.12  1579.75  1673.65  1697.83  1901.19
                             1993.16  2046.65  2149.79  5534.76

 Zero-point correction=                           0.050990 (Hartree/Particle)
 Thermal correction to Energy=                    0.060675
 Thermal correction to Enthalpy=                  0.061619
 Thermal correction to Gibbs Free Energy=         0.016044
 Sum of electronic and zero-point Energies=          -1199.710524
 Sum of electronic and thermal Energies=             -1199.700839
 Sum of electronic and thermal Enthalpies=           -1199.699895
 Sum of electronic and thermal Free Energies=        -1199.745471

                     E (Thermal)             CV                S
                      KCal/Mol        Cal/Mol-Kelvin    Cal/Mol-Kelvin
 Total                   38.074             35.429             95.922
 Electronic               0.000              0.000              0.000
 Translational            0.889              2.981             41.783
 Rotational               0.889              2.981             29.905
 Vibrational             36.297             29.467             24.233
 Vibration     1          0.604              1.948              3.422
 Vibration     2          0.613              1.921              2.911
 Vibration     3          0.633              1.854              2.227
 Vibration     4          0.639              1.835              2.104
 Vibration     5          0.665              1.755              1.700
 Vibration     6          0.679              1.713              1.543
 Vibration     7          0.691              1.678              1.429
 Vibration     8          0.699              1.654              1.362
 Vibration     9          0.736              1.552              1.116
 Vibration    10          0.753              1.504              1.023
 Vibration    11          0.779              1.437              0.908
 Vibration    12          0.797              1.390              0.837
 Vibration    13          0.862              1.236              0.642
 Vibration    14          0.895              1.162              0.565
 Vibration    15          0.922              1.105              0.512
 Vibration    16          0.939              1.070              0.481

 Normal termination of Gaussian 16 at Sat May 24 06:28:32 2025.
