 Gaussian 16, Revision C.01,
 Gaussian 16:  ES64L-G16RevC.01  3-Jul-2019

 ----------------------------------------------------------------------
 #P M062X/Def2TZVPP Symm(None) scf(xqc) pop(None) opt(NoFreeze,TS,CalcA
 ll,NoEigentest,MaxCycle=999)
 ----------------------------------------------------------------------

 ------------------------------
 Gaussian input prepared by ASE
 ------------------------------
 Symbolic Z-matrix:
 Charge =  0 Multiplicity = 1

 SCF Done:  E(RM062X) =  -1199.74778319     A.U. after   17 cycles
 SCF Done:  E(RM062X) =  -1199.75553854     A.U. after   15 cycles
 SCF Done:  E(RM062X) =  -1199.76031007     A.U. after   14 cycles
 SCF Done:  E(RM062X) =  -1199.76134424     A.U. after   14 cycles
 SCF Done:  E(RM062X) =  -1199.76150933     A.U. after   13 cycles
 SCF Done:  E(RM062X) =  -1199.76151475     A.U. after   11 cycles

 Isotropic polarizability for W=    0.000000       58.90 Bohr**3.
 End of Minotr F.D. properties file   721 does not exist.

 Optimization completed.
    -- Stationary point found.

                          Input orientation:
 ---------------------------------------------------------------------
 Center     Atomic      Atomic             Coordinates (Angstroms)
 Number     Number       Type             X           Y           Z
 ---------------------------------------------------------------------
      1          6           0       -0.092991   -0.856101    1.258968
      2          6           0       -0.068773   -0.098195   -0.097102
      3          9           0       -0.664926   -0.728479   -1.075746
      4          9           0       -0.684356    1.075870    0.088182
      5         16           0        1.766012    0.067040   -0.096076
      6          8           0        1.868514   -0.115494    1.368091
      7          8           0        2.639879   -0.298275   -1.142340
      8          8           0        1.839039    1.664492   -0.211984
      9          9           0        1.224738   -1.854128    0.019585
     10          9           0       -0.326984   -0.153397    2.304529
     11          9           0       -0.559917   -2.015292    1.429880
     12          1           0        1.570999    2.075756    0.618640
 ---------------------------------------------------------------------

 ******    1 imaginary frequencies (negative Signs) ******

                      1                      2                      3
                      A                      A                      A
 Frequencies --   -394.4277               101.0499               135.1226
 Red. masses --     16.8625                15.0388                 7.9239
 Frc consts  --      1.5456                 0.0905                 0.0852
 IR Inten    --      3.6956               144.7465                72.1505

                      4                      5                      6
                      A                      A                      A
 Frequencies --    189.6108               203.9962               254.4113
 Red. masses --     17.9928                 8.7872                16.4410
 Frc consts  --      0.3811                 0.2155                 0.6270
 IR Inten    --      8.1051                40.2571                 0.9937

                      7                      8                      9
                      A                      A                      A
 Frequencies --    279.1037               298.1926               310.8430
 Red. masses --      7.9440                11.9495                11.5329
 Frc consts  --      0.3646                 0.6260                 0.6566
 IR Inten    --      6.6963                 7.6729                31.6455

                     10                     11                     12
                      A                      A                      A
 Frequencies --    369.5432               385.3035               415.2348
 Red. masses --      1.7155                 7.5390                17.1660
 Frc consts  --      0.1380                 0.6594                 1.7438
 IR Inten    --     44.1566                58.9804                55.5889

                     13                     14                     15
                      A                      A                      A
 Frequencies --    436.6040               506.5185               540.1795
 Red. masses --     15.4235                 7.0093                 7.2697
 Frc consts  --      1.7322                 1.0595                 1.2498
 IR Inten    --     44.8814                 6.2283                36.1390

                     16                     17                     18
                      A                      A                      A
 Frequencies --    565.9232               582.2229               646.7979
 Red. masses --     16.4869                16.6957                17.8303
 Frc consts  --      3.1110                 3.3345                 4.3949
 IR Inten    --     47.1242               123.7802                39.0040

                     19                     20                     21
                      A                      A                      A
 Frequencies --    679.9035               774.6920               828.0381
 Red. masses --     15.9976                16.3125                14.8334
 Frc consts  --      4.3571                 5.7680                 5.9923
 IR Inten    --     35.5227                42.1259               218.8487

                     22                     23                     24
                      A                      A                      A
 Frequencies --    981.6322              1098.3134              1163.9718
 Red. masses --     12.5373                 9.9538                 1.7796
 Frc consts  --      7.1179                 7.0745                 1.4205
 IR Inten    --     34.8461               173.2000               271.5290

                     25                     26                     27
                      A                      A                      A
 Frequencies --   1180.1515              1321.2427              1384.9637
 Red. masses --      3.2168                13.4498                13.0554
 Frc consts  --      2.6397                13.8334                14.7542
 IR Inten    --     16.7657               298.7641               208.7489

                     28                     29                     30
                      A                      A                      A
 Frequencies --   1422.5661              1494.1515              3846.4060
 Red. masses --     15.1774                13.1897                 1.0658
 Frc consts  --     18.0964                17.3490                 9.2908
 IR Inten    --    395.1785               234.2295               113.0724

 - Thermochemistry -
 -------------------
 Temperature   298.150 Kelvin.  Pressure   1.00000 Atm.
 Atom     1 has atomic number  6 and mass  12.00000

 Molecular mass:   199.95666 amu.
 Principal axes and moments of inertia in atomic units:
                           1         2         3
     Eigenvalues --  1234.744471876.752351976.35067
           X            0.75270  -0.42945   0.49902
           Y            0.42039   0.89683   0.13772
           Z           -0.50668   0.10612   0.85558
 This molecule is an asymmetric top.
 Rotational symmetry number  1.
 Warning -- assumption of classical behavior for rotation
           may cause significant error
 Rotational temperatures (Kelvin)      0.07015     0.04615     0.04383
 Rotational constants (GHZ):           1.46163     0.96163     0.91317
    1 imaginary frequencies ignored.
 Zero-point vibrational energy     133962.0 (Joules/Mol)
                                   32.01768 (Kcal/Mol)
 Warning -- explicit consideration of  16 degrees of freedom as
           vibrations may cause significant error
 Vibrational temperatures:    145.39   194.41   272.81   293.50   366.04
          (Kelvin)            401.57   429.03   447.23   531.69   554.37
                              597.43   628.18   728.77   777.20   814.24
                              837.69   930.60   978.23  1114.61  1191.36
                             1412.35  1580.23  1674.70  1697.97  1900.97
                             1992.65  2046.76  2149.75  5534.12

 Zero-point correction=                           0.051023 (Hartree/Particle)
 Thermal correction to Energy=                    0.060692
 Thermal correction to Enthalpy=                  0.061636
 Thermal correction to Gibbs Free Energy=         0.016098
 Sum of electronic and zero-point Energies=          -1199.710491
 Sum of electronic and thermal Energies=             -1199.700823
 Sum of electronic and thermal Enthalpies=           -1199.699879
 Sum of electronic and thermal Free Energies=        -1199.745417

                     E (Thermal)             CV                S
                      KCal/Mol        Cal/Mol-Kelvin    Cal/Mol-Kelvin
 Total                   38.085             35.402             95.843
 Electronic               0.000              0.000              0.000
 Translational            0.889              2.981             41.783
 Rotational               0.889              2.981             29.905
 Vibrational             36.307             29.440             24.154
 Vibration     1          0.604              1.948              3.434
 Vibration     2          0.613              1.918              2.872
 Vibration     3          0.633              1.854              2.232
 Vibration     4          0.640              1.834              2.097
 Vibration     5          0.665              1.755              1.700
 Vibration     6          0.679              1.712              1.539
 Vibration     7          0.691              1.677              1.427
 Vibration     8          0.700              1.653              1.358
 Vibration     9          0.742              1.535              1.082
 Vibration    10          0.754              1.502              1.018
 Vibration    11          0.779              1.437              0.908
 Vibration    12          0.797              1.390              0.837
 Vibration    13          0.862              1.236              0.642
 Vibration    14          0.895              1.161              0.565
 Vibration    15          0.922              1.105              0.512
 Vibration    16          0.939              1.070              0.481

 Normal termination of Gaussian 16 at Sat May 24 06:33:59 2025.
