 Gaussian 16, Revision C.01,
 Gaussian 16:  ES64L-G16RevC.01  3-Jul-2019

 ----------------------------------------------------------------------
 #P M062X/Def2TZVPP Symm(None) scf(xqc) pop(None) opt(NoFreeze,TS,CalcA
 ll,NoEigentest,MaxCycle=999)
 ----------------------------------------------------------------------

 ------------------------------
 Gaussian input prepared by ASE
 ------------------------------
 Symbolic Z-matrix:
 Charge =  0 Multiplicity = 1

 SCF Done:  E(RM062X) =  -1199.72669884     A.U. after   23 cycles
 SCF Done:  E(RM062X) =  -1199.73452439     A.U. after   20 cycles
 SCF Done:  E(RM062X) =  -1199.73579537     A.U. after   18 cycles
 SCF Done:  E(RM062X) =  -1199.73617792     A.U. after   18 cycles
 SCF Done:  E(RM062X) =  -1199.73622238     A.U. after   16 cycles
 SCF Done:  E(RM062X) =  -1199.73622301     A.U. after   11 cycles
 SCF Done:  E(RM062X) =  -1199.73622302     A.U. after    9 cycles

 Isotropic polarizability for W=    0.000000       66.88 Bohr**3.
 End of Minotr F.D. properties file   721 does not exist.

 Optimization completed.
    -- Stationary point found.

                          Input orientation:
 ---------------------------------------------------------------------
 Center     Atomic      Atomic             Coordinates (Angstroms)
 Number     Number       Type             X           Y           Z
 ---------------------------------------------------------------------
      1          6           0       -0.748609    0.649283   -1.119864
      2          6           0       -0.065858    0.029152    0.108091
      3          9           0       -0.478722    0.714030    1.198394
      4          9           0       -0.466995   -1.235996    0.199823
      5         16           0        1.994439    0.231884   -0.141034
      6          8           0        2.019311   -0.735167    1.031184
      7          8           0        3.476413   -0.139042    0.132114
      8          8           0        1.969852    1.707764    0.460791
      9          9           0       -0.387788    1.923402   -1.249262
     10          9           0       -0.387860   -0.009617   -2.213373
     11          9           0       -2.069139    0.595468   -1.005462
     12          1           0        1.218960    1.855908    1.053792
 ---------------------------------------------------------------------

 ******    1 imaginary frequencies (negative Signs) ******

                      1                      2                      3
                      A                      A                      A
 Frequencies --   -916.3317                42.0587                69.9457
 Red. masses --     18.1251                15.1996                16.6459
 Frc consts  --      8.9668                 0.0158                 0.0480
 IR Inten    --    522.3167                 1.4411                 1.5902

                      4                      5                      6
                      A                      A                      A
 Frequencies --    113.3573               119.8435               173.0788
 Red. masses --      2.4847                 3.1050                 7.2676
 Frc consts  --      0.0188                 0.0263                 0.1283
 IR Inten    --     37.0873                35.0945                13.5350

                      7                      8                      9
                      A                      A                      A
 Frequencies --    201.2099               230.0780               237.0619
 Red. masses --     14.6600                 6.7900                15.9795
 Frc consts  --      0.3497                 0.2118                 0.5291
 IR Inten    --      5.5518                19.2875                 0.6344

                     10                     11                     12
                      A                      A                      A
 Frequencies --    286.3445               312.7864               371.7453
 Red. masses --     18.0558                14.1878                17.2870
 Frc consts  --      0.8723                 0.8178                 1.4075
 IR Inten    --      5.9630                 3.5983                 0.5077

                     13                     14                     15
                      A                      A                      A
 Frequencies --    399.8399               457.6026               470.3516
 Red. masses --      6.3978                10.9592                 8.7744
 Frc consts  --      0.6026                 1.3521                 1.1437
 IR Inten    --     19.6934                 2.2484                 5.2124

                     16                     17                     18
                      A                      A                      A
 Frequencies --    539.6590               602.9604               619.7618
 Red. masses --     17.8816                17.6683                17.0518
 Frc consts  --      3.0683                 3.7846                 3.8589
 IR Inten    --      4.2651                 2.4938                11.7952

                     19                     20                     21
                      A                      A                      A
 Frequencies --    754.8653               836.7363               869.1336
 Red. masses --     16.3460                16.6568                17.2303
 Frc consts  --      5.4878                 6.8710                 7.6686
 IR Inten    --     52.3934                64.4602               130.8623

                     22                     23                     24
                      A                      A                      A
 Frequencies --    939.1466              1106.6679              1129.7966
 Red. masses --     13.5828                 7.7766                 4.3644
 Frc consts  --      7.0584                 5.6114                 3.2823
 IR Inten    --    126.4848                53.6088               139.8548

                     25                     26                     27
                      A                      A                      A
 Frequencies --   1170.8183              1246.1969              1271.8763
 Red. masses --      1.6334                 8.0002                13.0659
 Frc consts  --      1.3193                 7.3202                12.4531
 IR Inten    --    148.1889                57.3857               210.1092

                     28                     29                     30
                      A                      A                      A
 Frequencies --   1283.6184              1362.9215              3782.6913
 Red. masses --     12.7812                12.6287                 1.0659
 Frc consts  --     12.4077                13.8214                 8.9863
 IR Inten    --    290.5297               323.7776               128.2269

 - Thermochemistry -
 -------------------
 Temperature   298.150 Kelvin.  Pressure   1.00000 Atm.
 Atom     1 has atomic number  6 and mass  12.00000

 Molecular mass:   199.95666 amu.
 Principal axes and moments of inertia in atomic units:
                           1         2         3
     Eigenvalues --  1064.178482436.807272592.39075
           X            0.92665   0.31228  -0.20929
           Y           -0.11358   0.76327   0.63602
           Z            0.35836  -0.56559   0.74275
 This molecule is an asymmetric top.
 Rotational symmetry number  1.
 Warning -- assumption of classical behavior for rotation
           may cause significant error
 Rotational temperatures (Kelvin)      0.08139     0.03554     0.03341
 Rotational constants (GHZ):           1.69590     0.74062     0.69617
    1 imaginary frequencies ignored.
 Zero-point vibrational energy     125620.8 (Joules/Mol)
                                   30.02409 (Kcal/Mol)
 Warning -- explicit consideration of  17 degrees of freedom as
           vibrations may cause significant error
 Vibrational temperatures:     60.51   100.64   163.10   172.43   249.02
          (Kelvin)            289.50   331.03   341.08   411.99   450.03
                              534.86   575.28   658.39   676.73   776.45
                              867.53   891.70  1086.08  1203.88  1250.49
                             1351.22  1592.25  1625.53  1684.55  1793.00
                             1829.95  1846.84  1960.94  5442.45

 Zero-point correction=                           0.047846 (Hartree/Particle)
 Thermal correction to Energy=                    0.058792
 Thermal correction to Enthalpy=                  0.059737
 Thermal correction to Gibbs Free Energy=         0.009979
 Sum of electronic and zero-point Energies=          -1199.688377
 Sum of electronic and thermal Energies=             -1199.677431
 Sum of electronic and thermal Enthalpies=           -1199.676487
 Sum of electronic and thermal Free Energies=        -1199.726244

                     E (Thermal)             CV                S
                      KCal/Mol        Cal/Mol-Kelvin    Cal/Mol-Kelvin
 Total                   36.893             36.943            104.723
 Electronic               0.000              0.000              0.000
 Translational            0.889              2.981             41.783
 Rotational               0.889              2.981             30.287
 Vibrational             35.115             30.982             32.653
 Vibration     1          0.595              1.980              5.160
 Vibration     2          0.598              1.968              4.155
 Vibration     3          0.607              1.938              3.211
 Vibration     4          0.609              1.933              3.103
 Vibration     5          0.627              1.876              2.402
 Vibration     6          0.638              1.838              2.122
 Vibration     7          0.652              1.795              1.878
 Vibration     8          0.656              1.784              1.825
 Vibration     9          0.684              1.699              1.495
 Vibration    10          0.701              1.649              1.348
 Vibration    11          0.743              1.530              1.073
 Vibration    12          0.766              1.470              0.963
 Vibration    13          0.816              1.344              0.773
 Vibration    14          0.827              1.316              0.737
 Vibration    15          0.895              1.162              0.566
 Vibration    16          0.961              1.026              0.445
 Vibration    17          0.980              0.990              0.417

 Normal termination of Gaussian 16 at Sat May 24 07:00:58 2025.
