 Gaussian 16, Revision C.01,
 Gaussian 16:  ES64L-G16RevC.01  3-Jul-2019

 ----------------------------------------------------------------------
 #P M062X/Def2TZVPP Symm(None) scf(xqc) pop(None) freq opt(CalcFC, Tigh
 t)
 ----------------------------------------------------------------------

 ------------------------------
 Gaussian input prepared by ASE
 ------------------------------
 Symbolic Z-matrix:
 Charge =  0 Multiplicity = 1

 SCF Done:  E(RM062X) =  -1199.70546475     A.U. after   14 cycles
 SCF Done:  E(RM062X) =  -1199.71612809     A.U. after   14 cycles
 SCF Done:  E(RM062X) =  -1199.71804822     A.U. after   14 cycles
 SCF Done:  E(RM062X) =  -1199.71922607     A.U. after   13 cycles
 SCF Done:  E(RM062X) =  -1199.71937211     A.U. after   12 cycles
 SCF Done:  E(RM062X) =  -1199.71940709     A.U. after   12 cycles
 SCF Done:  E(RM062X) =  -1199.71942670     A.U. after   10 cycles
 SCF Done:  E(RM062X) =  -1199.71942932     A.U. after    9 cycles
 SCF Done:  E(RM062X) =  -1199.71942943     A.U. after    7 cycles
 SCF Done:  E(RM062X) =  -1199.71942945     A.U. after    6 cycles
 SCF Done:  E(RM062X) =  -1199.71942945     A.U. after    5 cycles
 SCF Done:  E(RM062X) =  -1199.71942946     A.U. after    4 cycles
 SCF Done:  E(RM062X) =  -1199.71942946     A.U. after    3 cycles
 SCF Done:  E(RM062X) =  -1199.71942946     A.U. after    3 cycles
 Optimization completed.
    -- Stationary point found.
 Normal termination of Gaussian 16 at Sat May 24 08:23:18 2025.

 ---------------------------------------------------------------------
 #P Geom=AllCheck Guess=TCheck SCRF=Check GenChk RM062X/def2TZVPP Freq
 ---------------------------------------------------------------------

 Structure from the checkpoint file:  "/tmp/Gau-52323.chk"
 ------------------------------
 Gaussian input prepared by ASE
 ------------------------------
 Charge =  0 Multiplicity = 1

                          Input orientation:
 ---------------------------------------------------------------------
 Center     Atomic      Atomic             Coordinates (Angstroms)
 Number     Number       Type             X           Y           Z
 ---------------------------------------------------------------------
      1          6           0        2.446833    0.089475   -2.576997
      2          6           0        2.406198   -0.615196   -1.261680
      3          9           0       -0.363533    0.967688    0.926162
      4          9           0        2.678788   -1.926707   -1.311799
      5         16           0        1.771161   -0.061820    0.100258
      6          8           0        0.165169    0.194033   -0.154799
      7          8           0        1.919308   -0.845520    1.266095
      8          8           0        2.195680    1.424335    0.243766
      9          9           0        1.957546    1.326152   -2.487071
     10          9           0        3.693548    0.170638   -3.043877
     11          9           0        1.736241   -0.572058   -3.492617
     12          1           0        1.466272    1.971859    0.585207
 ---------------------------------------------------------------------

 SCF Done:  E(RM062X) =  -1199.71942946     A.U. after    1 cycles

 Isotropic polarizability for W=    0.000000       62.65 Bohr**3.
 End of Minotr F.D. properties file   721 does not exist.

                      1                      2                      3
                      A                      A                      A
 Frequencies --     31.0831                57.1543               131.0377
 Red. masses --     17.6953                15.4771                13.4129
 Frc consts  --      0.0101                 0.0298                 0.1357
 IR Inten    --      0.1285                 1.0596                 1.4657

                      4                      5                      6
                      A                      A                      A
 Frequencies --    135.4789               180.3679               196.7594
 Red. masses --     14.2463                11.3285                13.2556
 Frc consts  --      0.1541                 0.2171                 0.3024
 IR Inten    --      1.5835                 4.3212                 1.1755

                      7                      8                      9
                      A                      A                      A
 Frequencies --    247.8340               291.8588               319.1025
 Red. masses --     14.9167                 9.5239                 5.8011
 Frc consts  --      0.5398                 0.4780                 0.3480
 IR Inten    --      1.2510                 7.9172                15.4885

                     10                     11                     12
                      A                      A                      A
 Frequencies --    340.6547               367.0209               441.2980
 Red. masses --     13.0792                 1.4824                15.7504
 Frc consts  --      0.8943                 0.1177                 1.8072
 IR Inten    --      1.8613                57.8431                 2.6177

                     13                     14                     15
                      A                      A                      A
 Frequencies --    454.3588               479.2379               497.2271
 Red. masses --     12.8731                 6.4364                17.6148
 Frc consts  --      1.5658                 0.8710                 2.5659
 IR Inten    --     13.5454                46.8629                18.0282

                     16                     17                     18
                      A                      A                      A
 Frequencies --    598.6691               599.6850               629.2538
 Red. masses --     16.2603                15.7895                11.0930
 Frc consts  --      3.4336                 3.3455                 2.5879
 IR Inten    --      8.3391                 3.8539               117.1187

                     19                     20                     21
                      A                      A                      A
 Frequencies --    705.3477               781.6762               868.4966
 Red. masses --     16.6434                15.6103                15.8625
 Frc consts  --      4.8786                 5.6197                 7.0495
 IR Inten    --     40.2875                 7.1085               154.4769

                     22                     23                     24
                      A                      A                      A
 Frequencies --    940.6491              1121.0766              1188.3162
 Red. masses --     17.3839                 4.8461                 1.4187
 Frc consts  --      9.0626                 3.5885                 1.1804
 IR Inten    --    202.6765               180.9132                88.1993

                     25                     26                     27
                      A                      A                      A
 Frequencies --   1219.4114              1253.3919              1345.1943
 Red. masses --     13.1700                13.1069                13.9757
 Frc consts  --     11.5381                12.1318                14.9002
 IR Inten    --    291.7470               302.5776                22.0959

                     28                     29                     30
                      A                      A                      A
 Frequencies --   1387.5770              1448.1088              3712.6707
 Red. masses --     12.2589                16.6211                 1.0644
 Frc consts  --     13.9064                20.5359                 8.6445
 IR Inten    --    427.9449               203.7147               147.9767

 - Thermochemistry -
 -------------------
 Temperature   298.150 Kelvin.  Pressure   1.00000 Atm.
 Atom     1 has atomic number  6 and mass  12.00000

 Molecular mass:   199.95666 amu.
 Principal axes and moments of inertia in atomic units:
                           1         2         3
     Eigenvalues --  1099.187732534.435522868.34494
           X           -0.45587  -0.42374   0.78271
           Y            0.13418   0.83663   0.53108
           Z            0.87987  -0.34712   0.32454
 This molecule is an asymmetric top.
 Rotational symmetry number  1.
 Warning -- assumption of classical behavior for rotation
           may cause significant error
 Rotational temperatures (Kelvin)      0.07880     0.03417     0.03020
 Rotational constants (GHZ):           1.64189     0.71209     0.62919
 Zero-point vibrational energy     131409.8 (Joules/Mol)
                                   31.40769 (Kcal/Mol)
 Warning -- explicit consideration of  17 degrees of freedom as
           vibrations may cause significant error
 Vibrational temperatures:     44.72    82.23   188.53   194.92   259.51
          (Kelvin)            283.09   356.58   419.92   459.12   490.13
                              528.06   634.93   653.72   689.52   715.40
                              861.35   862.81   905.36  1014.84  1124.66
                             1249.57  1353.38  1612.98  1709.72  1754.46
                             1803.35  1935.43  1996.41  2083.51  5341.71

 Zero-point correction=                           0.050051 (Hartree/Particle)
 Thermal correction to Energy=                    0.060971
 Thermal correction to Enthalpy=                  0.061915
 Thermal correction to Gibbs Free Energy=         0.012037
 Sum of electronic and zero-point Energies=          -1199.669378
 Sum of electronic and thermal Energies=             -1199.658458
 Sum of electronic and thermal Enthalpies=           -1199.657514
 Sum of electronic and thermal Free Energies=        -1199.707393

                     E (Thermal)             CV                S
                      KCal/Mol        Cal/Mol-Kelvin    Cal/Mol-Kelvin
 Total                   38.260             37.678            104.979
 Electronic               0.000              0.000              0.000
 Translational            0.889              2.981             41.783
 Rotational               0.889              2.981             30.459
 Vibrational             36.483             31.716             32.737
 Vibration     1          0.594              1.983              5.759
 Vibration     2          0.596              1.975              4.553
 Vibration     3          0.612              1.922              2.931
 Vibration     4          0.613              1.918              2.867
 Vibration     5          0.629              1.866              2.325
 Vibration     6          0.636              1.844              2.163
 Vibration     7          0.661              1.766              1.746
 Vibration     8          0.687              1.689              1.463
 Vibration     9          0.705              1.637              1.315
 Vibration    10          0.720              1.594              1.209
 Vibration    11          0.740              1.540              1.092
 Vibration    12          0.801              1.380              0.823
 Vibration    13          0.813              1.351              0.783
 Vibration    14          0.836              1.296              0.712
 Vibration    15          0.853              1.256              0.665
 Vibration    16          0.957              1.035              0.452
 Vibration    17          0.958              1.032              0.450

                           ! Non-Optimized Parameters !
 Normal termination of Gaussian 16 at Sat May 24 08:27:47 2025.
