 Gaussian 16, Revision C.01,
 Gaussian 16:  ES64L-G16RevC.01  3-Jul-2019

 ----------------------------------------------------------------------
 #P M062X/Def2TZVPP Symm(None) scf(xqc) pop(None) opt(NoFreeze,TS,CalcA
 ll,NoEigentest,MaxCycle=999)
 ----------------------------------------------------------------------

 ------------------------------
 Gaussian input prepared by ASE
 ------------------------------
 Symbolic Z-matrix:
 Charge =  0 Multiplicity = 1

 SCF Done:  E(RM062X) =  -1199.72926267     A.U. after   22 cycles
 SCF Done:  E(RM062X) =  -1199.73768825     A.U. after   18 cycles
 SCF Done:  E(RM062X) =  -1199.73970276     A.U. after   18 cycles
 SCF Done:  E(RM062X) =  -1199.74021937     A.U. after   18 cycles
 SCF Done:  E(RM062X) =  -1199.74023434     A.U. after   14 cycles

 Isotropic polarizability for W=    0.000000       66.65 Bohr**3.
 End of Minotr F.D. properties file   721 does not exist.

 Optimization completed.
    -- Stationary point found.

                          Input orientation:
 ---------------------------------------------------------------------
 Center     Atomic      Atomic             Coordinates (Angstroms)
 Number     Number       Type             X           Y           Z
 ---------------------------------------------------------------------
      1          6           0       -0.738655   -1.245945   -0.016923
      2          6           0       -0.067701    0.132037    0.052525
      3          9           0       -0.453693    0.843276   -1.017466
      4          9           0       -0.457746    0.772803    1.150582
      5         16           0        1.965234    0.061944   -0.188929
      6          8           0        1.937542   -0.815070    1.053101
      7          8           0        3.440745   -0.350180    0.170876
      8          8           0        1.991749    1.594707    0.262221
      9          9           0       -0.165685   -1.964413   -0.982622
     10          9           0       -0.615043   -1.892842    1.130069
     11          9           0       -2.031775   -1.124830   -0.294871
     12          1           0        2.852373    1.791900    0.656918
 ---------------------------------------------------------------------

 ******    1 imaginary frequencies (negative Signs) ******

                      1                      2                      3
                      A                      A                      A
 Frequencies --   -941.5134                55.0907                72.4676
 Red. masses --     17.9868                17.3662                12.1001
 Frc consts  --      9.3941                 0.0311                 0.0374
 IR Inten    --    545.2082                 0.0917                 0.8502

                      4                      5                      6
                      A                      A                      A
 Frequencies --    111.7676               158.4844               187.9892
 Red. masses --     15.6022                 6.1295                 7.5148
 Frc consts  --      0.1148                 0.0907                 0.1565
 IR Inten    --      0.0051                 5.7053                11.7765

                      7                      8                      9
                      A                      A                      A
 Frequencies --    228.2406               248.6688               270.6969
 Red. masses --     18.4823                11.5831                 2.2534
 Frc consts  --      0.5673                 0.4220                 0.0973
 IR Inten    --      2.0594                 4.7174                53.5536

                     10                     11                     12
                      A                      A                      A
 Frequencies --    285.3410               311.0635               375.2544
 Red. masses --      4.6313                 5.1248                16.4142
 Frc consts  --      0.2222                 0.2922                 1.3618
 IR Inten    --     18.3007                13.4406                 4.3733

                     13                     14                     15
                      A                      A                      A
 Frequencies --    393.6023               441.5227               468.1984
 Red. masses --     15.0328                11.6674                 8.2321
 Frc consts  --      1.3722                 1.3401                 1.0632
 IR Inten    --     12.0358                13.8128                25.1537

                     16                     17                     18
                      A                      A                      A
 Frequencies --    543.4684               600.9364               641.2193
 Red. masses --     17.4965                17.8245                16.6769
 Frc consts  --      3.0447                 3.7925                 4.0400
 IR Inten    --      5.7186                 1.7971                13.9267

                     19                     20                     21
                      A                      A                      A
 Frequencies --    754.9442               809.0822               865.8257
 Red. masses --     16.1594                16.9417                16.3169
 Frc consts  --      5.4263                 6.5342                 7.2069
 IR Inten    --     59.9662                65.1506               186.4212

                     22                     23                     24
                      A                      A                      A
 Frequencies --    932.5688              1097.9560              1159.2820
 Red. masses --     13.5850                 6.4371                 1.9520
 Frc consts  --      6.9610                 4.5720                 1.5456
 IR Inten    --    108.7254                32.4561               243.0041

                     25                     26                     27
                      A                      A                      A
 Frequencies --   1172.2282              1240.9887              1259.6383
 Red. masses --      3.1697                13.1434                13.0831
 Frc consts  --      2.5662                11.9259                12.2307
 IR Inten    --     38.1396               148.3517               193.5685

                     28                     29                     30
                      A                      A                      A
 Frequencies --   1289.3280              1387.0004              3815.1684
 Red. masses --     13.1451                12.3662                 1.0655
 Frc consts  --     12.8748                14.0165                 9.1376
 IR Inten    --    259.5291               240.2143               175.5285

 - Thermochemistry -
 -------------------
 Temperature   298.150 Kelvin.  Pressure   1.00000 Atm.
 Atom     1 has atomic number  6 and mass  12.00000

 Molecular mass:   199.95666 amu.
 Principal axes and moments of inertia in atomic units:
                           1         2         3
     Eigenvalues --  1079.853612309.116262637.04974
           X            0.92694  -0.36134  -0.10104
           Y            0.36895   0.92679   0.07029
           Z            0.06825  -0.10243   0.99240
 This molecule is an asymmetric top.
 Rotational symmetry number  1.
 Warning -- assumption of classical behavior for rotation
           may cause significant error
 Rotational temperatures (Kelvin)      0.08021     0.03751     0.03285
 Rotational constants (GHZ):           1.67128     0.78157     0.68438
    1 imaginary frequencies ignored.
 Zero-point vibrational energy     126672.7 (Joules/Mol)
                                   30.27550 (Kcal/Mol)
 Warning -- explicit consideration of  16 degrees of freedom as
           vibrations may cause significant error
 Vibrational temperatures:     79.26   104.26   160.81   228.02   270.47
          (Kelvin)            328.39   357.78   389.47   410.54   447.55
                              539.91   566.31   635.25   673.63   781.93
                              864.61   922.57  1086.20  1164.09  1245.73
                             1341.76  1579.71  1667.95  1686.57  1785.51
                             1812.34  1855.06  1995.58  5489.18

 Zero-point correction=                           0.048247 (Hartree/Particle)
 Thermal correction to Energy=                    0.058972
 Thermal correction to Enthalpy=                  0.059917
 Thermal correction to Gibbs Free Energy=         0.011027
 Sum of electronic and zero-point Energies=          -1199.691987
 Sum of electronic and thermal Energies=             -1199.681262
 Sum of electronic and thermal Enthalpies=           -1199.680318
 Sum of electronic and thermal Free Energies=        -1199.729207

                     E (Thermal)             CV                S
                      KCal/Mol        Cal/Mol-Kelvin    Cal/Mol-Kelvin
 Total                   37.006             36.794            102.897
 Electronic               0.000              0.000              0.000
 Translational            0.889              2.981             41.783
 Rotational               0.889              2.981             30.265
 Vibrational             35.228             30.832             30.849
 Vibration     1          0.596              1.976              4.626
 Vibration     2          0.599              1.967              4.085
 Vibration     3          0.607              1.940              3.238
 Vibration     4          0.621              1.893              2.568
 Vibration     5          0.633              1.856              2.248
 Vibration     6          0.651              1.798              1.893
 Vibration     7          0.662              1.765              1.740
 Vibration     8          0.674              1.727              1.592
 Vibration     9          0.683              1.701              1.501
 Vibration    10          0.700              1.653              1.357
 Vibration    11          0.746              1.523              1.058
 Vibration    12          0.761              1.484              0.986
 Vibration    13          0.801              1.380              0.822
 Vibration    14          0.825              1.321              0.743
 Vibration    15          0.899              1.154              0.558
 Vibration    16          0.959              1.030              0.448

 Normal termination of Gaussian 16 at Sat May 24 06:51:22 2025.
