 Gaussian 16, Revision C.01,
 Gaussian 16:  ES64L-G16RevC.01  3-Jul-2019

 ----------------------------------------------------------------------
 #P M062X/Def2TZVPP Symm(None) scf(xqc) pop(None) opt(NoFreeze,TS,CalcA
 ll,NoEigentest,MaxCycle=999)
 ----------------------------------------------------------------------

 ------------------------------
 Gaussian input prepared by ASE
 ------------------------------
 Symbolic Z-matrix:
 Charge =  0 Multiplicity = 1

 SCF Done:  E(RM062X) =  -1199.78217582     A.U. after   15 cycles
 SCF Done:  E(RM062X) =  -1199.78890967     A.U. after   13 cycles
 SCF Done:  E(RM062X) =  -1199.79128320     A.U. after   14 cycles
 SCF Done:  E(RM062X) =  -1199.79193526     A.U. after   12 cycles
 SCF Done:  E(RM062X) =  -1199.79196723     A.U. after   10 cycles

 Isotropic polarizability for W=    0.000000       58.52 Bohr**3.
 End of Minotr F.D. properties file   721 does not exist.

 Optimization completed.
    -- Stationary point found.

                          Input orientation:
 ---------------------------------------------------------------------
 Center     Atomic      Atomic             Coordinates (Angstroms)
 Number     Number       Type             X           Y           Z
 ---------------------------------------------------------------------
      1          6           0       -0.434271   -2.140617   -1.133428
      2          6           0        0.494185   -1.733738    0.024554
      3          9           0        0.144745    0.036004    0.001642
      4          9           0       -0.042586   -2.115339    1.129858
      5         16           0        1.895300   -0.102170    0.088328
      6          8           0        2.305561   -0.480217    1.385423
      7          8           0        2.445226   -0.414876   -1.181455
      8          8           0        1.952118    1.477585    0.166473
      9          9           0       -0.114405   -1.505854   -2.245549
     10          9           0       -0.262484   -3.448763   -1.310601
     11          9           0       -1.713981   -1.912924   -0.862231
     12          1           0        1.937740    1.842154   -0.728582
 ---------------------------------------------------------------------

 ******    1 imaginary frequencies (negative Signs) ******

                      1                      2                      3
                      A                      A                      A
 Frequencies --   -373.1602                50.3692                89.6216
 Red. masses --     14.9351                15.7307                13.1218
 Frc consts  --      1.2253                 0.0235                 0.0621
 IR Inten    --      4.8400                 0.5507                 0.3185

                      4                      5                      6
                      A                      A                      A
 Frequencies --     96.5704               155.8916               196.4060
 Red. masses --     14.5216                10.5034                15.6449
 Frc consts  --      0.0798                 0.1504                 0.3556
 IR Inten    --      2.9135                39.6710                11.9427

                      7                      8                      9
                      A                      A                      A
 Frequencies --    253.8428               287.5054               309.6932
 Red. masses --     13.8671                 8.9303                 2.9298
 Frc consts  --      0.5265                 0.4349                 0.1656
 IR Inten    --      3.4883                 6.6255                55.7124

                     10                     11                     12
                      A                      A                      A
 Frequencies --    358.6828               372.6792               399.2023
 Red. masses --      7.9438                 6.8583                 2.8243
 Frc consts  --      0.6021                 0.5612                 0.2652
 IR Inten    --     12.3341                65.4222                21.2076

                     13                     14                     15
                      A                      A                      A
 Frequencies --    453.1477               519.5186               522.8075
 Red. masses --     16.9618                11.3012                 6.1937
 Frc consts  --      2.0521                 1.7971                 0.9974
 IR Inten    --      3.9695                24.2888                 9.5128

                     16                     17                     18
                      A                      A                      A
 Frequencies --    549.0353               583.3850               601.7770
 Red. masses --     17.6125                17.0420                17.7116
 Frc consts  --      3.1280                 3.4173                 3.7790
 IR Inten    --    145.5935                26.1505               279.8187

                     19                     20                     21
                      A                      A                      A
 Frequencies --    690.5386               738.8318               870.2308
 Red. masses --     13.9539                15.8700                15.6674
 Frc consts  --      3.9203                 5.1041                 6.9906
 IR Inten    --     85.3949                31.6195               348.5912

                     22                     23                     24
                      A                      A                      A
 Frequencies --    932.9117              1193.6012              1204.2098
 Red. masses --     14.3077                 1.2880                 8.5723
 Frc consts  --      7.3367                 1.0811                 7.3240
 IR Inten    --     20.2720                71.8683               116.2660

                     25                     26                     27
                      A                      A                      A
 Frequencies --   1244.1117              1288.1763              1306.5178
 Red. masses --     13.3255                12.8663                13.3163
 Frc consts  --     12.1521                12.5792                13.3925
 IR Inten    --    297.8027               147.0476               285.8792

                     28                     29                     30
                      A                      A                      A
 Frequencies --   1394.8310              1501.4432              3825.7799
 Red. masses --     13.1794                13.6095                 1.0657
 Frc consts  --     15.1073                18.0763                 9.1901
 IR Inten    --    126.1520               285.4009               157.2067

 - Thermochemistry -
 -------------------
 Temperature   298.150 Kelvin.  Pressure   1.00000 Atm.
 Atom     1 has atomic number  6 and mass  12.00000

 Molecular mass:   199.95666 amu.
 Principal axes and moments of inertia in atomic units:
                           1         2         3
     Eigenvalues --   967.750282586.120542809.46327
           X            0.66748  -0.13715   0.73189
           Y            0.67029  -0.31744  -0.67078
           Z            0.32433   0.93831  -0.11996
 This molecule is an asymmetric top.
 Rotational symmetry number  1.
 Warning -- assumption of classical behavior for rotation
           may cause significant error
 Rotational temperatures (Kelvin)      0.08950     0.03349     0.03083
 Rotational constants (GHZ):           1.86488     0.69786     0.64238
    1 imaginary frequencies ignored.
 Zero-point vibrational energy     131537.3 (Joules/Mol)
                                   31.43817 (Kcal/Mol)
 Warning -- explicit consideration of  17 degrees of freedom as
           vibrations may cause significant error
 Vibrational temperatures:     72.47   128.95   138.94   224.29   282.58
          (Kelvin)            365.22   413.66   445.58   516.06   536.20
                              574.36   651.98   747.47   752.20   789.94
                              839.36   865.82   993.53  1063.01  1252.07
                             1342.25  1717.33  1732.59  1790.00  1853.40
                             1879.79  2006.85  2160.24  5504.44

 Zero-point correction=                           0.050100 (Hartree/Particle)
 Thermal correction to Energy=                    0.060389
 Thermal correction to Enthalpy=                  0.061333
 Thermal correction to Gibbs Free Energy=         0.013284
 Sum of electronic and zero-point Energies=          -1199.741867
 Sum of electronic and thermal Energies=             -1199.731578
 Sum of electronic and thermal Enthalpies=           -1199.730634
 Sum of electronic and thermal Free Energies=        -1199.778683

                     E (Thermal)             CV                S
                      KCal/Mol        Cal/Mol-Kelvin    Cal/Mol-Kelvin
 Total                   37.895             35.924            101.129
 Electronic               0.000              0.000              0.000
 Translational            0.889              2.981             41.783
 Rotational               0.889              2.981             30.331
 Vibrational             36.117             29.963             29.014
 Vibration     1          0.595              1.977              4.803
 Vibration     2          0.602              1.957              3.668
 Vibration     3          0.603              1.952              3.522
 Vibration     4          0.620              1.896              2.599
 Vibration     5          0.636              1.845              2.167
 Vibration     6          0.665              1.756              1.704
 Vibration     7          0.685              1.697              1.489
 Vibration     8          0.699              1.655              1.364
 Vibration     9          0.734              1.557              1.128
 Vibration    10          0.744              1.528              1.069
 Vibration    11          0.765              1.472              0.966
 Vibration    12          0.812              1.354              0.786
 Vibration    13          0.875              1.207              0.611
 Vibration    14          0.878              1.199              0.603
 Vibration    15          0.904              1.142              0.546
 Vibration    16          0.940              1.067              0.479
 Vibration    17          0.960              1.028              0.447

 Normal termination of Gaussian 16 at Sat May 24 05:57:40 2025.
