 Gaussian 16, Revision C.01,
 Gaussian 16:  ES64L-G16RevC.01  3-Jul-2019

 ----------------------------------------------------------------------
 #P M062X/Def2TZVPP Symm(None) scf(xqc) pop(None) opt(NoFreeze,TS,CalcA
 ll,NoEigentest,MaxCycle=999)
 ----------------------------------------------------------------------

 ------------------------------
 Gaussian input prepared by ASE
 ------------------------------
 Symbolic Z-matrix:
 Charge =  0 Multiplicity = 1

 SCF Done:  E(RM062X) =  -1199.79025589     A.U. after   15 cycles
 SCF Done:  E(RM062X) =  -1199.79178044     A.U. after   12 cycles
 SCF Done:  E(RM062X) =  -1199.79181180     A.U. after   10 cycles

 Isotropic polarizability for W=    0.000000       58.56 Bohr**3.
 End of Minotr F.D. properties file   721 does not exist.

 Optimization completed.
    -- Stationary point found.

                          Input orientation:
 ---------------------------------------------------------------------
 Center     Atomic      Atomic             Coordinates (Angstroms)
 Number     Number       Type             X           Y           Z
 ---------------------------------------------------------------------
      1          6           0       -0.465308   -2.200874   -1.116663
      2          6           0        0.488191   -1.740185    0.000025
      3          9           0        0.034005    0.005715   -0.001547
      4          9           0        0.022555   -2.152012    1.127818
      5         16           0        1.792586   -0.025276   -0.002497
      6          8           0        2.260600   -0.370367    1.293002
      7          8           0        2.324079   -0.313691   -1.276556
      8          8           0        1.757436    1.556657   -0.006201
      9          9           0       -0.225182   -1.558710   -2.242600
     10          9           0       -0.233522   -3.500331   -1.293299
     11          9           0       -1.742669   -2.038210   -0.791243
     12          1           0        1.633997    1.876595    0.897535
 ---------------------------------------------------------------------

 ******    1 imaginary frequencies (negative Signs) ******

                      1                      2                      3
                      A                      A                      A
 Frequencies --   -373.0541                51.9375                89.8503
 Red. masses --     14.8816                16.7655                11.6866
 Frc consts  --      1.2202                 0.0266                 0.0556
 IR Inten    --      5.1658                 0.3486                 0.7527

                      4                      5                      6
                      A                      A                      A
 Frequencies --     93.4077               157.7544               191.9451
 Red. masses --     11.9509                14.7359                13.8575
 Frc consts  --      0.0614                 0.2161                 0.3008
 IR Inten    --      1.7538                45.4387                 9.2127

                      7                      8                      9
                      A                      A                      A
 Frequencies --    251.8177               290.4390               316.6072
 Red. masses --     12.3579                16.2693                 2.0058
 Frc consts  --      0.4617                 0.8086                 0.1185
 IR Inten    --      4.1344                 3.0740                63.7105

                     10                     11                     12
                      A                      A                      A
 Frequencies --    348.1220               371.4245               402.2157
 Red. masses --     14.2230                 8.4104                 3.2209
 Frc consts  --      1.0156                 0.6836                 0.3070
 IR Inten    --     28.5652                42.3832                16.5110

                     13                     14                     15
                      A                      A                      A
 Frequencies --    453.4386               517.9210               525.1950
 Red. masses --     15.8465                 9.7591                 6.6443
 Frc consts  --      1.9196                 1.5424                 1.0798
 IR Inten    --      2.5650                25.2400                 6.6169

                     16                     17                     18
                      A                      A                      A
 Frequencies --    547.8291               583.8264               601.7275
 Red. masses --     16.8198                17.3178                17.7831
 Frc consts  --      2.9741                 3.4778                 3.7937
 IR Inten    --    153.2241                20.9125               285.2227

                     19                     20                     21
                      A                      A                      A
 Frequencies --    689.8096               738.7589               869.7661
 Red. masses --     13.8246                15.7991                15.7097
 Frc consts  --      3.8758                 5.0803                 7.0020
 IR Inten    --     84.6301                32.7651               350.1749

                     22                     23                     24
                      A                      A                      A
 Frequencies --    932.3323              1194.6234              1205.1961
 Red. masses --     14.3552                 1.3358                 6.8924
 Frc consts  --      7.3519                 1.1232                 5.8984
 IR Inten    --     19.8445                74.9051               122.0647

                     25                     26                     27
                      A                      A                      A
 Frequencies --   1242.1276              1286.3175              1312.5209
 Red. masses --     13.3249                12.8994                13.2740
 Frc consts  --     12.1128                12.5752                13.4730
 IR Inten    --    292.5084               149.2055               288.4299

                     28                     29                     30
                      A                      A                      A
 Frequencies --   1393.6204              1502.4535              3826.8581
 Red. masses --     13.1161                13.7241                 1.0657
 Frc consts  --     15.0087                18.2530                 9.1952
 IR Inten    --    115.9291               286.9935               160.1764

 - Thermochemistry -
 -------------------
 Temperature   298.150 Kelvin.  Pressure   1.00000 Atm.
 Atom     1 has atomic number  6 and mass  12.00000

 Molecular mass:   199.95666 amu.
 Principal axes and moments of inertia in atomic units:
                           1         2         3
     Eigenvalues --   967.026972591.017122810.53082
           X            0.63936  -0.09306   0.76326
           Y            0.70923  -0.31206  -0.63215
           Z            0.29701   0.94549  -0.13351
 This molecule is an asymmetric top.
 Rotational symmetry number  1.
 Warning -- assumption of classical behavior for rotation
           may cause significant error
 Rotational temperatures (Kelvin)      0.08957     0.03343     0.03082
 Rotational constants (GHZ):           1.86628     0.69654     0.64214
    1 imaginary frequencies ignored.
 Zero-point vibrational energy     131528.5 (Joules/Mol)
                                   31.43606 (Kcal/Mol)
 Warning -- explicit consideration of  17 degrees of freedom as
           vibrations may cause significant error
 Vibrational temperatures:     74.73   129.27   134.39   226.97   276.17
          (Kelvin)            362.31   417.88   455.53   500.87   534.40
                              578.70   652.40   745.17   755.64   788.20
                              840.00   865.75   992.48  1062.91  1251.40
                             1341.42  1718.80  1734.01  1787.14  1850.72
                             1888.42  2005.11  2161.70  5506.00

 Zero-point correction=                           0.050097 (Hartree/Particle)
 Thermal correction to Energy=                    0.060393
 Thermal correction to Enthalpy=                  0.061337
 Thermal correction to Gibbs Free Energy=         0.013277
 Sum of electronic and zero-point Energies=          -1199.741715
 Sum of electronic and thermal Energies=             -1199.731419
 Sum of electronic and thermal Enthalpies=           -1199.730475
 Sum of electronic and thermal Free Energies=        -1199.778535

                     E (Thermal)             CV                S
                      KCal/Mol        Cal/Mol-Kelvin    Cal/Mol-Kelvin
 Total                   37.897             35.933            101.151
 Electronic               0.000              0.000              0.000
 Translational            0.889              2.981             41.783
 Rotational               0.889              2.981             30.333
 Vibrational             36.120             29.971             29.035
 Vibration     1          0.596              1.977              4.742
 Vibration     2          0.602              1.956              3.663
 Vibration     3          0.602              1.954              3.587
 Vibration     4          0.621              1.894              2.577
 Vibration     5          0.634              1.851              2.209
 Vibration     6          0.664              1.760              1.718
 Vibration     7          0.686              1.692              1.471
 Vibration     8          0.703              1.642              1.328
 Vibration     9          0.726              1.579              1.175
 Vibration    10          0.743              1.531              1.074
 Vibration    11          0.768              1.465              0.955
 Vibration    12          0.812              1.353              0.785
 Vibration    13          0.873              1.210              0.615
 Vibration    14          0.880              1.194              0.598
 Vibration    15          0.903              1.144              0.549
 Vibration    16          0.941              1.066              0.478
 Vibration    17          0.960              1.028              0.447

 Normal termination of Gaussian 16 at Sat May 24 05:47:06 2025.
