 Gaussian 16, Revision C.01,
 Gaussian 16:  ES64L-G16RevC.01  3-Jul-2019

 ----------------------------------------------------------------------
 #P M062X/Def2TZVPP Symm(None) scf(xqc) pop(None) freq opt(CalcFC, Tigh
 t)
 ----------------------------------------------------------------------

 ------------------------------
 Gaussian input prepared by ASE
 ------------------------------
 Symbolic Z-matrix:
 Charge =  0 Multiplicity = 1

 SCF Done:  E(RM062X) =  -1199.91562370     A.U. after   13 cycles
 SCF Done:  E(RM062X) =  -1199.92160131     A.U. after   12 cycles
 SCF Done:  E(RM062X) =  -1199.92175340     A.U. after   12 cycles
 SCF Done:  E(RM062X) =  -1199.90283407     A.U. after   13 cycles
 SCF Done:  E(RM062X) =  -1199.92342283     A.U. after   12 cycles
 SCF Done:  E(RM062X) =  -1199.92386508     A.U. after   12 cycles
 SCF Done:  E(RM062X) =  -1199.92334225     A.U. after   11 cycles
 SCF Done:  E(RM062X) =  -1199.92409762     A.U. after   12 cycles
 SCF Done:  E(RM062X) =  -1199.92513797     A.U. after   11 cycles
 SCF Done:  E(RM062X) =  -1199.92541175     A.U. after   11 cycles
 SCF Done:  E(RM062X) =  -1199.92551803     A.U. after   11 cycles
 SCF Done:  E(RM062X) =  -1199.92554009     A.U. after   11 cycles
 SCF Done:  E(RM062X) =  -1199.92559075     A.U. after   11 cycles
 SCF Done:  E(RM062X) =  -1199.92559348     A.U. after    8 cycles
 SCF Done:  E(RM062X) =  -1199.92559344     A.U. after    7 cycles
 SCF Done:  E(RM062X) =  -1199.92559358     A.U. after    7 cycles
 SCF Done:  E(RM062X) =  -1199.92559359     A.U. after    6 cycles
 Optimization completed.
    -- Stationary point found.
 Normal termination of Gaussian 16 at Sat May 24 06:10:56 2025.

 ---------------------------------------------------------------------
 #P Geom=AllCheck Guess=TCheck SCRF=Check GenChk RM062X/def2TZVPP Freq
 ---------------------------------------------------------------------

 Structure from the checkpoint file:  "/tmp/Gau-100937.chk"
 ------------------------------
 Gaussian input prepared by ASE
 ------------------------------
 Charge =  0 Multiplicity = 1

                          Input orientation:
 ---------------------------------------------------------------------
 Center     Atomic      Atomic             Coordinates (Angstroms)
 Number     Number       Type             X           Y           Z
 ---------------------------------------------------------------------
      1          6           0        3.539047   -1.681663   -1.080510
      2          6           0        1.451375   -0.035300    0.113210
      3          9           0        0.121450    0.088341    0.056624
      4          9           0        1.756532   -0.847393    1.117391
      5         16           0        1.925426   -0.851518   -1.504730
      6          8           0        2.246428    0.237286   -2.378333
      7          8           0        0.999237   -1.876739   -1.837099
      8          8           0        2.081538    1.131515    0.265592
      9          9           0        3.330401   -2.752581   -0.345591
     10          9           0        4.109766   -2.024633   -2.218610
     11          9           0        4.315914   -0.834242   -0.428733
     12          1           0        2.155417    1.580334   -0.589601
 ---------------------------------------------------------------------

 SCF Done:  E(RM062X) =  -1199.92559359     A.U. after    1 cycles

 Isotropic polarizability for W=    0.000000       55.62 Bohr**3.
 End of Minotr F.D. properties file   721 does not exist.

                      1                      2                      3
                      A                      A                      A
 Frequencies --     49.6446                51.5231               109.8310
 Red. masses --     14.9745                17.9703                17.2561
 Frc consts  --      0.0217                 0.0281                 0.1226
 IR Inten    --      0.9094                 0.0926                 0.3281

                      4                      5                      6
                      A                      A                      A
 Frequencies --    187.7281               205.5287               227.5629
 Red. masses --     11.3166                11.3179                16.1890
 Frc consts  --      0.2350                 0.2817                 0.4939
 IR Inten    --      8.1913                 5.9739                 3.6145

                      7                      8                      9
                      A                      A                      A
 Frequencies --    274.3231               297.9214               304.5695
 Red. masses --     16.2947                11.4926                 5.1394
 Frc consts  --      0.7225                 0.6010                 0.2809
 IR Inten    --      0.5354                13.0510                20.7586

                     10                     11                     12
                      A                      A                      A
 Frequencies --    335.0174               388.9185               421.7712
 Red. masses --      7.2767                 2.0373                 4.3292
 Frc consts  --      0.4812                 0.1816                 0.4537
 IR Inten    --     18.9442                68.0002                26.2940

                     13                     14                     15
                      A                      A                      A
 Frequencies --    523.3222               532.5088               558.9954
 Red. masses --     11.4921                14.2223                14.1257
 Frc consts  --      1.8543                 2.3761                 2.6006
 IR Inten    --     27.4911                23.5144                 0.8245

                     16                     17                     18
                      A                      A                      A
 Frequencies --    584.3608               602.4754               640.5695
 Red. masses --     11.9769                16.6616                16.2764
 Frc consts  --      2.4097                 3.5632                 3.9350
 IR Inten    --      7.2745                33.6517               165.6030

                     19                     20                     21
                      A                      A                      A
 Frequencies --    779.1364               806.6286              1070.4500
 Red. masses --     14.2777                17.4733                 4.2292
 Frc consts  --      5.1066                 6.6984                 2.8552
 IR Inten    --      4.8037                 4.3611               141.7804

                     22                     23                     24
                      A                      A                      A
 Frequencies --   1157.8188              1200.8199              1256.6906
 Red. masses --      8.1895                 5.5790                 7.1097
 Frc consts  --      6.4683                 4.7399                 6.6155
 IR Inten    --    126.6610               408.0228                42.9106

                     25                     26                     27
                      A                      A                      A
 Frequencies --   1289.5195              1301.0215              1322.8314
 Red. masses --     12.6280                12.0824                 8.7365
 Frc consts  --     12.3720                12.0496                 9.0073
 IR Inten    --    145.4132               143.6208               404.4281

                     28                     29                     30
                      A                      A                      A
 Frequencies --   1398.7253              1463.0353              3784.9764
 Red. masses --      2.6452                10.4330                 1.0656
 Frc consts  --      3.0491                13.1574                 8.9941
 IR Inten    --    178.1372               264.4450               129.6272

 - Thermochemistry -
 -------------------
 Temperature   298.150 Kelvin.  Pressure   1.00000 Atm.
 Atom     1 has atomic number  6 and mass  12.00000

 Molecular mass:   199.95666 amu.
 Principal axes and moments of inertia in atomic units:
                           1         2         3
     Eigenvalues --  1190.988222084.843822277.17656
           X            0.73156   0.47012   0.49377
           Y           -0.55152  -0.01772   0.83398
           Z           -0.40082   0.88243  -0.24631
 This molecule is an asymmetric top.
 Rotational symmetry number  1.
 Warning -- assumption of classical behavior for rotation
           may cause significant error
 Rotational temperatures (Kelvin)      0.07272     0.04154     0.03804
 Rotational constants (GHZ):           1.51533     0.86565     0.79253
 Zero-point vibrational energy     138337.5 (Joules/Mol)
                                   33.06346 (Kcal/Mol)
 Warning -- explicit consideration of  17 degrees of freedom as
           vibrations may cause significant error
 Vibrational temperatures:     71.43    74.13   158.02   270.10   295.71
          (Kelvin)            327.41   394.69   428.64   438.21   482.02
                              559.57   606.83   752.94   766.16   804.27
                              840.76   866.83   921.64  1121.00  1160.56
                             1540.14  1665.84  1727.71  1808.10  1855.33
                             1871.88  1903.26  2012.45  2104.98  5445.74

 Zero-point correction=                           0.052690 (Hartree/Particle)
 Thermal correction to Energy=                    0.063179
 Thermal correction to Enthalpy=                  0.064123
 Thermal correction to Gibbs Free Energy=         0.015538
 Sum of electronic and zero-point Energies=          -1199.872904
 Sum of electronic and thermal Energies=             -1199.862415
 Sum of electronic and thermal Enthalpies=           -1199.861471
 Sum of electronic and thermal Free Energies=        -1199.910056

                     E (Thermal)             CV                S
                      KCal/Mol        Cal/Mol-Kelvin    Cal/Mol-Kelvin
 Total                   39.645             36.337            102.256
 Electronic               0.000              0.000              0.000
 Translational            0.889              2.981             41.783
 Rotational               0.889              2.981             30.115
 Vibrational             37.868             30.375             30.358
 Vibration     1          0.595              1.978              4.831
 Vibration     2          0.596              1.977              4.758
 Vibration     3          0.606              1.941              3.272
 Vibration     4          0.632              1.857              2.250
 Vibration     5          0.640              1.832              2.083
 Vibration     6          0.651              1.799              1.898
 Vibration     7          0.677              1.721              1.569
 Vibration     8          0.691              1.678              1.429
 Vibration     9          0.695              1.665              1.392
 Vibration    10          0.716              1.606              1.236
 Vibration    11          0.757              1.494              1.004
 Vibration    12          0.784              1.423              0.886
 Vibration    13          0.878              1.198              0.602
 Vibration    14          0.887              1.178              0.582
 Vibration    15          0.915              1.120              0.526
 Vibration    16          0.941              1.065              0.477
 Vibration    17          0.961              1.027              0.445

 Optimization completed.
    -- Stationary point found.
 Normal termination of Gaussian 16 at Sat May 24 06:15:39 2025.
