 Gaussian 16, Revision C.01,
 Gaussian 16:  ES64L-G16RevC.01  3-Jul-2019

 ----------------------------------------------------------------------
 #P M062X/Def2TZVPP Symm(None) scf(xqc) pop(None) opt(NoFreeze,TS,CalcA
 ll,NoEigentest,MaxCycle=999)
 ----------------------------------------------------------------------

 ------------------------------
 Gaussian input prepared by ASE
 ------------------------------
 Symbolic Z-matrix:
 Charge =  0 Multiplicity = 1

 SCF Done:  E(RM062X) =  -1199.74438099     A.U. after   16 cycles
 SCF Done:  E(RM062X) =  -1199.76167215     A.U. after   14 cycles
 SCF Done:  E(RM062X) =  -1199.76368826     A.U. after   13 cycles
 SCF Done:  E(RM062X) =  -1199.76407017     A.U. after   13 cycles
 SCF Done:  E(RM062X) =  -1199.76409626     A.U. after   11 cycles
 SCF Done:  E(RM062X) =  -1199.76409668     A.U. after    9 cycles

 Isotropic polarizability for W=    0.000000       59.15 Bohr**3.
 End of Minotr F.D. properties file   721 does not exist.

 Optimization completed.
    -- Stationary point found.

                          Input orientation:
 ---------------------------------------------------------------------
 Center     Atomic      Atomic             Coordinates (Angstroms)
 Number     Number       Type             X           Y           Z
 ---------------------------------------------------------------------
      1          6           0       -0.151192   -1.094480    1.074125
      2          6           0       -0.020291   -0.046283   -0.069296
      3          9           0       -0.629779   -0.433844   -1.167118
      4          9           0       -0.619588    1.056207    0.376308
      5         16           0        1.830327    0.027235   -0.055552
      6          8           0        1.997938   -0.434263    1.317956
      7          8           0        2.700447   -0.056060   -1.180919
      8          8           0        1.850485    1.629750    0.199469
      9          9           0        1.287720   -1.779170   -0.422012
     10          9           0       -0.297477   -0.682965    2.255109
     11          9           0       -0.577539   -2.259908    0.931300
     12          1           0        2.361511    2.030068   -0.513127
 ---------------------------------------------------------------------

 ******    1 imaginary frequencies (negative Signs) ******

                      1                      2                      3
                      A                      A                      A
 Frequencies --   -335.1065               109.4636               124.2936
 Red. masses --     15.8014                12.6297                15.1251
 Frc consts  --      1.0455                 0.0892                 0.1377
 IR Inten    --     19.8195                 5.1903               204.4718

                      4                      5                      6
                      A                      A                      A
 Frequencies --    176.6424               189.9606               253.0080
 Red. masses --     16.3223                13.0259                18.0589
 Frc consts  --      0.3001                 0.2769                 0.6811
 IR Inten    --      1.0013                 6.2267                 5.7628

                      7                      8                      9
                      A                      A                      A
 Frequencies --    283.6681               296.6339               301.7882
 Red. masses --     15.0361                15.8953                13.7753
 Frc consts  --      0.7129                 0.8241                 0.7392
 IR Inten    --     14.4247                 4.4498                28.1783

                     10                     11                     12
                      A                      A                      A
 Frequencies --    342.9889               374.0743               412.4935
 Red. masses --      2.4420                 2.1424                16.5998
 Frc consts  --      0.1693                 0.1766                 1.6641
 IR Inten    --     75.0394                29.1902                52.9462

                     13                     14                     15
                      A                      A                      A
 Frequencies --    442.3424               506.7577               535.5907
 Red. masses --     12.9268                 6.5937                 9.2034
 Frc consts  --      1.4903                 0.9976                 1.5555
 IR Inten    --     50.5959                 6.1484                 9.2849

                     16                     17                     18
                      A                      A                      A
 Frequencies --    560.8841               582.5149               640.8996
 Red. masses --     13.8273                17.4137                14.4478
 Frc consts  --      2.5629                 3.4814                 3.4965
 IR Inten    --     95.9010                56.9802                55.9589

                     19                     20                     21
                      A                      A                      A
 Frequencies --    675.1336               772.6273               795.3414
 Red. masses --     14.5166                16.3403                15.9717
 Frc consts  --      3.8985                 5.7471                 5.9526
 IR Inten    --     38.2292                34.1384               245.2844

                     22                     23                     24
                      A                      A                      A
 Frequencies --    961.4689              1124.5447              1162.1281
 Red. masses --     13.0498                11.2987                 1.3037
 Frc consts  --      7.1076                 8.4184                 1.0373
 IR Inten    --     14.9131               182.0119               162.9984

                     25                     26                     27
                      A                      A                      A
 Frequencies --   1211.8075              1310.3602              1402.5998
 Red. masses --     13.0886                12.7662                10.1590
 Frc consts  --     11.3243                12.9149                11.7753
 IR Inten    --     93.0536               153.2632               370.7197

                     28                     29                     30
                      A                      A                      A
 Frequencies --   1453.7516              1531.9351              3859.6155
 Red. masses --     13.2980                13.4244                 1.0658
 Frc consts  --     16.5583                18.5621                 9.3543
 IR Inten    --    228.1919               375.0341               160.8252

 - Thermochemistry -
 -------------------
 Temperature   298.150 Kelvin.  Pressure   1.00000 Atm.
 Atom     1 has atomic number  6 and mass  12.00000

 Molecular mass:   199.95666 amu.
 Principal axes and moments of inertia in atomic units:
                           1         2         3
     Eigenvalues --  1230.046571904.444612006.58272
           X            0.77454  -0.42434   0.46905
           Y            0.48044   0.87703   0.00009
           Z           -0.41141   0.22529   0.88317
 This molecule is an asymmetric top.
 Rotational symmetry number  1.
 Warning -- assumption of classical behavior for rotation
           may cause significant error
 Rotational temperatures (Kelvin)      0.07042     0.04548     0.04316
 Rotational constants (GHZ):           1.46721     0.94765     0.89941
    1 imaginary frequencies ignored.
 Zero-point vibrational energy     133953.8 (Joules/Mol)
                                   32.01571 (Kcal/Mol)
 Warning -- explicit consideration of  16 degrees of freedom as
           vibrations may cause significant error
 Vibrational temperatures:    157.49   178.83   254.15   273.31   364.02
          (Kelvin)            408.14   426.79   434.21   493.48   538.21
                              593.49   636.43   729.11   770.60   806.99
                              838.11   922.11   971.37  1111.64  1144.32
                             1383.34  1617.97  1672.04  1743.52  1885.32
                             2018.03  2091.62  2204.11  5553.13

 Zero-point correction=                           0.051020 (Hartree/Particle)
 Thermal correction to Energy=                    0.060800
 Thermal correction to Enthalpy=                  0.061744
 Thermal correction to Gibbs Free Energy=         0.015949
 Sum of electronic and zero-point Energies=          -1199.713076
 Sum of electronic and thermal Energies=             -1199.703297
 Sum of electronic and thermal Enthalpies=           -1199.702353
 Sum of electronic and thermal Free Energies=        -1199.748148

                     E (Thermal)             CV                S
                      KCal/Mol        Cal/Mol-Kelvin    Cal/Mol-Kelvin
 Total                   38.152             35.587             96.384
 Electronic               0.000              0.000              0.000
 Translational            0.889              2.981             41.783
 Rotational               0.889              2.981             29.931
 Vibrational             36.375             29.626             24.669
 Vibration     1          0.606              1.942              3.278
 Vibration     2          0.610              1.929              3.032
 Vibration     3          0.628              1.871              2.364
 Vibration     4          0.633              1.854              2.228
 Vibration     5          0.664              1.758              1.710
 Vibration     6          0.682              1.704              1.511
 Vibration     7          0.690              1.680              1.436
 Vibration     8          0.694              1.670              1.407
 Vibration     9          0.722              1.590              1.198
 Vibration    10          0.745              1.525              1.063
 Vibration    11          0.776              1.443              0.918
 Vibration    12          0.802              1.378              0.819
 Vibration    13          0.862              1.235              0.641
 Vibration    14          0.891              1.171              0.575
 Vibration    15          0.917              1.116              0.522
 Vibration    16          0.939              1.069              0.481

 Normal termination of Gaussian 16 at Sat May 24 06:38:10 2025.
