 Gaussian 16, Revision C.01,
 Gaussian 16:  ES64L-G16RevC.01  3-Jul-2019

 ----------------------------------------------------------------------
 #P M062X/Def2TZVPP Symm(None) scf(xqc) pop(None) opt(NoFreeze,TS,CalcA
 ll,NoEigentest,MaxCycle=999)
 ----------------------------------------------------------------------

 ------------------------------
 Gaussian input prepared by ASE
 ------------------------------
 Symbolic Z-matrix:
 Charge =  0 Multiplicity = 1

 SCF Done:  E(RM062X) =  -1199.65101354     A.U. after   18 cycles
 SCF Done:  E(RM062X) =  -1199.68837227     A.U. after   15 cycles
 SCF Done:  E(RM062X) =  -1199.71744387     A.U. after   14 cycles
 SCF Done:  E(RM062X) =  -1199.73852138     A.U. after   14 cycles
 SCF Done:  E(RM062X) =  -1199.75645070     A.U. after   14 cycles
 SCF Done:  E(RM062X) =  -1199.75974581     A.U. after   15 cycles
 SCF Done:  E(RM062X) =  -1199.75760046     A.U. after   15 cycles
 SCF Done:  E(RM062X) =  -1199.75974138     A.U. after   14 cycles
 SCF Done:  E(RM062X) =  -1199.76123092     A.U. after   14 cycles
 SCF Done:  E(RM062X) =  -1199.76374957     A.U. after   14 cycles
 SCF Done:  E(RM062X) =  -1199.76570207     A.U. after   14 cycles
 SCF Done:  E(RM062X) =  -1199.76834051     A.U. after   14 cycles
 SCF Done:  E(RM062X) =  -1199.77283669     A.U. after   14 cycles
 SCF Done:  E(RM062X) =  -1199.77743056     A.U. after   14 cycles
 SCF Done:  E(RM062X) =  -1199.77834136     A.U. after   14 cycles
 SCF Done:  E(RM062X) =  -1199.77842550     A.U. after   12 cycles
 SCF Done:  E(RM062X) =  -1199.77842594     A.U. after    8 cycles

 Isotropic polarizability for W=    0.000000       60.84 Bohr**3.
 End of Minotr F.D. properties file   721 does not exist.

 Optimization completed.
    -- Stationary point found.

                          Input orientation:
 ---------------------------------------------------------------------
 Center     Atomic      Atomic             Coordinates (Angstroms)
 Number     Number       Type             X           Y           Z
 ---------------------------------------------------------------------
      1          6           0       -0.044184    0.394760    1.695982
      2          6           0       -0.321244    0.396677    0.285825
      3          9           0       -1.167223   -0.591175   -0.074944
      4          9           0       -0.786351    1.583173   -0.154786
      5         16           0        2.078351   -0.093490    0.164885
      6          8           0        1.722596   -0.029041    1.606608
      7          8           0        3.464326   -0.387402    0.040279
      8          8           0        1.887258    1.201818   -0.694017
      9          9           0        1.415443   -1.285356   -0.561750
     10          9           0        0.086682    1.507054    2.338046
     11          9           0       -0.393296   -0.591018    2.453435
     12          1           0        2.775472    1.437159   -1.024270
 ---------------------------------------------------------------------

 ******    1 imaginary frequencies (negative Signs) ******

                      1                      2                      3
                      A                      A                      A
 Frequencies --   -803.9954                24.3418               109.8147
 Red. masses --     13.6499                13.0059                17.4595
 Frc consts  --      5.1986                 0.0045                 0.1241
 IR Inten    --     52.4356                 1.7789                53.0675

                      4                      5                      6
                      A                      A                      A
 Frequencies --    131.9921               181.8809               211.7854
 Red. masses --     14.7650                15.8798                13.2575
 Frc consts  --      0.1516                 0.3095                 0.3504
 IR Inten    --      2.4413                 1.8411                 9.2202

                      7                      8                      9
                      A                      A                      A
 Frequencies --    221.4026               266.6563               327.5413
 Red. masses --     18.4711                17.1800                14.0334
 Frc consts  --      0.5335                 0.7197                 0.8870
 IR Inten    --      2.0001                19.3198                 0.7523

                     10                     11                     12
                      A                      A                      A
 Frequencies --    347.2879               386.3015               468.1542
 Red. masses --     17.2561                14.1401                15.0363
 Frc consts  --      1.2262                 1.2432                 1.9416
 IR Inten    --      0.5141                 0.5480                15.8191

                     13                     14                     15
                      A                      A                      A
 Frequencies --    489.6835               512.6191               547.5578
 Red. masses --      2.4668                 2.0439                 6.3296
 Frc consts  --      0.3485                 0.3165                 1.1181
 IR Inten    --    119.6099               169.7535                33.2266

                     16                     17                     18
                      A                      A                      A
 Frequencies --    569.6399               596.0404               622.2185
 Red. masses --     12.1423                10.6963                15.1986
 Frc consts  --      2.3214                 2.2389                 3.4669
 IR Inten    --     34.9933                28.9683                86.7328

                     19                     20                     21
                      A                      A                      A
 Frequencies --    675.6706               782.2746               818.7918
 Red. masses --     13.4063                14.3458                12.2752
 Frc consts  --      3.6060                 5.1724                 4.8487
 IR Inten    --    134.6131                24.8150                34.3098

                     22                     23                     24
                      A                      A                      A
 Frequencies --    950.2329              1129.7775              1175.5412
 Red. masses --     20.9010                12.0984                13.8383
 Frc consts  --     11.1193                 9.0984                11.2670
 IR Inten    --    214.5271               212.6461               344.0312

                     25                     26                     27
                      A                      A                      A
 Frequencies --   1211.9688              1242.2367              1352.9767
 Red. masses --      1.5577                10.7010                 5.1739
 Frc consts  --      1.3481                 9.7293                 5.5802
 IR Inten    --     55.6978               143.8133               656.6677

                     28                     29                     30
                      A                      A                      A
 Frequencies --   1413.3510              1517.5786              3669.2644
 Red. masses --     13.1936                11.4226                 1.0634
 Frc consts  --     15.5279                15.4995                 8.4354
 IR Inten    --    268.2208               216.3603                97.4777

 - Thermochemistry -
 -------------------
 Temperature   298.150 Kelvin.  Pressure   1.00000 Atm.
 Atom     1 has atomic number  6 and mass  12.00000

 Molecular mass:   199.95666 amu.
 Principal axes and moments of inertia in atomic units:
                           1         2         3
     Eigenvalues --  1240.061702125.727432298.13125
           X            0.88744   0.41413   0.20233
           Y           -0.20343  -0.04198   0.97819
           Z           -0.41359   0.90925  -0.04699
 This molecule is an asymmetric top.
 Rotational symmetry number  1.
 Warning -- assumption of classical behavior for rotation
           may cause significant error
 Rotational temperatures (Kelvin)      0.06985     0.04075     0.03769
 Rotational constants (GHZ):           1.45536     0.84900     0.78531
    1 imaginary frequencies ignored.
 Zero-point vibrational energy     131317.6 (Joules/Mol)
                                   31.38565 (Kcal/Mol)
 Warning -- explicit consideration of  16 degrees of freedom as
           vibrations may cause significant error
 Vibrational temperatures:     35.02   158.00   189.91   261.69   304.71
          (Kelvin)            318.55   383.66   471.26   499.67   555.80
                              673.57   704.55   737.54   787.81   819.58
                              857.57   895.23   972.14  1125.52  1178.06
                             1367.17  1625.50  1691.34  1743.75  1787.30
                             1946.63  2033.50  2183.46  5279.25

 Zero-point correction=                           0.050016 (Hartree/Particle)
 Thermal correction to Energy=                    0.060118
 Thermal correction to Enthalpy=                  0.061062
 Thermal correction to Gibbs Free Energy=         0.013151
 Sum of electronic and zero-point Energies=          -1199.728410
 Sum of electronic and thermal Energies=             -1199.718308
 Sum of electronic and thermal Enthalpies=           -1199.717364
 Sum of electronic and thermal Free Energies=        -1199.765275

                     E (Thermal)             CV                S
                      KCal/Mol        Cal/Mol-Kelvin    Cal/Mol-Kelvin
 Total                   37.724             35.584            100.836
 Electronic               0.000              0.000              0.000
 Translational            0.889              2.981             41.783
 Rotational               0.889              2.981             30.183
 Vibrational             35.947             29.622             28.869
 Vibration     1          0.593              1.985              6.244
 Vibration     2          0.606              1.941              3.272
 Vibration     3          0.612              1.921              2.917
 Vibration     4          0.630              1.864              2.309
 Vibration     5          0.643              1.823              2.028
 Vibration     6          0.648              1.808              1.948
 Vibration     7          0.672              1.734              1.618
 Vibration     8          0.711              1.620              1.272
 Vibration     9          0.725              1.581              1.178
 Vibration    10          0.755              1.499              1.014
 Vibration    11          0.825              1.321              0.743
 Vibration    12          0.846              1.273              0.684
 Vibration    13          0.868              1.222              0.627
 Vibration    14          0.903              1.145              0.549
 Vibration    15          0.926              1.097              0.505
 Vibration    16          0.954              1.040              0.457

 Normal termination of Gaussian 16 at Sat May 24 07:30:11 2025.
