 Gaussian 16, Revision C.01,
 Gaussian 16:  ES64L-G16RevC.01  3-Jul-2019

 ----------------------------------------------------------------------
 #P M062X/Def2TZVPP Symm(None) scf(xqc) pop(None) opt(NoFreeze,TS,CalcA
 ll,NoEigentest,MaxCycle=999)
 ----------------------------------------------------------------------

 ------------------------------
 Gaussian input prepared by ASE
 ------------------------------
 Symbolic Z-matrix:
 Charge =  0 Multiplicity = 1

 SCF Done:  E(RM062X) =  -1199.73956676     A.U. after   16 cycles
 SCF Done:  E(RM062X) =  -1199.75508998     A.U. after   14 cycles
 SCF Done:  E(RM062X) =  -1199.75972569     A.U. after   14 cycles
 SCF Done:  E(RM062X) =  -1199.76229036     A.U. after   14 cycles
 SCF Done:  E(RM062X) =  -1199.76359450     A.U. after   14 cycles
 SCF Done:  E(RM062X) =  -1199.76408528     A.U. after   13 cycles
 SCF Done:  E(RM062X) =  -1199.76409562     A.U. after   11 cycles

 Isotropic polarizability for W=    0.000000       59.14 Bohr**3.
 End of Minotr F.D. properties file   721 does not exist.

 Optimization completed.
    -- Stationary point found.

                          Input orientation:
 ---------------------------------------------------------------------
 Center     Atomic      Atomic             Coordinates (Angstroms)
 Number     Number       Type             X           Y           Z
 ---------------------------------------------------------------------
      1          6           0       -0.179508   -1.057951   -1.184471
      2          6           0        0.021414   -0.007985   -0.052906
      3          9           0       -0.588503    1.099401   -0.471174
      4          9           0       -0.535093   -0.385873    1.076046
      5         16           0        1.869713    0.045823   -0.161202
      6          8           0        2.794888   -0.042532    0.919076
      7          8           0        1.962704   -0.420765   -1.540020
      8          8           0        1.893038    1.647498   -0.422316
      9          9           0       -0.608811   -2.218707   -1.015731
     10          9           0        1.328846   -1.753049    0.238780
     11          9           0       -0.381341   -0.648642   -2.357836
     12          1           0        2.442481    2.044460    0.263035
 ---------------------------------------------------------------------

 ******    1 imaginary frequencies (negative Signs) ******

                      1                      2                      3
                      A                      A                      A
 Frequencies --   -333.7022               109.8158               126.2923
 Red. masses --     15.7256                12.5024                14.9835
 Frc consts  --      1.0318                 0.0888                 0.1408
 IR Inten    --     19.5960                 5.3298               203.0032

                      4                      5                      6
                      A                      A                      A
 Frequencies --    176.4402               189.3736               253.2396
 Red. masses --     15.6502                12.3333                17.9564
 Frc consts  --      0.2871                 0.2606                 0.6785
 IR Inten    --      1.3885                 6.5475                 5.6230

                      7                      8                      9
                      A                      A                      A
 Frequencies --    283.6572               296.1136               301.2387
 Red. masses --     15.2005                14.4343                12.5195
 Frc consts  --      0.7206                 0.7457                 0.6694
 IR Inten    --     15.2330                 4.4195                30.3644

                     10                     11                     12
                      A                      A                      A
 Frequencies --    337.6825               370.4016               412.3734
 Red. masses --      2.0254                 2.7009                16.6475
 Frc consts  --      0.1361                 0.2183                 1.6679
 IR Inten    --     76.6910                24.0226                53.5624

                     13                     14                     15
                      A                      A                      A
 Frequencies --    442.3689               506.2321               535.5803
 Red. masses --     13.0268                 6.9018                 9.3741
 Frc consts  --      1.5020                 1.0421                 1.5843
 IR Inten    --     50.6204                 5.4532                 9.6028

                     16                     17                     18
                      A                      A                      A
 Frequencies --    560.8152               583.0077               640.9354
 Red. masses --     13.8436                17.4648                14.4571
 Frc consts  --      2.5653                 3.4975                 3.4991
 IR Inten    --     95.3547                56.1959                56.4731

                     19                     20                     21
                      A                      A                      A
 Frequencies --    675.1271               772.5829               795.0241
 Red. masses --     14.5239                16.3589                15.9644
 Frc consts  --      3.9003                 5.7530                 5.9452
 IR Inten    --     38.4971                34.4497               244.9875

                     22                     23                     24
                      A                      A                      A
 Frequencies --    961.0284              1124.5507              1163.0930
 Red. masses --     13.0474                11.5413                 1.2997
 Frc consts  --      7.0998                 8.5993                 1.0359
 IR Inten    --     14.5428               183.9368               161.9164

                     25                     26                     27
                      A                      A                      A
 Frequencies --   1211.4714              1310.8434              1404.2700
 Red. masses --     13.0736                12.7646                10.1903
 Frc consts  --     11.3050                12.9228                11.8397
 IR Inten    --     92.4744               152.9987               373.8103

                     28                     29                     30
                      A                      A                      A
 Frequencies --   1454.3474              1532.0533              3859.1668
 Red. masses --     13.3000                13.4256                 1.0658
 Frc consts  --     16.5744                18.5666                 9.3520
 IR Inten    --    225.4902               375.3429               160.5240

 - Thermochemistry -
 -------------------
 Temperature   298.150 Kelvin.  Pressure   1.00000 Atm.
 Atom     1 has atomic number  6 and mass  12.00000

 Molecular mass:   199.95666 amu.
 Principal axes and moments of inertia in atomic units:
                           1         2         3
     Eigenvalues --  1230.087001904.670172006.86893
           X            0.79955  -0.42604  -0.42333
           Y            0.47324   0.88091   0.00725
           Z            0.36983  -0.20613   0.90594
 This molecule is an asymmetric top.
 Rotational symmetry number  1.
 Warning -- assumption of classical behavior for rotation
           may cause significant error
 Rotational temperatures (Kelvin)      0.07041     0.04547     0.04316
 Rotational constants (GHZ):           1.46717     0.94753     0.89928
    1 imaginary frequencies ignored.
 Zero-point vibrational energy     133916.7 (Joules/Mol)
                                   32.00686 (Kcal/Mol)
 Warning -- explicit consideration of  16 degrees of freedom as
           vibrations may cause significant error
 Vibrational temperatures:    158.00   181.71   253.86   272.47   364.36
          (Kelvin)            408.12   426.04   433.42   485.85   532.93
                              593.31   636.47   728.36   770.58   806.89
                              838.82   922.16   971.36  1111.57  1143.86
                             1382.71  1617.98  1673.43  1743.04  1886.01
                             2020.43  2092.48  2204.28  5552.48

 Zero-point correction=                           0.051006 (Hartree/Particle)
 Thermal correction to Energy=                    0.060794
 Thermal correction to Enthalpy=                  0.061738
 Thermal correction to Gibbs Free Energy=         0.015935
 Sum of electronic and zero-point Energies=          -1199.713089
 Sum of electronic and thermal Energies=             -1199.703302
 Sum of electronic and thermal Enthalpies=           -1199.702358
 Sum of electronic and thermal Free Energies=        -1199.748161

                     E (Thermal)             CV                S
                      KCal/Mol        Cal/Mol-Kelvin    Cal/Mol-Kelvin
 Total                   38.149             35.606             96.400
 Electronic               0.000              0.000              0.000
 Translational            0.889              2.981             41.783
 Rotational               0.889              2.981             29.932
 Vibrational             36.371             29.645             24.685
 Vibration     1          0.606              1.941              3.272
 Vibration     2          0.611              1.927              3.002
 Vibration     3          0.628              1.871              2.366
 Vibration     4          0.633              1.854              2.234
 Vibration     5          0.664              1.757              1.708
 Vibration     6          0.682              1.704              1.512
 Vibration     7          0.690              1.681              1.439
 Vibration     8          0.693              1.671              1.410
 Vibration     9          0.718              1.600              1.223
 Vibration    10          0.742              1.533              1.078
 Vibration    11          0.776              1.443              0.918
 Vibration    12          0.802              1.378              0.819
 Vibration    13          0.861              1.236              0.643
 Vibration    14          0.891              1.171              0.575
 Vibration    15          0.916              1.116              0.522
 Vibration    16          0.940              1.068              0.480

 Normal termination of Gaussian 16 at Sat May 24 08:02:17 2025.
