 Gaussian 16, Revision C.01,
 Gaussian 16:  ES64L-G16RevC.01  3-Jul-2019

 ----------------------------------------------------------------------
 #P M062X/Def2TZVPP Symm(None) scf(xqc) pop(None) freq opt(CalcFC, Tigh
 t)
 ----------------------------------------------------------------------

 ------------------------------
 Gaussian input prepared by ASE
 ------------------------------
 Symbolic Z-matrix:
 Charge =  0 Multiplicity = 1

 SCF Done:  E(RM062X) =  -1199.91901047     A.U. after   13 cycles
 SCF Done:  E(RM062X) =  -1199.92322484     A.U. after   11 cycles
 SCF Done:  E(RM062X) =  -1199.92422469     A.U. after   12 cycles
 SCF Done:  E(RM062X) =  -1199.92441009     A.U. after   10 cycles
 SCF Done:  E(RM062X) =  -1199.92447861     A.U. after   10 cycles
 SCF Done:  E(RM062X) =  -1199.92457147     A.U. after   11 cycles
 SCF Done:  E(RM062X) =  -1199.92466919     A.U. after   11 cycles
 SCF Done:  E(RM062X) =  -1199.92455867     A.U. after   11 cycles
 SCF Done:  E(RM062X) =  -1199.92488993     A.U. after   12 cycles
 SCF Done:  E(RM062X) =  -1199.87650040     A.U. after   13 cycles
 SCF Done:  E(RM062X) =  -1199.92559532     A.U. after    7 cycles
 SCF Done:  E(RM062X) =  -1199.92559592     A.U. after    7 cycles
 SCF Done:  E(RM062X) =  -1199.92559603     A.U. after    6 cycles
 SCF Done:  E(RM062X) =  -1199.92559609     A.U. after    6 cycles
 SCF Done:  E(RM062X) =  -1199.92559610     A.U. after    5 cycles
 SCF Done:  E(RM062X) =  -1199.92559611     A.U. after    5 cycles
 SCF Done:  E(RM062X) =  -1199.92559611     A.U. after    3 cycles
 SCF Done:  E(RM062X) =  -1199.92559611     A.U. after    5 cycles
 SCF Done:  E(RM062X) =  -1199.92559611     A.U. after    4 cycles
 Optimization completed.
    -- Stationary point found.
 Normal termination of Gaussian 16 at Sat May 24 06:16:37 2025.

 ---------------------------------------------------------------------
 #P Geom=AllCheck Guess=TCheck SCRF=Check GenChk RM062X/def2TZVPP Freq
 ---------------------------------------------------------------------

 Structure from the checkpoint file:  "/tmp/Gau-265429.chk"
 ------------------------------
 Gaussian input prepared by ASE
 ------------------------------
 Charge =  0 Multiplicity = 1

                          Input orientation:
 ---------------------------------------------------------------------
 Center     Atomic      Atomic             Coordinates (Angstroms)
 Number     Number       Type             X           Y           Z
 ---------------------------------------------------------------------
      1          6           0        1.682111    0.441882   -2.889243
      2          6           0        1.415170    0.155496   -0.000828
      3          9           0        0.338164    0.870316   -0.301452
      4          9           0        1.065768   -0.788086    0.879273
      5         16           0        1.971512   -0.788754   -1.520272
      6          8           0        1.114399   -1.896278   -1.761546
      7          8           0        3.391534   -0.905730   -1.373226
      8          8           0        2.382867    0.958677    0.446433
      9          9           0        2.170445    1.618527   -2.537970
     10          9           0        2.318759   -0.005111   -3.953873
     11          9           0        0.397486    0.550988   -3.150792
     12          1           0        3.244941    0.532333    0.330826
 ---------------------------------------------------------------------

 SCF Done:  E(RM062X) =  -1199.92559611     A.U. after    1 cycles

 Isotropic polarizability for W=    0.000000       55.62 Bohr**3.
 End of Minotr F.D. properties file   721 does not exist.

                      1                      2                      3
                      A                      A                      A
 Frequencies --     50.6026                54.4560               112.9785
 Red. masses --     15.0237                17.9763                17.3890
 Frc consts  --      0.0227                 0.0314                 0.1308
 IR Inten    --      0.8717                 0.2155                 0.3430

                      4                      5                      6
                      A                      A                      A
 Frequencies --    186.7604               206.2230               227.6676
 Red. masses --     10.7497                10.9972                16.0785
 Frc consts  --      0.2209                 0.2756                 0.4910
 IR Inten    --      9.0627                 6.0944                 3.3233

                      7                      8                      9
                      A                      A                      A
 Frequencies --    274.6031               297.7113               302.8078
 Red. masses --     15.9855                 9.0209                 4.7382
 Frc consts  --      0.7102                 0.4711                 0.2560
 IR Inten    --      0.6547                19.5431                22.3295

                     10                     11                     12
                      A                      A                      A
 Frequencies --    332.9964               382.6794               419.5633
 Red. masses --      6.5540                 2.0203                 6.0299
 Frc consts  --      0.4282                 0.1743                 0.6254
 IR Inten    --     21.1951                66.8623                17.0433

                     13                     14                     15
                      A                      A                      A
 Frequencies --    523.6928               532.4112               558.8344
 Red. masses --     11.4210                14.4192                14.3737
 Frc consts  --      1.8455                 2.4082                 2.6448
 IR Inten    --     27.5386                23.8582                 0.7687

                     16                     17                     18
                      A                      A                      A
 Frequencies --    584.3100               602.4624               640.3959
 Red. masses --     12.1596                16.6491                16.2802
 Frc consts  --      2.4460                 3.5604                 3.9338
 IR Inten    --      6.9504                33.3116               164.5372

                     19                     20                     21
                      A                      A                      A
 Frequencies --    779.2184               806.7495              1070.3050
 Red. masses --     14.2547                17.4645                 4.2471
 Frc consts  --      5.0995                 6.6970                 2.8665
 IR Inten    --      4.8181                 4.2857               141.4042

                     22                     23                     24
                      A                      A                      A
 Frequencies --   1157.5754              1201.3756              1256.4280
 Red. masses --      8.2304                 5.6178                 7.1554
 Frc consts  --      6.4978                 4.7772                 6.6552
 IR Inten    --    128.2921               406.0663                43.5712

                     25                     26                     27
                      A                      A                      A
 Frequencies --   1290.3209              1301.5299              1322.8599
 Red. masses --     12.5828                11.9017                 8.7166
 Frc consts  --     12.3430                11.8787                 8.9873
 IR Inten    --    138.6497               149.3636               402.1901

                     28                     29                     30
                      A                      A                      A
 Frequencies --   1398.7321              1460.8524              3784.9687
 Red. masses --      2.6570                10.0434                 1.0656
 Frc consts  --      3.0627                12.6282                 8.9941
 IR Inten    --    180.3453               265.2045               129.9770

 - Thermochemistry -
 -------------------
 Temperature   298.150 Kelvin.  Pressure   1.00000 Atm.
 Atom     1 has atomic number  6 and mass  12.00000

 Molecular mass:   199.95666 amu.
 Principal axes and moments of inertia in atomic units:
                           1         2         3
     Eigenvalues --  1191.020202084.940522277.21898
           X           -0.10135  -0.38172   0.91871
           Y           -0.11770   0.92158   0.36993
           Z            0.98786   0.07064   0.13833
 This molecule is an asymmetric top.
 Rotational symmetry number  1.
 Warning -- assumption of classical behavior for rotation
           may cause significant error
 Rotational temperatures (Kelvin)      0.07272     0.04154     0.03803
 Rotational constants (GHZ):           1.51529     0.86561     0.79252
 Zero-point vibrational energy     138300.7 (Joules/Mol)
                                   33.05466 (Kcal/Mol)
 Warning -- explicit consideration of  17 degrees of freedom as
           vibrations may cause significant error
 Vibrational temperatures:     72.81    78.35   162.55   268.71   296.71
          (Kelvin)            327.56   395.09   428.34   435.67   479.11
                              550.59   603.66   753.48   766.02   804.04
                              840.69   866.81   921.39  1121.12  1160.73
                             1539.93  1665.49  1728.51  1807.72  1856.48
                             1872.61  1903.30  2012.46  2101.84  5445.73

 Zero-point correction=                           0.052676 (Hartree/Particle)
 Thermal correction to Energy=                    0.063164
 Thermal correction to Enthalpy=                  0.064108
 Thermal correction to Gibbs Free Energy=         0.015593
 Sum of electronic and zero-point Energies=          -1199.872920
 Sum of electronic and thermal Energies=             -1199.862432
 Sum of electronic and thermal Enthalpies=           -1199.861488
 Sum of electronic and thermal Free Energies=        -1199.910003

                     E (Thermal)             CV                S
                      KCal/Mol        Cal/Mol-Kelvin    Cal/Mol-Kelvin
 Total                   39.636             36.358            102.107
 Electronic               0.000              0.000              0.000
 Translational            0.889              2.981             41.783
 Rotational               0.889              2.981             30.115
 Vibrational             37.858             30.397             30.209
 Vibration     1          0.595              1.977              4.794
 Vibration     2          0.596              1.976              4.649
 Vibration     3          0.607              1.939              3.217
 Vibration     4          0.632              1.858              2.260
 Vibration     5          0.641              1.831              2.077
 Vibration     6          0.651              1.799              1.897
 Vibration     7          0.677              1.720              1.567
 Vibration     8          0.691              1.678              1.430
 Vibration     9          0.694              1.668              1.401
 Vibration    10          0.715              1.610              1.246
 Vibration    11          0.752              1.507              1.029
 Vibration    12          0.782              1.428              0.893
 Vibration    13          0.879              1.198              0.601
 Vibration    14          0.887              1.178              0.582
 Vibration    15          0.914              1.120              0.526
 Vibration    16          0.941              1.065              0.477
 Vibration    17          0.961              1.027              0.445

 Optimization completed.
    -- Stationary point found.
 Normal termination of Gaussian 16 at Sat May 24 06:21:19 2025.
