 Gaussian 16, Revision C.01,
 Gaussian 16:  ES64L-G16RevC.01  3-Jul-2019

 ----------------------------------------------------------------------
 #P M062X/Def2TZVPP Symm(None) scf(xqc) pop(None) opt(NoFreeze,TS,CalcA
 ll,NoEigentest,MaxCycle=999)
 ----------------------------------------------------------------------

 ------------------------------
 Gaussian input prepared by ASE
 ------------------------------
 Symbolic Z-matrix:
 Charge =  0 Multiplicity = 1

 SCF Done:  E(RM062X) =  -1199.74476714     A.U. after   16 cycles
 SCF Done:  E(RM062X) =  -1199.75898410     A.U. after   14 cycles
 SCF Done:  E(RM062X) =  -1199.76082298     A.U. after   14 cycles
 SCF Done:  E(RM062X) =  -1199.76140936     A.U. after   13 cycles
 SCF Done:  E(RM062X) =  -1199.76150175     A.U. after   14 cycles
 SCF Done:  E(RM062X) =  -1199.76151287     A.U. after   11 cycles

 Isotropic polarizability for W=    0.000000       58.89 Bohr**3.
 End of Minotr F.D. properties file   721 does not exist.

 Optimization completed.
    -- Stationary point found.

                          Input orientation:
 ---------------------------------------------------------------------
 Center     Atomic      Atomic             Coordinates (Angstroms)
 Number     Number       Type             X           Y           Z
 ---------------------------------------------------------------------
      1          6           0        0.023874   -0.848594    1.299169
      2          6           0        0.037159    0.005075    0.001146
      3          9           0       -0.652321   -0.505668   -0.985781
      4          9           0       -0.478353    1.202902    0.302709
      5         16           0        1.876968    0.037953   -0.086565
      6          8           0        2.036982   -0.261575    1.353106
      7          8           0        2.667790   -0.310608   -1.202220
      8          8           0        2.065520    1.630023   -0.091717
      9          9           0        1.197379   -1.843732   -0.077677
     10          9           0       -0.104530   -0.210548    2.403160
     11          9           0       -0.521606   -1.980342    1.413374
     12          1           0        1.875470    1.995297    0.780845
 ---------------------------------------------------------------------

 ******    1 imaginary frequencies (negative Signs) ******

                      1                      2                      3
                      A                      A                      A
 Frequencies --   -393.7273               103.0132               138.0476
 Red. masses --     16.9611                14.9541                 9.0202
 Frc consts  --      1.5492                 0.0935                 0.1013
 IR Inten    --      3.9094               133.1152                88.6123

                      4                      5                      6
                      A                      A                      A
 Frequencies --    190.1113               205.5311               254.4544
 Red. masses --     18.1497                10.3244                16.4416
 Frc consts  --      0.3865                 0.2570                 0.6272
 IR Inten    --      9.9915                33.8325                 0.9913

                      7                      8                      9
                      A                      A                      A
 Frequencies --    282.1690               299.8340               311.5557
 Red. masses --     11.0321                13.9867                11.9435
 Frc consts  --      0.5175                 0.7408                 0.6831
 IR Inten    --      7.3462                 4.5373                34.4239

                     10                     11                     12
                      A                      A                      A
 Frequencies --    380.8184               395.5145               415.6182
 Red. masses --      5.5393                 1.7704                16.6873
 Frc consts  --      0.4733                 0.1632                 1.6983
 IR Inten    --      4.8980                87.9586                54.4179

                     13                     14                     15
                      A                      A                      A
 Frequencies --    437.3765               509.9378               543.5005
 Red. masses --     14.7866                 6.6984                 5.6434
 Frc consts  --      1.6666                 1.0262                 0.9822
 IR Inten    --     44.2574                 5.2147                44.6487

                     16                     17                     18
                      A                      A                      A
 Frequencies --    565.8884               582.3824               646.9262
 Red. masses --     16.4534                16.7028                17.7820
 Frc consts  --      3.1043                 3.3378                 4.3847
 IR Inten    --     45.5527               126.5155                38.3367

                     19                     20                     21
                      A                      A                      A
 Frequencies --    680.2064               774.8006               826.6917
 Red. masses --     15.9699                16.3054                14.8283
 Frc consts  --      4.3534                 5.7672                 5.9708
 IR Inten    --     36.1943                41.9812               219.6990

                     22                     23                     24
                      A                      A                      A
 Frequencies --    981.7718              1098.5762              1165.4658
 Red. masses --     12.5874                10.2492                 1.9919
 Frc consts  --      7.1483                 7.2878                 1.5941
 IR Inten    --     35.4989               176.1340               269.4328

                     25                     26                     27
                      A                      A                      A
 Frequencies --   1181.5709              1321.5251              1385.8456
 Red. masses --      2.6617                13.4493                13.0523
 Frc consts  --      2.1894                13.8389                14.7696
 IR Inten    --     16.8596               297.9200               208.3327

                     28                     29                     30
                      A                      A                      A
 Frequencies --   1422.5332              1494.0964              3845.1975
 Red. masses --     15.1027                13.1731                 1.0658
 Frc consts  --     18.0065                17.3259                 9.2849
 IR Inten    --    396.8677               232.7544               113.7520

 - Thermochemistry -
 -------------------
 Temperature   298.150 Kelvin.  Pressure   1.00000 Atm.
 Atom     1 has atomic number  6 and mass  12.00000

 Molecular mass:   199.95666 amu.
 Principal axes and moments of inertia in atomic units:
                           1         2         3
     Eigenvalues --  1234.880061876.574971976.01090
           X            0.75634  -0.35443   0.54985
           Y            0.40226   0.91480   0.03636
           Z           -0.51589   0.19368   0.83447
 This molecule is an asymmetric top.
 Rotational symmetry number  1.
 Warning -- assumption of classical behavior for rotation
           may cause significant error
 Rotational temperatures (Kelvin)      0.07014     0.04616     0.04383
 Rotational constants (GHZ):           1.46147     0.96172     0.91333
    1 imaginary frequencies ignored.
 Zero-point vibrational energy     134226.8 (Joules/Mol)
                                   32.08096 (Kcal/Mol)
 Warning -- explicit consideration of  16 degrees of freedom as
           vibrations may cause significant error
 Vibrational temperatures:    148.21   198.62   273.53   295.71   366.10
          (Kelvin)            405.98   431.39   448.26   547.91   569.06
                              597.98   629.29   733.69   781.98   814.19
                              837.92   930.78   978.67  1114.77  1189.42
                             1412.55  1580.61  1676.85  1700.02  1901.38
                             1993.92  2046.71  2149.67  5532.38

 Zero-point correction=                           0.051124 (Hartree/Particle)
 Thermal correction to Energy=                    0.060745
 Thermal correction to Enthalpy=                  0.061690
 Thermal correction to Gibbs Free Energy=         0.016263
 Sum of electronic and zero-point Energies=          -1199.710389
 Sum of electronic and thermal Energies=             -1199.700767
 Sum of electronic and thermal Enthalpies=           -1199.699823
 Sum of electronic and thermal Free Energies=        -1199.745250

                     E (Thermal)             CV                S
                      KCal/Mol        Cal/Mol-Kelvin    Cal/Mol-Kelvin
 Total                   38.118             35.320             95.609
 Electronic               0.000              0.000              0.000
 Translational            0.889              2.981             41.783
 Rotational               0.889              2.981             29.905
 Vibrational             36.341             29.358             23.920
 Vibration     1          0.605              1.947              3.396
 Vibration     2          0.614              1.915              2.831
 Vibration     3          0.633              1.854              2.227
 Vibration     4          0.640              1.832              2.083
 Vibration     5          0.665              1.755              1.700
 Vibration     6          0.681              1.707              1.520
 Vibration     7          0.692              1.674              1.418
 Vibration     8          0.700              1.652              1.354
 Vibration     9          0.751              1.511              1.036
 Vibration    10          0.762              1.480              0.979
 Vibration    11          0.779              1.436              0.907
 Vibration    12          0.798              1.389              0.835
 Vibration    13          0.865              1.228              0.634
 Vibration    14          0.899              1.154              0.558
 Vibration    15          0.922              1.105              0.512
 Vibration    16          0.939              1.069              0.481

 Normal termination of Gaussian 16 at Sat May 24 06:36:25 2025.
