 Gaussian 16, Revision C.01,
 Gaussian 16:  ES64L-G16RevC.01  3-Jul-2019

 ----------------------------------------------------------------------
 #P M062X/Def2TZVPP Symm(None) scf(xqc) pop(None) freq opt(CalcFC, Tigh
 t)
 ----------------------------------------------------------------------

 ------------------------------
 Gaussian input prepared by ASE
 ------------------------------
 Symbolic Z-matrix:
 Charge =  0 Multiplicity = 1

 SCF Done:  E(RM062X) =  -1199.91241831     A.U. after   13 cycles
 SCF Done:  E(RM062X) =  -1199.91961447     A.U. after   12 cycles
 SCF Done:  E(RM062X) =  -1199.90492620     A.U. after   12 cycles
 SCF Done:  E(RM062X) =  -1199.92048040     A.U. after   12 cycles
 SCF Done:  E(RM062X) =  -1199.92067290     A.U. after   10 cycles
 SCF Done:  E(RM062X) =  -1199.92070573     A.U. after   10 cycles
 SCF Done:  E(RM062X) =  -1199.92072379     A.U. after    9 cycles
 SCF Done:  E(RM062X) =  -1199.92073801     A.U. after    9 cycles
 SCF Done:  E(RM062X) =  -1199.92076107     A.U. after   10 cycles
 SCF Done:  E(RM062X) =  -1199.92076870     A.U. after    9 cycles
 SCF Done:  E(RM062X) =  -1199.92077065     A.U. after    8 cycles
 SCF Done:  E(RM062X) =  -1199.92077084     A.U. after    7 cycles
 SCF Done:  E(RM062X) =  -1199.92077085     A.U. after    6 cycles
 SCF Done:  E(RM062X) =  -1199.92077085     A.U. after    5 cycles
 SCF Done:  E(RM062X) =  -1199.92077085     A.U. after    3 cycles
 SCF Done:  E(RM062X) =  -1199.92077085     A.U. after    3 cycles
 SCF Done:  E(RM062X) =  -1199.92077085     A.U. after    3 cycles
 SCF Done:  E(RM062X) =  -1199.92077085     A.U. after    3 cycles
 SCF Done:  E(RM062X) =  -1199.92077085     A.U. after    3 cycles
 Optimization completed.
    -- Stationary point found.
 Normal termination of Gaussian 16 at Sat May 24 06:10:21 2025.

 ---------------------------------------------------------------------
 #P Geom=AllCheck Guess=TCheck SCRF=Check GenChk RM062X/def2TZVPP Freq
 ---------------------------------------------------------------------

 Structure from the checkpoint file:  "/tmp/Gau-265430.chk"
 ------------------------------
 Gaussian input prepared by ASE
 ------------------------------
 Charge =  0 Multiplicity = 1

                          Input orientation:
 ---------------------------------------------------------------------
 Center     Atomic      Atomic             Coordinates (Angstroms)
 Number     Number       Type             X           Y           Z
 ---------------------------------------------------------------------
      1          6           0        1.970709    0.422800   -2.859580
      2          6           0        1.352824    0.037613   -0.077221
      3          9           0        0.022852    0.123473   -0.141829
      4          9           0        1.695778   -0.698681    0.967411
      5         16           0        1.949900   -0.928020   -1.571691
      6          8           0        0.934522   -1.841645   -1.969344
      7          8           0        3.301863   -1.301036   -1.337382
      8          8           0        1.938337    1.246213    0.005903
      9          9           0        3.057295    1.159893   -2.766009
     10          9           0        1.913702   -0.138315   -4.047346
     11          9           0        0.901508    1.203192   -2.688483
     12          1           0        1.380261    1.913632   -0.411296
 ---------------------------------------------------------------------

 SCF Done:  E(RM062X) =  -1199.92077085     A.U. after    1 cycles

 Isotropic polarizability for W=    0.000000       55.62 Bohr**3.
 End of Minotr F.D. properties file   721 does not exist.

                      1                      2                      3
                      A                      A                      A
 Frequencies --     47.5828                68.1289               127.3353
 Red. masses --     15.6909                13.5065                11.1239
 Frc consts  --      0.0209                 0.0369                 0.1063
 IR Inten    --      0.0632                 1.7962                 3.5970

                      4                      5                      6
                      A                      A                      A
 Frequencies --    175.7452               195.2781               202.9287
 Red. masses --      1.8240                16.8950                 4.6918
 Frc consts  --      0.0332                 0.3796                 0.1138
 IR Inten    --     98.7797                 1.8123                20.4726

                      7                      8                      9
                      A                      A                      A
 Frequencies --    235.8984               279.6170               292.6408
 Red. masses --      7.5368                14.0006                13.0534
 Frc consts  --      0.2471                 0.6449                 0.6586
 IR Inten    --      2.9141                 2.8526                 5.7312

                     10                     11                     12
                      A                      A                      A
 Frequencies --    312.3021               343.3897               408.2580
 Red. masses --      8.1473                15.1103                10.1679
 Frc consts  --      0.4682                 1.0498                 0.9985
 IR Inten    --      8.8392                 2.0158                11.1857

                     13                     14                     15
                      A                      A                      A
 Frequencies --    516.9419               533.1324               551.6376
 Red. masses --      8.0457                16.0879                12.2911
 Frc consts  --      1.2668                 2.6941                 2.2037
 IR Inten    --     33.3405                36.1806                 2.5306

                     16                     17                     18
                      A                      A                      A
 Frequencies --    572.4034               601.8185               637.8466
 Red. masses --     13.7215                15.3044                16.8990
 Frc consts  --      2.6489                 3.2659                 4.0508
 IR Inten    --      3.3109                24.6350               176.1821

                     19                     20                     21
                      A                      A                      A
 Frequencies --    779.6536               803.0083              1101.9924
 Red. masses --     15.5423                16.1574                 4.1255
 Frc consts  --      5.5663                 6.1385                 2.9518
 IR Inten    --      6.3199                 5.7210               265.9496

                     22                     23                     24
                      A                      A                      A
 Frequencies --   1132.8829              1174.2811              1254.4718
 Red. masses --      3.2731                 9.2628                13.3246
 Frc consts  --      2.4750                 7.5255                12.3545
 IR Inten    --     56.3848               271.7878               207.3556

                     25                     26                     27
                      A                      A                      A
 Frequencies --   1284.0461              1298.3105              1320.8073
 Red. masses --     12.4202                14.8460                10.0351
 Frc consts  --     12.0654                14.7440                10.3145
 IR Inten    --     35.9516                90.6083               407.7909

                     28                     29                     30
                      A                      A                      A
 Frequencies --   1399.4890              1473.8632              3849.2092
 Red. masses --      2.6594                19.8419                 1.0659
 Frc consts  --      3.0688                25.3949                 9.3050
 IR Inten    --    113.2521               295.9575               145.1350

 - Thermochemistry -
 -------------------
 Temperature   298.150 Kelvin.  Pressure   1.00000 Atm.
 Atom     1 has atomic number  6 and mass  12.00000

 Molecular mass:   199.95666 amu.
 Principal axes and moments of inertia in atomic units:
                           1         2         3
     Eigenvalues --  1201.749902067.019312277.09041
           X           -0.21503  -0.26636   0.93958
           Y           -0.15603   0.95910   0.23618
           Z            0.96406   0.09582   0.24780
 This molecule is an asymmetric top.
 Rotational symmetry number  1.
 Warning -- assumption of classical behavior for rotation
           may cause significant error
 Rotational temperatures (Kelvin)      0.07207     0.04190     0.03804
 Rotational constants (GHZ):           1.50176     0.87311     0.79256
 Zero-point vibrational energy     137420.4 (Joules/Mol)
                                   32.84427 (Kcal/Mol)
 Warning -- explicit consideration of  17 degrees of freedom as
           vibrations may cause significant error
 Vibrational temperatures:     68.46    98.02   183.21   252.86   280.96
          (Kelvin)            291.97   339.41   402.31   421.04   449.33
                              494.06   587.39   743.76   767.06   793.68
                              823.56   865.88   917.72  1121.75  1155.35
                             1585.52  1629.97  1689.53  1804.91  1847.46
                             1867.98  1900.35  2013.55  2120.56  5538.15

 Zero-point correction=                           0.052341 (Hartree/Particle)
 Thermal correction to Energy=                    0.063039
 Thermal correction to Enthalpy=                  0.063983
 Thermal correction to Gibbs Free Energy=         0.015148
 Sum of electronic and zero-point Energies=          -1199.868430
 Sum of electronic and thermal Energies=             -1199.857732
 Sum of electronic and thermal Enthalpies=           -1199.856788
 Sum of electronic and thermal Free Energies=        -1199.905623

                     E (Thermal)             CV                S
                      KCal/Mol        Cal/Mol-Kelvin    Cal/Mol-Kelvin
 Total                   39.558             36.750            102.782
 Electronic               0.000              0.000              0.000
 Translational            0.889              2.981             41.783
 Rotational               0.889              2.981             30.115
 Vibrational             37.780             30.788             30.883
 Vibration     1          0.595              1.978              4.915
 Vibration     2          0.598              1.969              4.207
 Vibration     3          0.611              1.926              2.986
 Vibration     4          0.628              1.872              2.373
 Vibration     5          0.636              1.846              2.177
 Vibration     6          0.639              1.836              2.106
 Vibration     7          0.655              1.786              1.834
 Vibration     8          0.680              1.711              1.536
 Vibration     9          0.688              1.687              1.459
 Vibration    10          0.701              1.650              1.350
 Vibration    11          0.722              1.589              1.196
 Vibration    12          0.773              1.452              0.933
 Vibration    13          0.872              1.212              0.617
 Vibration    14          0.888              1.177              0.580
 Vibration    15          0.907              1.136              0.541
 Vibration    16          0.929              1.091              0.500
 Vibration    17          0.960              1.028              0.447

                           ! Non-Optimized Parameters !
 Normal termination of Gaussian 16 at Sat May 24 06:15:04 2025.
