 Gaussian 16, Revision C.01,
 Gaussian 16:  ES64L-G16RevC.01  3-Jul-2019

 ------------------------------------------
 #P am1 Symm(None) scf(xqc) pop(None) force
 ------------------------------------------

 ------------------------------
 Gaussian input prepared by ASE
 ------------------------------
 Symbolic Z-matrix:
 Charge =  0 Multiplicity = 1

                          Input orientation:
 ---------------------------------------------------------------------
 Center     Atomic      Atomic             Coordinates (Angstroms)
 Number     Number       Type             X           Y           Z
 ---------------------------------------------------------------------
      1          6           0       -0.188633    0.556177    0.339468
      2          6           0        1.689575   -0.500328   -0.517396
      3          9           0        2.056006   -1.620513    0.114550
      4          9           0        1.412804   -0.879967   -1.780922
      5         16           0        2.546862    1.067366   -0.172446
      6          8           0        1.304473    1.676676    0.362197
      7          8           0        3.657546    1.345576    0.671429
      8          8           0        2.777004    1.894287   -1.502742
      9          9           0       -0.841208    1.568583    0.870818
     10          9           0       -0.626978    0.320929   -0.862359
     11          9           0       -0.102566   -0.419525    1.195317
     12          1           0        3.073604    2.814919   -1.460512
 ---------------------------------------------------------------------

 SCF Done:  E(RAM1) =  0.246820928402     A.U. after   17 cycles
 Normal termination of Gaussian 16 at Sat May 24 10:25:31 2025.
