 Gaussian 16, Revision C.01,
 Gaussian 16:  ES64L-G16RevC.01  3-Jul-2019

 ------------------------------------------
 #P am1 Symm(None) scf(xqc) pop(None) force
 ------------------------------------------

 ------------------------------
 Gaussian input prepared by ASE
 ------------------------------
 Symbolic Z-matrix:
 Charge =  0 Multiplicity = 1

                          Input orientation:
 ---------------------------------------------------------------------
 Center     Atomic      Atomic             Coordinates (Angstroms)
 Number     Number       Type             X           Y           Z
 ---------------------------------------------------------------------
      1          6           0       -0.101492    0.472734   -0.008452
      2          6           0        1.853100   -0.149605    0.413333
      3          9           0        2.028078   -0.439401    1.702191
      4          9           0        2.087624   -1.276997   -0.251099
      5         16           0        2.577256    1.453048   -0.213671
      6          8           0        3.134437    2.422232    0.658164
      7          8           0        2.494230    1.745593   -1.599982
      8          8           0        0.841437    1.832324    0.131152
      9          9           0       -0.420397   -0.115481    1.124500
     10          9           0       -1.214835    1.268193   -0.278412
     11          9           0        0.009865   -0.249086   -1.110832
     12          1           0        0.406885    2.628583   -0.220253
 ---------------------------------------------------------------------

 SCF Done:  E(RAM1) =  0.779884549189     A.U. after   17 cycles
 Normal termination of Gaussian 16 at Sat May 24 10:46:56 2025.
