 Gaussian 16, Revision C.01,
 Gaussian 16:  ES64L-G16RevC.01  3-Jul-2019

 ----------------------------------------------------------------------
 #P M062X/Def2TZVPP Symm(None) scf(xqc) pop(None) opt(NoFreeze,TS,CalcA
 ll,NoEigentest,MaxCycle=999)
 ----------------------------------------------------------------------

 ------------------------------
 Gaussian input prepared by ASE
 ------------------------------
 Symbolic Z-matrix:
 Charge =  0 Multiplicity = 1

 SCF Done:  E(RM062X) =  -1199.74402215     A.U. after   16 cycles
 SCF Done:  E(RM062X) =  -1199.76106565     A.U. after   14 cycles
 SCF Done:  E(RM062X) =  -1199.76392317     A.U. after   13 cycles
 SCF Done:  E(RM062X) =  -1199.76409378     A.U. after   12 cycles
 SCF Done:  E(RM062X) =  -1199.76409635     A.U. after   10 cycles

 Isotropic polarizability for W=    0.000000       59.17 Bohr**3.
 End of Minotr F.D. properties file   721 does not exist.

 Optimization completed.
    -- Stationary point found.

                          Input orientation:
 ---------------------------------------------------------------------
 Center     Atomic      Atomic             Coordinates (Angstroms)
 Number     Number       Type             X           Y           Z
 ---------------------------------------------------------------------
      1          6           0       -0.120494   -0.997154   -1.209721
      2          6           0       -0.016045   -0.047653    0.019354
      3          9           0       -0.616014    1.084601   -0.343187
      4          9           0       -0.641169   -0.529137    1.070234
      5         16           0        1.834051    0.037958    0.044452
      6          8           0        2.684704   -0.132796    1.174848
      7          8           0        2.029521   -0.306073   -1.359397
      8          8           0        1.845781    1.656373   -0.075996
      9          9           0       -0.539189   -2.173265   -1.172332
     10          9           0        1.299395   -1.795905    0.249768
     11          9           0       -0.249266   -0.489207   -2.354456
     12          1           0        2.341693    1.999181    0.676162
 ---------------------------------------------------------------------

 ******    1 imaginary frequencies (negative Signs) ******

                      1                      2                      3
                      A                      A                      A
 Frequencies --   -333.6316               109.4003               126.8674
 Red. masses --     15.7256                12.4334                15.1654
 Frc consts  --      1.0313                 0.0877                 0.1438
 IR Inten    --     20.2350                 5.1862               202.2743

                      4                      5                      6
                      A                      A                      A
 Frequencies --    176.2536               188.4702               253.0494
 Red. masses --     15.5735                12.3277                17.8612
 Frc consts  --      0.2850                 0.2580                 0.6739
 IR Inten    --      1.3866                 6.7915                 5.8267

                      7                      8                      9
                      A                      A                      A
 Frequencies --    283.6922               296.0444               300.9727
 Red. masses --     15.2065                14.1389                12.6401
 Frc consts  --      0.7211                 0.7301                 0.6746
 IR Inten    --     14.9148                 4.5602                30.2135

                     10                     11                     12
                      A                      A                      A
 Frequencies --    337.3394               370.7751               412.2979
 Red. masses --      2.0110                 2.7278                16.5961
 Frc consts  --      0.1348                 0.2209                 1.6622
 IR Inten    --     77.2366                23.5671                52.9128

                     13                     14                     15
                      A                      A                      A
 Frequencies --    442.4345               505.9042               535.3132
 Red. masses --     12.9119                 6.9451                 9.4867
 Frc consts  --      1.4891                 1.0473                 1.6017
 IR Inten    --     50.4708                 5.4600                 9.9388

                     16                     17                     18
                      A                      A                      A
 Frequencies --    561.0632               582.9823               640.5083
 Red. masses --     13.7649                17.5245                14.4049
 Frc consts  --      2.5530                 3.5092                 3.4819
 IR Inten    --     95.2588                56.6922                55.8916

                     19                     20                     21
                      A                      A                      A
 Frequencies --    675.5431               772.3734               796.0381
 Red. masses --     14.5289                16.3614                15.9590
 Frc consts  --      3.9065                 5.7508                 5.9583
 IR Inten    --     39.1216                34.2400               244.7321

                     22                     23                     24
                      A                      A                      A
 Frequencies --    960.7488              1123.2837              1162.6540
 Red. masses --     13.0533                11.5056                 1.3019
 Frc consts  --      7.0989                 8.5534                 1.0369
 IR Inten    --     14.6201               183.0615               163.1982

                     25                     26                     27
                      A                      A                      A
 Frequencies --   1210.4721              1311.2348              1402.5201
 Red. masses --     13.0117                12.7704                10.1152
 Frc consts  --     11.2329                12.9365                11.7232
 IR Inten    --     92.1241               153.5971               372.5494

                     28                     29                     30
                      A                      A                      A
 Frequencies --   1453.6523              1532.6978              3859.0409
 Red. masses --     13.2989                13.4239                 1.0658
 Frc consts  --     16.5572                18.5798                 9.3515
 IR Inten    --    226.2832               375.6019               160.6286

 - Thermochemistry -
 -------------------
 Temperature   298.150 Kelvin.  Pressure   1.00000 Atm.
 Atom     1 has atomic number  6 and mass  12.00000

 Molecular mass:   199.95666 amu.
 Principal axes and moments of inertia in atomic units:
                           1         2         3
     Eigenvalues --  1230.216331904.597092006.79373
           X            0.76381  -0.42683  -0.48416
           Y            0.44890   0.89029  -0.07667
           Z            0.46377  -0.15878   0.87161
 This molecule is an asymmetric top.
 Rotational symmetry number  1.
 Warning -- assumption of classical behavior for rotation
           may cause significant error
 Rotational temperatures (Kelvin)      0.07041     0.04548     0.04316
 Rotational constants (GHZ):           1.46701     0.94757     0.89932
    1 imaginary frequencies ignored.
 Zero-point vibrational energy     133883.8 (Joules/Mol)
                                   31.99900 (Kcal/Mol)
 Warning -- explicit consideration of  16 degrees of freedom as
           vibrations may cause significant error
 Vibrational temperatures:    157.40   182.53   253.59   271.17   364.08
          (Kelvin)            408.17   425.94   433.03   485.36   533.46
                              593.20   636.56   727.88   770.20   807.24
                              838.78   921.55   971.96  1111.27  1145.32
                             1382.30  1616.15  1672.80  1741.60  1886.57
                             2017.91  2091.48  2205.21  5552.30

 Zero-point correction=                           0.050994 (Hartree/Particle)
 Thermal correction to Energy=                    0.060784
 Thermal correction to Enthalpy=                  0.061728
 Thermal correction to Gibbs Free Energy=         0.015918
 Sum of electronic and zero-point Energies=          -1199.713103
 Sum of electronic and thermal Energies=             -1199.703313
 Sum of electronic and thermal Enthalpies=           -1199.702368
 Sum of electronic and thermal Free Energies=        -1199.748178

                     E (Thermal)             CV                S
                      KCal/Mol        Cal/Mol-Kelvin    Cal/Mol-Kelvin
 Total                   38.142             35.611             96.414
 Electronic               0.000              0.000              0.000
 Translational            0.889              2.981             41.783
 Rotational               0.889              2.981             29.932
 Vibrational             36.365             29.649             24.699
 Vibration     1          0.606              1.942              3.280
 Vibration     2          0.611              1.926              2.993
 Vibration     3          0.628              1.872              2.368
 Vibration     4          0.633              1.856              2.243
 Vibration     5          0.664              1.758              1.709
 Vibration     6          0.682              1.704              1.511
 Vibration     7          0.690              1.681              1.439
 Vibration     8          0.693              1.672              1.411
 Vibration     9          0.718              1.601              1.225
 Vibration    10          0.743              1.532              1.077
 Vibration    11          0.776              1.444              0.919
 Vibration    12          0.802              1.378              0.819
 Vibration    13          0.861              1.237              0.644
 Vibration    14          0.890              1.172              0.575
 Vibration    15          0.917              1.116              0.522
 Vibration    16          0.940              1.068              0.480

 Normal termination of Gaussian 16 at Sat May 24 07:54:33 2025.
