 Gaussian 16, Revision C.01,
 Gaussian 16:  ES64L-G16RevC.01  3-Jul-2019

 ------------------------------------------
 #P am1 Symm(None) scf(xqc) pop(None) force
 ------------------------------------------

 ------------------------------
 Gaussian input prepared by ASE
 ------------------------------
 Symbolic Z-matrix:
 Charge =  0 Multiplicity = 1

                          Input orientation:
 ---------------------------------------------------------------------
 Center     Atomic      Atomic             Coordinates (Angstroms)
 Number     Number       Type             X           Y           Z
 ---------------------------------------------------------------------
      1          6           0       -0.675784   -1.191995    0.127678
      2          6           0       -0.026470    0.180960    0.468914
      3          9           0       -0.638303    1.165204   -0.187034
      4          9           0       -0.202145    0.485426    1.735170
      5         16           0        1.681929   -0.249538   -0.102482
      6          8           0        2.809633    0.015952    0.727220
      7          8           0        1.195081   -1.148222   -1.143113
      8          8           0        1.787594    1.112740   -0.978200
      9          9           0       -1.133452   -1.961324    0.998797
     10          9           0        1.244898   -1.755858    1.006968
     11          9           0       -1.010558   -1.576664   -1.023507
     12          1           0        2.415513    1.802919   -0.736203
 ---------------------------------------------------------------------

 SCF Done:  E(RAM1) =  0.392518910140     A.U. after   16 cycles
 Normal termination of Gaussian 16 at Sat May 24 07:26:29 2025.
