 Gaussian 16, Revision C.01,
 Gaussian 16:  ES64L-G16RevC.01  3-Jul-2019

 ----------------------------------------------------------------------
 #P M062X/Def2TZVPP Symm(None) scf(xqc) pop(None) opt(NoFreeze,TS,CalcA
 ll,NoEigentest,MaxCycle=999)
 ----------------------------------------------------------------------

 ------------------------------
 Gaussian input prepared by ASE
 ------------------------------
 Symbolic Z-matrix:
 Charge =  0 Multiplicity = 1

 SCF Done:  E(RM062X) =  -1199.74936215     A.U. after   15 cycles

 Isotropic polarizability for W=    0.000000       60.37 Bohr**3.
 End of Minotr F.D. properties file   721 does not exist.

 Optimization completed.
    -- Stationary point found.

                          Input orientation:
 ---------------------------------------------------------------------
 Center     Atomic      Atomic             Coordinates (Angstroms)
 Number     Number       Type             X           Y           Z
 ---------------------------------------------------------------------
      1          6           0       -1.345655   -1.045737    0.513575
      2          6           0        0.282444   -0.077162    0.245057
      3          9           0       -0.216046    0.625877   -0.769949
      4          9           0        0.225718    0.519176    1.420513
      5         16           0        2.118518   -0.124320   -0.150997
      6          8           0        2.799307   -0.643215    0.972935
      7          8           0        2.273530   -0.630560   -1.469304
      8          8           0        2.386927    1.435124   -0.178983
      9          9           0        0.285285   -1.734388    0.218926
     10          9           0       -1.656614   -1.618164    1.620744
     11          9           0       -2.016567   -1.585132   -0.440721
     12          1           0        2.311088    1.758088   -1.087596
 ---------------------------------------------------------------------

 ******    1 imaginary frequencies (negative Signs) ******

                      1                      2                      3
                      A                      A                      A
 Frequencies --   -663.4785                47.0553                73.8241
 Red. masses --     14.2477                16.6140                12.4881
 Frc consts  --      3.6953                 0.0217                 0.0401
 IR Inten    --     13.4403                 0.3241                 1.1585

                      4                      5                      6
                      A                      A                      A
 Frequencies --    112.3421               121.9383               220.4297
 Red. masses --     17.7092                12.5556                 9.8251
 Frc consts  --      0.1317                 0.1100                 0.2813
 IR Inten    --      0.7635                46.1699                 6.9687

                      7                      8                      9
                      A                      A                      A
 Frequencies --    243.3263               265.5079               281.9841
 Red. masses --     14.8571                 9.3654                18.5457
 Frc consts  --      0.5183                 0.3890                 0.8688
 IR Inten    --     43.5874                 0.3730                 1.7316

                     10                     11                     12
                      A                      A                      A
 Frequencies --    327.5893               331.4576               356.5432
 Red. masses --      1.9044                 6.8123                13.8810
 Frc consts  --      0.1204                 0.4410                 1.0397
 IR Inten    --     29.0481                72.6952                 9.0240

                     13                     14                     15
                      A                      A                      A
 Frequencies --    396.9804               438.3502               498.9645
 Red. masses --      5.1914                 6.4678                14.1671
 Frc consts  --      0.4820                 0.7322                 2.0781
 IR Inten    --     14.7065                11.2220                15.7938

                     16                     17                     18
                      A                      A                      A
 Frequencies --    503.9079               550.3607               612.8917
 Red. masses --      7.2999                16.0912                18.5905
 Frc consts  --      1.0921                 2.8717                 4.1144
 IR Inten    --     17.2300                70.8856               465.9105

                     19                     20                     21
                      A                      A                      A
 Frequencies --    668.0762               696.1027               786.9558
 Red. masses --     15.0539                17.1745                14.1540
 Frc consts  --      3.9587                 4.9032                 5.1645
 IR Inten    --     69.3220                 1.3654               478.0441

                     22                     23                     24
                      A                      A                      A
 Frequencies --    894.2640              1102.0540              1145.5778
 Red. masses --     16.9958                13.5778                 1.1898
 Frc consts  --      8.0080                 9.7159                 0.9199
 IR Inten    --     31.0617               333.6857                60.0423

                     25                     26                     27
                      A                      A                      A
 Frequencies --   1262.4294              1268.7607              1335.0990
 Red. masses --     15.8434                14.1096                13.5216
 Frc consts  --     14.8769                13.3821                14.2006
 IR Inten    --    122.2804                65.6572               320.6457

                     28                     29                     30
                      A                      A                      A
 Frequencies --   1339.6549              1496.3340              3819.7024
 Red. masses --     13.5899                14.9746                 1.0656
 Frc consts  --     14.3698                19.7544                 9.1605
 IR Inten    --    229.1912               300.9827               177.0040

 - Thermochemistry -
 -------------------
 Temperature   298.150 Kelvin.  Pressure   1.00000 Atm.
 Atom     1 has atomic number  6 and mass  12.00000

 Molecular mass:   199.95666 amu.
 Principal axes and moments of inertia in atomic units:
                           1         2         3
     Eigenvalues --   954.658102675.412322720.17654
           X            0.91325   0.20786  -0.35039
           Y            0.36603  -0.04098   0.92970
           Z           -0.17888   0.97730   0.11351
 This molecule is an asymmetric top.
 Rotational symmetry number  1.
 Warning -- assumption of classical behavior for rotation
           may cause significant error
 Rotational temperatures (Kelvin)      0.09073     0.03237     0.03184
 Rotational constants (GHZ):           1.89046     0.67457     0.66346
    1 imaginary frequencies ignored.
 Zero-point vibrational energy     126795.0 (Joules/Mol)
                                   30.30473 (Kcal/Mol)
 Warning -- explicit consideration of  17 degrees of freedom as
           vibrations may cause significant error
 Vibrational temperatures:     67.70   106.22   161.64   175.44   317.15
          (Kelvin)            350.09   382.01   405.71   471.33   476.89
                              512.99   571.17   630.69   717.90   725.01
                              791.85   881.81   961.21  1001.54  1132.25
                             1286.65  1585.61  1648.23  1816.35  1825.46
                             1920.91  1927.46  2152.89  5495.70

 Zero-point correction=                           0.048294 (Hartree/Particle)
 Thermal correction to Energy=                    0.059063
 Thermal correction to Enthalpy=                  0.060007
 Thermal correction to Gibbs Free Energy=         0.010940
 Sum of electronic and zero-point Energies=          -1199.701068
 Sum of electronic and thermal Energies=             -1199.690299
 Sum of electronic and thermal Enthalpies=           -1199.689355
 Sum of electronic and thermal Free Energies=        -1199.738422

                     E (Thermal)             CV                S
                      KCal/Mol        Cal/Mol-Kelvin    Cal/Mol-Kelvin
 Total                   37.062             37.198            103.269
 Electronic               0.000              0.000              0.000
 Translational            0.889              2.981             41.783
 Rotational               0.889              2.981             30.320
 Vibrational             35.285             31.236             31.166
 Vibration     1          0.595              1.979              4.937
 Vibration     2          0.599              1.966              4.049
 Vibration     3          0.607              1.939              3.228
 Vibration     4          0.609              1.931              3.069
 Vibration     5          0.647              1.810              1.956
 Vibration     6          0.659              1.774              1.778
 Vibration     7          0.671              1.736              1.625
 Vibration     8          0.681              1.707              1.522
 Vibration     9          0.711              1.620              1.272
 Vibration    10          0.714              1.613              1.253
 Vibration    11          0.732              1.562              1.137
 Vibration    12          0.763              1.477              0.974
 Vibration    13          0.799              1.387              0.832
 Vibration    14          0.854              1.252              0.661
 Vibration    15          0.859              1.241              0.648
 Vibration    16          0.906              1.139              0.543
 Vibration    17          0.972              1.005              0.428

 Normal termination of Gaussian 16 at Sat May 24 06:22:58 2025.
