 Gaussian 16, Revision C.01,
 Gaussian 16:  ES64L-G16RevC.01  3-Jul-2019

 ----------------------------------------------------------------------
 #P M062X/Def2TZVPP Symm(None) scf(xqc) pop(None) opt(NoFreeze,TS,CalcA
 ll,NoEigentest,MaxCycle=999)
 ----------------------------------------------------------------------

 ------------------------------
 Gaussian input prepared by ASE
 ------------------------------
 Symbolic Z-matrix:
 Charge =  0 Multiplicity = 1

 SCF Done:  E(RM062X) =  -1199.82761093     A.U. after   18 cycles
 SCF Done:  E(RM062X) =  -1199.83794123     A.U. after   14 cycles
 SCF Done:  E(RM062X) =  -1199.83893400     A.U. after   15 cycles
 SCF Done:  E(RM062X) =  -1199.83923807     A.U. after   13 cycles
 SCF Done:  E(RM062X) =  -1199.83930319     A.U. after   13 cycles
 SCF Done:  E(RM062X) =  -1199.83931129     A.U. after   10 cycles
 SCF Done:  E(RM062X) =  -1199.83931132     A.U. after    7 cycles

 Isotropic polarizability for W=    0.000000       57.63 Bohr**3.
 End of Minotr F.D. properties file   721 does not exist.

 Optimization completed.
    -- Stationary point found.

                          Input orientation:
 ---------------------------------------------------------------------
 Center     Atomic      Atomic             Coordinates (Angstroms)
 Number     Number       Type             X           Y           Z
 ---------------------------------------------------------------------
      1          6           0        1.687083   -0.643283   -1.262866
      2          6           0        1.967315    0.201189    0.006056
      3          9           0       -0.565229   -0.087068    0.288114
      4          9           0        2.022627   -0.465585    1.060772
      5         16           0        2.197867    2.019093    0.026638
      6          8           0        2.886817    2.285710    1.237120
      7          8           0        2.809539    2.309168   -1.220967
      8          8           0        0.745104    2.137037    0.067803
      9          9           0        0.944151    0.007628   -2.117969
     10          9           0        2.900393   -0.847372   -1.770628
     11          9           0        1.149143   -1.801987   -0.958219
     12          1           0       -0.542429    0.845094    0.266239
 ---------------------------------------------------------------------

 ******    1 imaginary frequencies (negative Signs) ******

                      1                      2                      3
                      A                      A                      A
 Frequencies --   -165.7653                48.1919                71.5656
 Red. masses --     14.4293                15.9753                16.5427
 Frc consts  --      0.2336                 0.0219                 0.0499
 IR Inten    --     12.7828                 0.3687                 0.2608

                      4                      5                      6
                      A                      A                      A
 Frequencies --    110.4962               128.1002               157.7251
 Red. masses --     16.5557                14.5979                16.2404
 Frc consts  --      0.1191                 0.1411                 0.2380
 IR Inten    --      1.7775                 1.7081                14.1310

                      7                      8                      9
                      A                      A                      A
 Frequencies --    211.1694               231.2216               235.5412
 Red. masses --     16.3174                15.8552                10.0622
 Frc consts  --      0.4287                 0.4994                 0.3289
 IR Inten    --      8.8623                 4.3469                12.1169

                     10                     11                     12
                      A                      A                      A
 Frequencies --    269.3223               316.0135               444.1985
 Red. masses --     18.0652                18.0388                13.7319
 Frc consts  --      0.7720                 1.0614                 1.5964
 IR Inten    --      0.7199                 0.2186                 4.4202

                     13                     14                     15
                      A                      A                      A
 Frequencies --    501.2170               514.0713               523.4461
 Red. masses --      1.2570                11.3814                 5.3946
 Frc consts  --      0.1860                 1.7721                 0.8709
 IR Inten    --     74.4346                57.3662                67.8519

                     16                     17                     18
                      A                      A                      A
 Frequencies --    533.6040               583.3395               596.6944
 Red. masses --     16.1564                 1.4792                 4.4444
 Frc consts  --      2.7104                 0.2966                 0.9323
 IR Inten    --      9.1457               283.1522                79.5765

                     19                     20                     21
                      A                      A                      A
 Frequencies --    606.5622               704.1585               769.5819
 Red. masses --     14.3771                 8.5601                16.1718
 Frc consts  --      3.1165                 2.5008                 5.6431
 IR Inten    --    132.0303                74.2390                13.5585

                     22                     23                     24
                      A                      A                      A
 Frequencies --    991.8220              1101.4795              1224.5197
 Red. masses --     13.6351                16.0344                13.2369
 Frc consts  --      7.9027                11.4618                11.6941
 IR Inten    --     70.2062                34.9845               177.7134

                     25                     26                     27
                      A                      A                      A
 Frequencies --   1307.8677              1337.5930              1354.6891
 Red. masses --     13.8943                16.9715                13.1639
 Frc consts  --     14.0028                17.8903                14.2336
 IR Inten    --     65.4256               412.4053               225.7031

                     28                     29                     30
                      A                      A                      A
 Frequencies --   1454.4329              1528.9203              3904.6338
 Red. masses --     20.2261                13.5159                 1.0585
 Frc consts  --     25.2087                18.6151                 9.5085
 IR Inten    --    257.7547               232.6433               272.1412

 - Thermochemistry -
 -------------------
 Temperature   298.150 Kelvin.  Pressure   1.00000 Atm.
 Atom     1 has atomic number  6 and mass  12.00000

 Molecular mass:   199.95666 amu.
 Principal axes and moments of inertia in atomic units:
                           1         2         3
     Eigenvalues --  1299.671002192.803982480.58519
           X            0.27814   0.76248   0.58418
           Y            0.88480   0.03333  -0.46477
           Z            0.37385  -0.64615   0.66537
 This molecule is an asymmetric top.
 Rotational symmetry number  1.
 Warning -- assumption of classical behavior for rotation
           may cause significant error
 Rotational temperatures (Kelvin)      0.06664     0.03950     0.03492
 Rotational constants (GHZ):           1.38861     0.82303     0.72755
    1 imaginary frequencies ignored.
 Zero-point vibrational energy     130166.7 (Joules/Mol)
                                   31.11060 (Kcal/Mol)
 Warning -- explicit consideration of  18 degrees of freedom as
           vibrations may cause significant error
 Vibrational temperatures:     69.34   102.97   158.98   184.31   226.93
          (Kelvin)            303.83   332.68   338.89   387.49   454.67
                              639.10   721.14   739.63   753.12   767.74
                              839.30   858.51   872.71  1013.13  1107.26
                             1427.01  1584.78  1761.81  1881.73  1924.50
                             1949.10  2092.60  2199.78  5617.90

 Zero-point correction=                           0.049578 (Hartree/Particle)
 Thermal correction to Energy=                    0.060408
 Thermal correction to Enthalpy=                  0.061353
 Thermal correction to Gibbs Free Energy=         0.011903
 Sum of electronic and zero-point Energies=          -1199.789733
 Sum of electronic and thermal Energies=             -1199.778903
 Sum of electronic and thermal Enthalpies=           -1199.777959
 Sum of electronic and thermal Free Energies=        -1199.827409

                     E (Thermal)             CV                S
                      KCal/Mol        Cal/Mol-Kelvin    Cal/Mol-Kelvin
 Total                   37.907             36.713            104.076
 Electronic               0.000              0.000              0.000
 Translational            0.889              2.981             41.783
 Rotational               0.889              2.981             30.337
 Vibrational             36.129             30.751             31.956
 Vibration     1          0.595              1.978              4.890
 Vibration     2          0.598              1.968              4.110
 Vibration     3          0.606              1.941              3.260
 Vibration     4          0.611              1.925              2.974
 Vibration     5          0.621              1.894              2.577
 Vibration     6          0.643              1.824              2.034
 Vibration     7          0.653              1.793              1.869
 Vibration     8          0.655              1.786              1.836
 Vibration     9          0.674              1.730              1.601
 Vibration    10          0.703              1.643              1.331
 Vibration    11          0.804              1.374              0.814
 Vibration    12          0.857              1.247              0.655
 Vibration    13          0.869              1.219              0.624
 Vibration    14          0.878              1.198              0.602
 Vibration    15          0.889              1.176              0.579
 Vibration    16          0.940              1.067              0.479
 Vibration    17          0.955              1.039              0.455
 Vibration    18          0.965              1.018              0.439

 Normal termination of Gaussian 16 at Sat May 24 10:34:27 2025.
