 Gaussian 16, Revision C.01,
 Gaussian 16:  ES64L-G16RevC.01  3-Jul-2019

 ----------------------------------------------------------------------
 #P M062X/Def2TZVPP Symm(None) scf(xqc) pop(None) freq opt(CalcFC, Tigh
 t)
 ----------------------------------------------------------------------

 ------------------------------
 Gaussian input prepared by ASE
 ------------------------------
 Symbolic Z-matrix:
 Charge =  0 Multiplicity = 1

 SCF Done:  E(RM062X) =  -1199.93279619     A.U. after   13 cycles
 SCF Done:  E(RM062X) =  -1199.93913412     A.U. after   13 cycles
 SCF Done:  E(RM062X) =  -1199.93990499     A.U. after   10 cycles
 SCF Done:  E(RM062X) =  -1199.94013850     A.U. after   10 cycles
 SCF Done:  E(RM062X) =  -1199.94031153     A.U. after   10 cycles
 SCF Done:  E(RM062X) =  -1199.94045057     A.U. after   10 cycles
 SCF Done:  E(RM062X) =  -1199.94051009     A.U. after    9 cycles
 SCF Done:  E(RM062X) =  -1199.94056585     A.U. after    9 cycles
 SCF Done:  E(RM062X) =  -1199.94056699     A.U. after    7 cycles
 SCF Done:  E(RM062X) =  -1199.94056705     A.U. after    6 cycles
 SCF Done:  E(RM062X) =  -1199.94056705     A.U. after    4 cycles
 Optimization completed.
    -- Stationary point found.
 Normal termination of Gaussian 16 at Fri May 23 23:52:54 2025.

 ---------------------------------------------------------------------
 #P Geom=AllCheck Guess=TCheck SCRF=Check GenChk RM062X/def2TZVPP Freq
 ---------------------------------------------------------------------

 Structure from the checkpoint file:  "/tmp/Gau-265095.chk"
 ------------------------------
 Gaussian input prepared by ASE
 ------------------------------
 Charge =  0 Multiplicity = 1

                          Input orientation:
 ---------------------------------------------------------------------
 Center     Atomic      Atomic             Coordinates (Angstroms)
 Number     Number       Type             X           Y           Z
 ---------------------------------------------------------------------
      1          6           0       -0.701242    0.364549   -1.318108
      2          6           0       -0.053579   -0.050340    0.024364
      3          9           0       -0.530086    0.732452    0.990648
      4          9           0       -0.374373   -1.317359    0.276195
      5         16           0        1.788999    0.063307    0.029180
      6          8           0        2.210342   -0.481139    1.261045
      7          8           0        2.237759   -0.402196   -1.234770
      8          8           0        1.986687    1.618091    0.114805
      9          9           0       -0.203515    1.539620   -1.714087
     10          9           0       -0.471559   -0.535005   -2.252285
     11          9           0       -2.006710    0.496276   -1.153006
     12          1           0        2.018310    2.002027   -0.773771
 ---------------------------------------------------------------------

 SCF Done:  E(RM062X) =  -1199.94056705     A.U. after    1 cycles

 Isotropic polarizability for W=    0.000000       53.45 Bohr**3.
 End of Minotr F.D. properties file   721 does not exist.

                      1                      2                      3
                      A                      A                      A
 Frequencies --     57.4950                74.2970               144.4003
 Red. masses --     12.9081                16.2538                12.7809
 Frc consts  --      0.0251                 0.0529                 0.1570
 IR Inten    --      1.7405                 0.8211                 3.6182

                      4                      5                      6
                      A                      A                      A
 Frequencies --    204.1541               224.5684               242.5579
 Red. masses --     12.3906                15.7388                11.2241
 Frc consts  --      0.3043                 0.4676                 0.3891
 IR Inten    --      4.9796                 2.4209                 1.8135

                      7                      8                      9
                      A                      A                      A
 Frequencies --    288.3191               312.7066               323.1452
 Red. masses --     17.5516                 8.3804                 9.5582
 Frc consts  --      0.8596                 0.4828                 0.5881
 IR Inten    --      3.5263                 8.4752                 7.4293

                     10                     11                     12
                      A                      A                      A
 Frequencies --    356.4971               389.6233               448.7548
 Red. masses --      2.4539                 3.2830                13.9664
 Frc consts  --      0.1837                 0.2936                 1.6571
 IR Inten    --     46.7985                36.9494                 8.7335

                     13                     14                     15
                      A                      A                      A
 Frequencies --    475.2164               529.8142               542.6044
 Red. masses --      3.7214                16.4478                17.6082
 Frc consts  --      0.4951                 2.7202                 3.0544
 IR Inten    --     34.3565                13.1517                24.0456

                     16                     17                     18
                      A                      A                      A
 Frequencies --    608.5886               630.6524               665.6272
 Red. masses --     17.7082                19.9982                15.9938
 Frc consts  --      3.8643                 4.6862                 4.1751
 IR Inten    --      3.0736               110.6874                49.9944

                     19                     20                     21
                      A                      A                      A
 Frequencies --    779.9482               904.6996              1036.5112
 Red. masses --     17.4539                16.7595                12.6156
 Frc consts  --      6.2557                 8.0820                 7.9856
 IR Inten    --     10.3977               182.7373                83.2292

                     22                     23                     24
                      A                      A                      A
 Frequencies --   1146.6874              1198.5834              1259.0852
 Red. masses --      1.1982                13.4528                14.4409
 Frc consts  --      0.9283                11.3868                13.4882
 IR Inten    --    123.1746               144.2769                57.7090

                     25                     26                     27
                      A                      A                      A
 Frequencies --   1274.3106              1277.5434              1313.9987
 Red. masses --     12.4794                14.4970                13.3732
 Frc consts  --     11.9397                13.9405                13.6042
 IR Inten    --    252.0510                79.2711               347.1583

                     28                     29                     30
                      A                      A                      A
 Frequencies --   1393.3100              1501.2910              3803.4687
 Red. masses --     12.7107                15.2510                 1.0656
 Frc consts  --     14.5383                20.2525                 9.0824
 IR Inten    --     97.6536               279.8245               173.5500

 - Thermochemistry -
 -------------------
 Temperature   298.150 Kelvin.  Pressure   1.00000 Atm.
 Atom     1 has atomic number  6 and mass  12.00000

 Molecular mass:   199.95666 amu.
 Principal axes and moments of inertia in atomic units:
                           1         2         3
     Eigenvalues --  1137.798562085.958652235.72948
           X            0.88414  -0.44966  -0.12692
           Y           -0.05981  -0.37833   0.92373
           Z            0.46338   0.80912   0.36140
 This molecule is an asymmetric top.
 Rotational symmetry number  1.
 Warning -- assumption of classical behavior for rotation
           may cause significant error
 Rotational temperatures (Kelvin)      0.07612     0.04152     0.03874
 Rotational constants (GHZ):           1.58617     0.86519     0.80723
 Zero-point vibrational energy     140013.7 (Joules/Mol)
                                   33.46407 (Kcal/Mol)
 Warning -- explicit consideration of  16 degrees of freedom as
           vibrations may cause significant error
 Vibrational temperatures:     82.72   106.90   207.76   293.73   323.10
          (Kelvin)            348.99   414.83   449.91   464.93   512.92
                              560.58   645.66   683.73   762.28   780.69
                              875.62   907.37   957.69  1122.17  1301.66
                             1491.31  1649.83  1724.49  1811.54  1833.45
                             1838.10  1890.55  2004.66  2160.02  5472.34

 Zero-point correction=                           0.053328 (Hartree/Particle)
 Thermal correction to Energy=                    0.063498
 Thermal correction to Enthalpy=                  0.064442
 Thermal correction to Gibbs Free Energy=         0.017042
 Sum of electronic and zero-point Energies=          -1199.887239
 Sum of electronic and thermal Energies=             -1199.877069
 Sum of electronic and thermal Enthalpies=           -1199.876125
 Sum of electronic and thermal Free Energies=        -1199.923525

                     E (Thermal)             CV                S
                      KCal/Mol        Cal/Mol-Kelvin    Cal/Mol-Kelvin
 Total                   39.845             35.917             99.762
 Electronic               0.000              0.000              0.000
 Translational            0.889              2.981             41.783
 Rotational               0.889              2.981             30.052
 Vibrational             38.068             29.956             27.927
 Vibration     1          0.596              1.975              4.541
 Vibration     2          0.599              1.966              4.036
 Vibration     3          0.616              1.909              2.745
 Vibration     4          0.640              1.834              2.095
 Vibration     5          0.649              1.804              1.922
 Vibration     6          0.659              1.775              1.784
 Vibration     7          0.685              1.695              1.484
 Vibration     8          0.701              1.649              1.348
 Vibration     9          0.708              1.629              1.294
 Vibration    10          0.732              1.562              1.137
 Vibration    11          0.758              1.492              1.002
 Vibration    12          0.808              1.364              0.800
 Vibration    13          0.832              1.305              0.723
 Vibration    14          0.885              1.184              0.588
 Vibration    15          0.898              1.156              0.560
 Vibration    16          0.967              1.014              0.435

 Optimization completed.
    -- Stationary point found.
 Normal termination of Gaussian 16 at Fri May 23 23:56:49 2025.
