 Gaussian 16, Revision C.01,
 Gaussian 16:  ES64L-G16RevC.01  3-Jul-2019

 ----------------------------------------------------------------------
 #P M062X/Def2TZVPP Symm(None) scf(xqc) pop(None) opt(NoFreeze,TS,CalcA
 ll,NoEigentest,MaxCycle=999)
 ----------------------------------------------------------------------

 ------------------------------
 Gaussian input prepared by ASE
 ------------------------------
 Symbolic Z-matrix:
 Charge =  0 Multiplicity = 1

 SCF Done:  E(RM062X) =  -1199.76409493     A.U. after   16 cycles

 Isotropic polarizability for W=    0.000000       59.18 Bohr**3.
 End of Minotr F.D. properties file   721 does not exist.

 Optimization completed.
    -- Stationary point found.

                          Input orientation:
 ---------------------------------------------------------------------
 Center     Atomic      Atomic             Coordinates (Angstroms)
 Number     Number       Type             X           Y           Z
 ---------------------------------------------------------------------
      1          6           0       -0.165192   -0.850258    1.293448
      2          6           0        0.000000    0.000000    0.000000
      3          9           0       -0.632391   -0.529849   -1.022983
      4          9           0       -0.551995    1.181800    0.268207
      5         16           0        1.852326    0.000000    0.000000
      6          8           0        2.012139   -0.246059    1.428776
      7          8           0        2.710224   -0.292606   -1.099630
      8          8           0        1.936778    1.620807    0.000000
      9          9           0        1.237336   -1.817354   -0.078374
     10          9           0       -0.286755   -0.254193    2.395684
     11          9           0       -0.636522   -2.006150    1.334456
     12          1           0        2.457649    1.883546   -0.767358
 ---------------------------------------------------------------------

 ******    1 imaginary frequencies (negative Signs) ******

                      1                      2                      3
                      A                      A                      A
 Frequencies --   -334.0424               109.0290               127.5042
 Red. masses --     15.7015                12.3404                15.1582
 Frc consts  --      1.0323                 0.0864                 0.1452
 IR Inten    --     20.2582                 5.1633               202.0390

                      4                      5                      6
                      A                      A                      A
 Frequencies --    175.7084               188.0152               252.8981
 Red. masses --     15.4906                12.2420                17.8000
 Frc consts  --      0.2818                 0.2550                 0.6708
 IR Inten    --      1.4216                 6.8205                 5.8350

                      7                      8                      9
                      A                      A                      A
 Frequencies --    283.5034               295.8427               300.8882
 Red. masses --     15.2203                13.5726                12.3365
 Frc consts  --      0.7208                 0.6999                 0.6580
 IR Inten    --     14.8621                 4.5260                31.2253

                     10                     11                     12
                      A                      A                      A
 Frequencies --    336.5475               369.8541               412.3367
 Red. masses --      1.9539                 2.8894                16.6661
 Frc consts  --      0.1304                 0.2329                 1.6695
 IR Inten    --     76.6025                23.5148                52.6509

                     13                     14                     15
                      A                      A                      A
 Frequencies --    442.7014               506.0859               535.3897
 Red. masses --     13.1107                 6.9590                 9.3293
 Frc consts  --      1.5139                 1.0501                 1.5756
 IR Inten    --     50.6288                 5.5666                 9.7553

                     16                     17                     18
                      A                      A                      A
 Frequencies --    560.7861               582.7269               640.5228
 Red. masses --     13.8179                17.5274                14.4214
 Frc consts  --      2.5603                 3.5067                 3.4860
 IR Inten    --     94.7431                57.3245                56.0435

                     19                     20                     21
                      A                      A                      A
 Frequencies --    675.2409               772.3168               795.8237
 Red. masses --     14.5360                16.3520                15.9601
 Frc consts  --      3.9049                 5.7466                 5.9555
 IR Inten    --     38.6783                34.1625               245.2177

                     22                     23                     24
                      A                      A                      A
 Frequencies --    960.8083              1123.6536              1162.0113
 Red. masses --     13.0473                11.4457                 1.3025
 Frc consts  --      7.0965                 8.5144                 1.0362
 IR Inten    --     14.3984               182.5820               162.4294

                     25                     26                     27
                      A                      A                      A
 Frequencies --   1211.2260              1310.6453              1401.9961
 Red. masses --     13.1001                12.7656                10.1189
 Frc consts  --     11.3234                12.9200                11.7186
 IR Inten    --     93.6026               152.9166               372.3050

                     28                     29                     30
                      A                      A                      A
 Frequencies --   1453.7103              1531.4705              3859.6560
 Red. masses --     13.3001                13.4242                 1.0658
 Frc consts  --     16.5601                18.5505                 9.3544
 IR Inten    --    228.6647               376.1985               160.3070

 - Thermochemistry -
 -------------------
 Temperature   298.150 Kelvin.  Pressure   1.00000 Atm.
 Atom     1 has atomic number  6 and mass  12.00000

 Molecular mass:   199.95666 amu.
 Principal axes and moments of inertia in atomic units:
                           1         2         3
     Eigenvalues --  1229.979381904.736392007.16647
           X            0.79004  -0.38776   0.47485
           Y            0.37830   0.91786   0.12010
           Z           -0.48241   0.08475   0.87183
 This molecule is an asymmetric top.
 Rotational symmetry number  1.
 Warning -- assumption of classical behavior for rotation
           may cause significant error
 Rotational temperatures (Kelvin)      0.07042     0.04547     0.04315
 Rotational constants (GHZ):           1.46729     0.94750     0.89915
    1 imaginary frequencies ignored.
 Zero-point vibrational energy     133855.5 (Joules/Mol)
                                   31.99224 (Kcal/Mol)
 Warning -- explicit consideration of  16 degrees of freedom as
           vibrations may cause significant error
 Vibrational temperatures:    156.87   183.45   252.81   270.51   363.86
          (Kelvin)            407.90   425.65   432.91   484.22   532.14
                              593.26   636.95   728.14   770.31   806.85
                              838.41   921.57   971.52  1111.19  1145.01
                             1382.39  1616.69  1671.88  1742.68  1885.73
                             2017.16  2091.56  2203.44  5553.18

 Zero-point correction=                           0.050983 (Hartree/Particle)
 Thermal correction to Energy=                    0.060777
 Thermal correction to Enthalpy=                  0.061721
 Thermal correction to Gibbs Free Energy=         0.015903
 Sum of electronic and zero-point Energies=          -1199.713112
 Sum of electronic and thermal Energies=             -1199.703318
 Sum of electronic and thermal Enthalpies=           -1199.702374
 Sum of electronic and thermal Free Energies=        -1199.748192

                     E (Thermal)             CV                S
                      KCal/Mol        Cal/Mol-Kelvin    Cal/Mol-Kelvin
 Total                   38.138             35.618             96.433
 Electronic               0.000              0.000              0.000
 Translational            0.889              2.981             41.783
 Rotational               0.889              2.981             29.932
 Vibrational             36.361             29.656             24.718
 Vibration     1          0.606              1.942              3.286
 Vibration     2          0.611              1.926              2.983
 Vibration     3          0.628              1.872              2.374
 Vibration     4          0.633              1.856              2.247
 Vibration     5          0.664              1.758              1.710
 Vibration     6          0.682              1.704              1.512
 Vibration     7          0.690              1.681              1.440
 Vibration     8          0.693              1.672              1.412
 Vibration     9          0.717              1.603              1.228
 Vibration    10          0.742              1.534              1.080
 Vibration    11          0.776              1.443              0.918
 Vibration    12          0.802              1.377              0.818
 Vibration    13          0.861              1.237              0.643
 Vibration    14          0.890              1.172              0.575
 Vibration    15          0.916              1.116              0.522
 Vibration    16          0.940              1.069              0.480

 Normal termination of Gaussian 16 at Sat May 24 06:06:51 2025.
