 Gaussian 16, Revision C.01,
 Gaussian 16:  ES64L-G16RevC.01  3-Jul-2019

 ----------------------------------------------------------------------
 #P M062X/Def2TZVPP Symm(None) scf(xqc) pop(None) freq opt(CalcFC, Tigh
 t)
 ----------------------------------------------------------------------

 ------------------------------
 Gaussian input prepared by ASE
 ------------------------------
 Symbolic Z-matrix:
 Charge =  0 Multiplicity = 1

 SCF Done:  E(RM062X) =  -1199.94055684     A.U. after   13 cycles
 SCF Done:  E(RM062X) =  -1199.94055735     A.U. after    8 cycles
 SCF Done:  E(RM062X) =  -1199.94055735     A.U. after    3 cycles
 Optimization completed.
    -- Stationary point found.
 Normal termination of Gaussian 16 at Fri May 23 23:47:31 2025.

 ---------------------------------------------------------------------
 #P Geom=AllCheck Guess=TCheck SCRF=Check GenChk RM062X/def2TZVPP Freq
 ---------------------------------------------------------------------

 Structure from the checkpoint file:  "/tmp/Gau-12833.chk"
 ------------------------------
 Gaussian input prepared by ASE
 ------------------------------
 Charge =  0 Multiplicity = 1

                          Input orientation:
 ---------------------------------------------------------------------
 Center     Atomic      Atomic             Coordinates (Angstroms)
 Number     Number       Type             X           Y           Z
 ---------------------------------------------------------------------
      1          6           0       -0.648533    0.386120   -1.349064
      2          6           0        0.000230   -0.001192   -0.000058
      3          9           0       -0.405513    0.863836    0.936828
      4          9           0       -0.398349   -1.226985    0.328569
      5         16           0        1.844711   -0.001130    0.000962
      6          8           0        2.227039   -0.541483    1.255536
      7          8           0        2.277003   -0.516348   -1.240764
      8          8           0        2.127179    1.543798   -0.004093
      9          9           0       -0.155887    1.538132   -1.780166
     10          9           0       -0.435740   -0.551068   -2.252390
     11          9           0       -1.955585    0.520135   -1.167109
     12          1           0        2.165661    1.880691    0.902856
 ---------------------------------------------------------------------

 SCF Done:  E(RM062X) =  -1199.94055735     A.U. after    1 cycles

 Isotropic polarizability for W=    0.000000       53.50 Bohr**3.
 End of Minotr F.D. properties file   721 does not exist.

                      1                      2                      3
                      A                      A                      A
 Frequencies --     47.1197                71.3368               135.1301
 Red. masses --     13.5529                15.6849                16.2620
 Frc consts  --      0.0177                 0.0470                 0.1750
 IR Inten    --      2.0164                 0.6230                 0.6207

                      4                      5                      6
                      A                      A                      A
 Frequencies --    191.1824               223.6941               242.2754
 Red. masses --      5.2022                17.1475                14.4446
 Frc consts  --      0.1120                 0.5055                 0.4995
 IR Inten    --     15.6822                 1.3816                 7.4828

                      7                      8                      9
                      A                      A                      A
 Frequencies --    286.1597               315.4206               321.1538
 Red. masses --      9.8347                16.6098                 4.3195
 Frc consts  --      0.4745                 0.9736                 0.2625
 IR Inten    --      1.1775                 0.1780                17.0679

                     10                     11                     12
                      A                      A                      A
 Frequencies --    348.1989               378.3090               446.8057
 Red. masses --      2.2099                 8.3697                14.2933
 Frc consts  --      0.1579                 0.7058                 1.6812
 IR Inten    --     45.3405                 6.6931                11.1969

                     13                     14                     15
                      A                      A                      A
 Frequencies --    473.4085               529.1753               542.8575
 Red. masses --      4.4477                14.4643                17.8884
 Frc consts  --      0.5873                 2.3864                 3.1059
 IR Inten    --     30.0689                17.5024                20.3428

                     16                     17                     18
                      A                      A                      A
 Frequencies --    609.7408               630.4144               664.3787
 Red. masses --     17.2581                19.2948                17.3930
 Frc consts  --      3.7804                 4.5180                 4.5233
 IR Inten    --      5.3472               109.2117                47.5225

                     19                     20                     21
                      A                      A                      A
 Frequencies --    781.3868               905.3210              1040.8722
 Red. masses --     17.3598                16.7425                13.6256
 Frc consts  --      6.2449                 8.0849                 8.6976
 IR Inten    --     11.4590               186.5496                96.8675

                     22                     23                     24
                      A                      A                      A
 Frequencies --   1141.8158              1196.5923              1256.2314
 Red. masses --      1.1856                13.9764                13.8636
 Frc consts  --      0.9107                11.7907                12.8904
 IR Inten    --     88.1771               127.7222                42.4989

                     25                     26                     27
                      A                      A                      A
 Frequencies --   1275.6154              1287.2098              1311.2591
 Red. masses --     14.8317                13.5227                13.3451
 Frc consts  --     14.2194                13.2012                13.5192
 IR Inten    --    192.2381               196.2812               365.3483

                     28                     29                     30
                      A                      A                      A
 Frequencies --   1390.9760              1502.5690              3808.5216
 Red. masses --     12.6915                15.3699                 1.0657
 Frc consts  --     14.4678                20.4452                 9.1072
 IR Inten    --     82.0866               279.6540               190.3553

 - Thermochemistry -
 -------------------
 Temperature   298.150 Kelvin.  Pressure   1.00000 Atm.
 Atom     1 has atomic number  6 and mass  12.00000

 Molecular mass:   199.95666 amu.
 Principal axes and moments of inertia in atomic units:
                           1         2         3
     Eigenvalues --  1131.840842108.631542245.54782
           X            0.88178  -0.46804  -0.05837
           Y           -0.08541  -0.28015   0.95615
           Z            0.46387   0.83812   0.28701
 This molecule is an asymmetric top.
 Rotational symmetry number  1.
 Warning -- assumption of classical behavior for rotation
           may cause significant error
 Rotational temperatures (Kelvin)      0.07652     0.04108     0.03857
 Rotational constants (GHZ):           1.59452     0.85588     0.80370
 Zero-point vibrational energy     139694.7 (Joules/Mol)
                                   33.38784 (Kcal/Mol)
 Warning -- explicit consideration of  16 degrees of freedom as
           vibrations may cause significant error
 Vibrational temperatures:     67.79   102.64   194.42   275.07   321.85
          (Kelvin)            348.58   411.72   453.82   462.07   500.98
                              544.30   642.85   681.13   761.37   781.05
                              877.28   907.03   955.89  1124.24  1302.56
                             1497.58  1642.82  1721.63  1807.44  1835.33
                             1852.01  1886.61  2001.30  2161.86  5479.61

 Zero-point correction=                           0.053207 (Hartree/Particle)
 Thermal correction to Energy=                    0.063468
 Thermal correction to Enthalpy=                  0.064412
 Thermal correction to Gibbs Free Energy=         0.016613
 Sum of electronic and zero-point Energies=          -1199.887350
 Sum of electronic and thermal Energies=             -1199.877090
 Sum of electronic and thermal Enthalpies=           -1199.876146
 Sum of electronic and thermal Free Energies=        -1199.923945

                     E (Thermal)             CV                S
                      KCal/Mol        Cal/Mol-Kelvin    Cal/Mol-Kelvin
 Total                   39.827             36.001            100.602
 Electronic               0.000              0.000              0.000
 Translational            0.889              2.981             41.783
 Rotational               0.889              2.981             30.062
 Vibrational             38.049             30.039             28.757
 Vibration     1          0.595              1.979              4.935
 Vibration     2          0.598              1.968              4.116
 Vibration     3          0.613              1.918              2.872
 Vibration     4          0.634              1.852              2.216
 Vibration     5          0.649              1.805              1.929
 Vibration     6          0.658              1.776              1.786
 Vibration     7          0.684              1.699              1.497
 Vibration     8          0.703              1.644              1.334
 Vibration     9          0.707              1.633              1.304
 Vibration    10          0.726              1.579              1.174
 Vibration    11          0.749              1.516              1.046
 Vibration    12          0.806              1.368              0.805
 Vibration    13          0.830              1.309              0.728
 Vibration    14          0.884              1.185              0.589
 Vibration    15          0.898              1.155              0.559
 Vibration    16          0.969              1.011              0.433

 Optimization completed.
    -- Stationary point found.
 Normal termination of Gaussian 16 at Fri May 23 23:51:12 2025.
