 Gaussian 16, Revision C.01,
 Gaussian 16:  ES64L-G16RevC.01  3-Jul-2019

 ----------------------------------------------------------------------
 #P M062X/Def2TZVPP Symm(None) scf(xqc) pop(None) opt(NoFreeze,TS,CalcA
 ll,NoEigentest,MaxCycle=999)
 ----------------------------------------------------------------------

 ------------------------------
 Gaussian input prepared by ASE
 ------------------------------
 Symbolic Z-matrix:
 Charge =  0 Multiplicity = 1

 SCF Done:  E(RM062X) =  -1199.72406045     A.U. after   19 cycles
 SCF Done:  E(RM062X) =  -1199.74612336     A.U. after   15 cycles
 SCF Done:  E(RM062X) =  -1199.76373171     A.U. after   14 cycles
 SCF Done:  E(RM062X) =  -1199.77164632     A.U. after   14 cycles
 SCF Done:  E(RM062X) =  -1199.77238207     A.U. after   13 cycles
 SCF Done:  E(RM062X) =  -1199.77241176     A.U. after   12 cycles
 SCF Done:  E(RM062X) =  -1199.77241288     A.U. after   10 cycles

 Isotropic polarizability for W=    0.000000       66.82 Bohr**3.
 End of Minotr F.D. properties file   721 does not exist.

 Optimization completed.
    -- Stationary point found.

                          Input orientation:
 ---------------------------------------------------------------------
 Center     Atomic      Atomic             Coordinates (Angstroms)
 Number     Number       Type             X           Y           Z
 ---------------------------------------------------------------------
      1          6           0       -0.232434   -1.293469   -0.018252
      2          6           0        0.157355    0.057096   -0.019267
      3          9           0       -0.111348    0.725410   -1.131163
      4          9           0       -0.130206    0.736189    1.072375
      5         16           0        2.403009   -0.190428    0.023738
      6          8           0        2.813513   -0.353205    1.372526
      7          8           0        3.098674   -0.343039   -1.214860
      8          8           0        2.174185    1.432893    0.006692
      9          9           0        1.803267   -1.876462   -0.077495
     10          9           0       -0.426432   -1.931591    1.057138
     11          9           0       -0.463787   -1.932525   -1.086997
     12          1           0        2.305925    1.728992   -0.903483
 ---------------------------------------------------------------------

 ******    1 imaginary frequencies (negative Signs) ******

                      1                      2                      3
                      A                      A                      A
 Frequencies --   -550.7680                30.0035                72.3747
 Red. masses --     12.9061                15.4902                12.4825
 Frc consts  --      2.3067                 0.0082                 0.0385
 IR Inten    --    165.1448                 1.2260                 2.2086

                      4                      5                      6
                      A                      A                      A
 Frequencies --    173.2934               188.5025               206.7592
 Red. masses --     17.7686                17.9092                18.7228
 Frc consts  --      0.3144                 0.3749                 0.4716
 IR Inten    --      3.6745                29.3534                 1.2151

                      7                      8                      9
                      A                      A                      A
 Frequencies --    229.9556               242.9121               294.4495
 Red. masses --     16.7646                17.2642                10.4907
 Frc consts  --      0.5223                 0.6002                 0.5359
 IR Inten    --      1.9044                 1.8217                 8.0621

                     10                     11                     12
                      A                      A                      A
 Frequencies --    341.7431               398.7199               409.1759
 Red. masses --     13.8455                 7.0555                 1.7932
 Frc consts  --      0.9527                 0.6609                 0.1769
 IR Inten    --     11.5063                 3.8740                35.8275

                     13                     14                     15
                      A                      A                      A
 Frequencies --    464.1661               478.0824               522.1212
 Red. masses --     11.0506                 6.3054                 5.1447
 Frc consts  --      1.4028                 0.8491                 0.8263
 IR Inten    --     24.7238               278.0868                14.9285

                     16                     17                     18
                      A                      A                      A
 Frequencies --    547.4946               556.6908               603.3717
 Red. masses --      7.4793                14.7790                15.5691
 Frc consts  --      1.3209                 2.6985                 3.3395
 IR Inten    --    271.9988                 8.8922                83.7604

                     19                     20                     21
                      A                      A                      A
 Frequencies --    614.3302               665.7727               765.4218
 Red. masses --     15.7752                13.3562                16.2171
 Frc consts  --      3.5078                 3.4881                 5.5979
 IR Inten    --      9.8683                 2.3847               199.1760

                     22                     23                     24
                      A                      A                      A
 Frequencies --    834.8724              1143.8868              1182.8611
 Red. masses --     17.4211                 6.3183                 1.3666
 Frc consts  --      7.1543                 4.8710                 1.1265
 IR Inten    --     62.0279               197.6619               112.0068

                     25                     26                     27
                      A                      A                      A
 Frequencies --   1244.5469              1346.1911              1466.1367
 Red. masses --     13.9953                13.1930                12.4886
 Frc consts  --     12.7719                14.0866                15.8166
 IR Inten    --    336.9813               133.4086               198.2510

                     28                     29                     30
                      A                      A                      A
 Frequencies --   1533.8000              1620.3153              3831.3479
 Red. masses --     13.2558                12.5048                 1.0657
 Frc consts  --     18.3735                19.3431                 9.2172
 IR Inten    --    313.1864               619.2020               158.4650

 - Thermochemistry -
 -------------------
 Temperature   298.150 Kelvin.  Pressure   1.00000 Atm.
 Atom     1 has atomic number  6 and mass  12.00000

 Molecular mass:   199.95666 amu.
 Principal axes and moments of inertia in atomic units:
                           1         2         3
     Eigenvalues --  1290.679961971.604742230.04249
           X            0.90706  -0.42098  -0.00330
           Y            0.42098   0.90707  -0.00152
           Z            0.00364  -0.00001   0.99999
 This molecule is an asymmetric top.
 Rotational symmetry number  1.
 Warning -- assumption of classical behavior for rotation
           may cause significant error
 Rotational temperatures (Kelvin)      0.06711     0.04393     0.03884
 Rotational constants (GHZ):           1.39829     0.91537     0.80929
    1 imaginary frequencies ignored.
 Zero-point vibrational energy     131644.8 (Joules/Mol)
                                   31.46387 (Kcal/Mol)
 Warning -- explicit consideration of  18 degrees of freedom as
           vibrations may cause significant error
 Vibrational temperatures:     43.17   104.13   249.33   271.21   297.48
          (Kelvin)            330.85   349.50   423.65   491.69   573.67
                              588.71   667.83   687.85   751.22   787.72
                              800.95   868.12   883.88   957.90  1101.27
                             1201.20  1645.80  1701.87  1790.63  1936.87
                             2109.44  2206.80  2331.27  5512.46

 Zero-point correction=                           0.050141 (Hartree/Particle)
 Thermal correction to Energy=                    0.060542
 Thermal correction to Enthalpy=                  0.061486
 Thermal correction to Gibbs Free Energy=         0.013156
 Sum of electronic and zero-point Energies=          -1199.722272
 Sum of electronic and thermal Energies=             -1199.711871
 Sum of electronic and thermal Enthalpies=           -1199.710927
 Sum of electronic and thermal Free Energies=        -1199.759257

                     E (Thermal)             CV                S
                      KCal/Mol        Cal/Mol-Kelvin    Cal/Mol-Kelvin
 Total                   37.990             36.534            101.718
 Electronic               0.000              0.000              0.000
 Translational            0.889              2.981             41.783
 Rotational               0.889              2.981             30.119
 Vibrational             36.213             30.572             29.816
 Vibration     1          0.594              1.984              5.829
 Vibration     2          0.598              1.967              4.088
 Vibration     3          0.627              1.875              2.399
 Vibration     4          0.633              1.856              2.243
 Vibration     5          0.641              1.830              2.072
 Vibration     6          0.652              1.795              1.879
 Vibration     7          0.659              1.774              1.781
 Vibration     8          0.689              1.684              1.448
 Vibration     9          0.721              1.592              1.204
 Vibration    10          0.765              1.473              0.967
 Vibration    11          0.774              1.450              0.930
 Vibration    12          0.822              1.330              0.754
 Vibration    13          0.835              1.299              0.715
 Vibration    14          0.877              1.201              0.605
 Vibration    15          0.903              1.145              0.549
 Vibration    16          0.912              1.125              0.530
 Vibration    17          0.962              1.025              0.444
 Vibration    18          0.974              1.002              0.426

 Normal termination of Gaussian 16 at Sat May 24 10:14:57 2025.
