 Gaussian 16, Revision C.01,
 Gaussian 16:  ES64L-G16RevC.01  3-Jul-2019

 ----------------------------------------------------------------------
 #P M062X/Def2TZVPP Symm(None) scf(xqc) pop(None) opt(NoFreeze,TS,CalcA
 ll,NoEigentest,MaxCycle=999)
 ----------------------------------------------------------------------

 ------------------------------
 Gaussian input prepared by ASE
 ------------------------------
 Symbolic Z-matrix:
 Charge =  0 Multiplicity = 1

 SCF Done:  E(RM062X) =  -1199.72755099     A.U. after   16 cycles
 SCF Done:  E(RM062X) =  -1199.74851505     A.U. after   15 cycles
 SCF Done:  E(RM062X) =  -1199.75835028     A.U. after   14 cycles
 SCF Done:  E(RM062X) =  -1199.76306572     A.U. after   14 cycles
 SCF Done:  E(RM062X) =  -1199.76387915     A.U. after   13 cycles
 SCF Done:  E(RM062X) =  -1199.76454906     A.U. after   14 cycles
 SCF Done:  E(RM062X) =  -1199.76529538     A.U. after   14 cycles
 SCF Done:  E(RM062X) =  -1199.76541228     A.U. after   12 cycles
 SCF Done:  E(RM062X) =  -1199.76541314     A.U. after    8 cycles

 Isotropic polarizability for W=    0.000000       64.17 Bohr**3.
 End of Minotr F.D. properties file   721 does not exist.

 Optimization completed.
    -- Stationary point found.

                          Input orientation:
 ---------------------------------------------------------------------
 Center     Atomic      Atomic             Coordinates (Angstroms)
 Number     Number       Type             X           Y           Z
 ---------------------------------------------------------------------
      1          6           0       -0.225266    0.508871    0.437576
      2          6           0        1.646486   -0.417755   -0.570664
      3          9           0        2.563955   -1.359695   -0.326905
      4          9           0        1.388851   -0.447281   -1.893538
      5         16           0        2.312106    1.231319   -0.184603
      6          8           0        0.988099    1.866459    0.025822
      7          8           0        3.248254    1.252914    0.886074
      8          8           0        2.846843    2.060362   -1.422859
      9          9           0       -1.032684    1.476342    0.818709
     10          9           0       -0.841666   -0.111833   -0.524939
     11          9           0        0.057382   -0.183269    1.501948
     12          1           0        3.806129    1.947745   -1.489220
 ---------------------------------------------------------------------

 ******    1 imaginary frequencies (negative Signs) ******

                      1                      2                      3
                      A                      A                      A
 Frequencies --   -451.8653                40.9165                76.8209
 Red. masses --     15.3133                15.3164                13.9065
 Frc consts  --      1.8422                 0.0151                 0.0484
 IR Inten    --     69.3855                 1.0670                 1.6092

                      4                      5                      6
                      A                      A                      A
 Frequencies --     98.6629               156.4552               163.7992
 Red. masses --     16.1088                11.0804                15.2923
 Frc consts  --      0.0924                 0.1598                 0.2417
 IR Inten    --     14.1904                 4.8370                18.9015

                      7                      8                      9
                      A                      A                      A
 Frequencies --    208.5308               239.2083               297.8846
 Red. masses --      2.3198                 2.3828                13.3490
 Frc consts  --      0.0594                 0.0803                 0.6979
 IR Inten    --     32.8454                71.2780                 5.5190

                     10                     11                     12
                      A                      A                      A
 Frequencies --    326.9668               348.1408               406.4318
 Red. masses --     11.6242                11.1429                 8.2567
 Frc consts  --      0.7322                 0.7957                 0.8036
 IR Inten    --     35.8163                10.7266                16.1704

                     13                     14                     15
                      A                      A                      A
 Frequencies --    468.5414               494.5956               524.6439
 Red. masses --     13.3666                 8.5436                16.1253
 Frc consts  --      1.7289                 1.2314                 2.6151
 IR Inten    --      5.8730                24.0756                25.7707

                     16                     17                     18
                      A                      A                      A
 Frequencies --    589.8400               605.6751               641.4400
 Red. masses --     16.8044                18.2223                13.3468
 Frc consts  --      3.4446                 3.9385                 3.2355
 IR Inten    --    124.7439                 4.1497                74.6108

                     19                     20                     21
                      A                      A                      A
 Frequencies --    680.7104               720.6945               899.7357
 Red. masses --     16.8657                14.7834                18.5601
 Frc consts  --      4.6045                 4.5240                 8.8524
 IR Inten    --     28.2722               350.2419               289.3371

                     22                     23                     24
                      A                      A                      A
 Frequencies --    952.8534              1066.8125              1150.0500
 Red. masses --     16.6067                10.4782                 7.6150
 Frc consts  --      8.8835                 7.0261                 5.9341
 IR Inten    --    473.1216                43.4938               184.1781

                     25                     26                     27
                      A                      A                      A
 Frequencies --   1151.6262              1196.5372              1252.2714
 Red. masses --      1.4233                 9.1515                11.3055
 Frc consts  --      1.1122                 7.7196                10.4456
 IR Inten    --     46.9193               249.9404               347.1107

                     28                     29                     30
                      A                      A                      A
 Frequencies --   1380.6479              1395.5505              3811.0288
 Red. masses --     12.9117                13.6097                 1.0658
 Frc consts  --     14.5010                15.6167                 9.1205
 IR Inten    --    174.9277               422.3919               238.7817

 - Thermochemistry -
 -------------------
 Temperature   298.150 Kelvin.  Pressure   1.00000 Atm.
 Atom     1 has atomic number  6 and mass  12.00000

 Molecular mass:   199.95666 amu.
 Principal axes and moments of inertia in atomic units:
                           1         2         3
     Eigenvalues --  1330.646452105.909342449.36259
           X            0.94604   0.03264   0.32240
           Y            0.09430   0.92412  -0.37027
           Z           -0.31003   0.38070   0.87118
 This molecule is an asymmetric top.
 Rotational symmetry number  1.
 Warning -- assumption of classical behavior for rotation
           may cause significant error
 Rotational temperatures (Kelvin)      0.06509     0.04113     0.03536
 Rotational constants (GHZ):           1.35629     0.85699     0.73682
    1 imaginary frequencies ignored.
 Zero-point vibrational energy     127683.8 (Joules/Mol)
                                   30.51717 (Kcal/Mol)
 Warning -- explicit consideration of  16 degrees of freedom as
           vibrations may cause significant error
 Vibrational temperatures:     58.87   110.53   141.95   225.10   235.67
          (Kelvin)            300.03   344.17   428.59   470.43   500.90
                              584.76   674.13   711.61   754.85   848.65
                              871.43   922.89   979.39  1036.92  1294.52
                             1370.94  1534.91  1654.67  1656.93  1721.55
                             1801.74  1986.44  2007.89  5483.22

 Zero-point correction=                           0.048632 (Hartree/Particle)
 Thermal correction to Energy=                    0.059197
 Thermal correction to Enthalpy=                  0.060141
 Thermal correction to Gibbs Free Energy=         0.011207
 Sum of electronic and zero-point Energies=          -1199.716781
 Sum of electronic and thermal Energies=             -1199.706216
 Sum of electronic and thermal Enthalpies=           -1199.705272
 Sum of electronic and thermal Free Energies=        -1199.754207

                     E (Thermal)             CV                S
                      KCal/Mol        Cal/Mol-Kelvin    Cal/Mol-Kelvin
 Total                   37.147             36.356            102.991
 Electronic               0.000              0.000              0.000
 Translational            0.889              2.981             41.783
 Rotational               0.889              2.981             30.307
 Vibrational             35.369             30.394             30.900
 Vibration     1          0.594              1.981              5.214
 Vibration     2          0.599              1.965              3.970
 Vibration     3          0.604              1.950              3.481
 Vibration     4          0.620              1.895              2.592
 Vibration     5          0.623              1.887              2.505
 Vibration     6          0.642              1.828              2.056
 Vibration     7          0.657              1.780              1.809
 Vibration     8          0.691              1.678              1.429
 Vibration     9          0.711              1.622              1.275
 Vibration    10          0.726              1.579              1.175
 Vibration    11          0.771              1.456              0.939
 Vibration    12          0.826              1.320              0.742
 Vibration    13          0.850              1.262              0.672
 Vibration    14          0.880              1.195              0.599
 Vibration    15          0.947              1.053              0.467
 Vibration    16          0.964              1.020              0.440

 Normal termination of Gaussian 16 at Sat May 24 11:09:48 2025.
