 Gaussian 16, Revision C.01,
 Gaussian 16:  ES64L-G16RevC.01  3-Jul-2019

 ----------------------------------------------------------------------
 #P M062X/Def2TZVPP Symm(None) scf(xqc) pop(None) opt(NoFreeze,TS,CalcA
 ll,NoEigentest,MaxCycle=999)
 ----------------------------------------------------------------------

 ------------------------------
 Gaussian input prepared by ASE
 ------------------------------
 Symbolic Z-matrix:
 Charge =  0 Multiplicity = 1

 SCF Done:  E(RM062X) =  -1199.65468845     A.U. after   18 cycles
 SCF Done:  E(RM062X) =  -1199.69160117     A.U. after   14 cycles
 SCF Done:  E(RM062X) =  -1199.71870379     A.U. after   15 cycles
 SCF Done:  E(RM062X) =  -1199.73518372     A.U. after   14 cycles
 SCF Done:  E(RM062X) =  -1199.75425498     A.U. after   14 cycles
 SCF Done:  E(RM062X) =  -1199.75954522     A.U. after   15 cycles
 SCF Done:  E(RM062X) =  -1199.76236789     A.U. after   15 cycles
 SCF Done:  E(RM062X) =  -1199.76483371     A.U. after   14 cycles
 SCF Done:  E(RM062X) =  -1199.76516982     A.U. after   14 cycles
 SCF Done:  E(RM062X) =  -1199.76520674     A.U. after   13 cycles
 SCF Done:  E(RM062X) =  -1199.76520987     A.U. after   11 cycles
 SCF Done:  E(RM062X) =  -1199.76520993     A.U. after    8 cycles

 Isotropic polarizability for W=    0.000000       62.73 Bohr**3.
 End of Minotr F.D. properties file   721 does not exist.

 Optimization completed.
    -- Stationary point found.

                          Input orientation:
 ---------------------------------------------------------------------
 Center     Atomic      Atomic             Coordinates (Angstroms)
 Number     Number       Type             X           Y           Z
 ---------------------------------------------------------------------
      1          6           0       -0.050884    0.456588    1.589036
      2          6           0       -0.220622    0.307681    0.154798
      3          9           0       -1.008597   -0.691719   -0.196497
      4          9           0       -0.603868    1.422244   -0.446011
      5         16           0        1.871206   -0.087341    0.047142
      6          8           0        2.163446    0.063649    1.465110
      7          8           0        2.736329   -0.522337   -1.006459
      8          8           0        1.890527    1.529184   -0.314841
      9          9           0        1.183489   -1.604132    0.233418
     10          9           0        0.144582    1.582338    2.117397
     11          9           0       -0.218966   -0.502331    2.383760
     12          1           0        2.187726    1.617430   -1.228195
 ---------------------------------------------------------------------

 ******    1 imaginary frequencies (negative Signs) ******

                      1                      2                      3
                      A                      A                      A
 Frequencies --   -590.8641                48.7324                52.9632
 Red. masses --     13.9225                10.3398                14.8943
 Frc consts  --      2.8638                 0.0145                 0.0246
 IR Inten    --     42.4135                18.2434                 3.4572

                      4                      5                      6
                      A                      A                      A
 Frequencies --    187.5184               190.6995               209.4838
 Red. masses --     17.8261                13.3027                18.1434
 Frc consts  --      0.3693                 0.2850                 0.4691
 IR Inten    --      3.4522                18.6574                 0.7386

                      7                      8                      9
                      A                      A                      A
 Frequencies --    264.6391               281.0759               305.3214
 Red. masses --      3.3239                17.0325                 3.2928
 Frc consts  --      0.1372                 0.7928                 0.1809
 IR Inten    --     15.3504                 1.9811                20.4727

                     10                     11                     12
                      A                      A                      A
 Frequencies --    321.5997               373.3909               412.5846
 Red. masses --      2.8926                12.5464                13.2362
 Frc consts  --      0.1763                 1.0306                 1.3275
 IR Inten    --     16.9096                 1.1618                 5.8921

                     13                     14                     15
                      A                      A                      A
 Frequencies --    509.3727               531.8825               538.0311
 Red. masses --     16.6113                 7.9759                10.1581
 Frc consts  --      2.5394                 1.3294                 1.7325
 IR Inten    --    135.1554                23.0856                16.0513

                     16                     17                     18
                      A                      A                      A
 Frequencies --    553.7151               611.4948               624.5366
 Red. masses --     11.2452                18.3374                15.5265
 Frc consts  --      2.0314                 4.0399                 3.5681
 IR Inten    --      1.3312                58.8783                 5.3452

                     19                     20                     21
                      A                      A                      A
 Frequencies --    632.2428               661.1997               752.8775
 Red. masses --     12.0752                13.9515                18.6224
 Frc consts  --      2.8439                 3.5937                 6.2192
 IR Inten    --     44.5614               196.4705               318.9111

                     22                     23                     24
                      A                      A                      A
 Frequencies --    814.4854              1097.3759              1155.5868
 Red. masses --     16.6660                15.4748                 1.2523
 Frc consts  --      6.5140                10.9796                 0.9853
 IR Inten    --     27.1797               173.3636                85.8543

                     25                     26                     27
                      A                      A                      A
 Frequencies --   1234.2448              1339.7849              1390.0790
 Red. masses --     13.3015                13.1144                10.5202
 Frc consts  --     11.9386                13.8697                11.9771
 IR Inten    --    274.5199               168.5272               231.6900

                     28                     29                     30
                      A                      A                      A
 Frequencies --   1540.9377              1557.2438              3848.3235
 Red. masses --     12.8912                13.2649                 1.0660
 Frc consts  --     18.0349                18.9526                 9.3015
 IR Inten    --    440.2395               289.0108               159.1779

 - Thermochemistry -
 -------------------
 Temperature   298.150 Kelvin.  Pressure   1.00000 Atm.
 Atom     1 has atomic number  6 and mass  12.00000

 Molecular mass:   199.95666 amu.
 Principal axes and moments of inertia in atomic units:
                           1         2         3
     Eigenvalues --  1314.451521919.711391932.52111
           X            0.81984  -0.24075   0.51952
           Y           -0.22688   0.69646   0.68078
           Z           -0.52572  -0.67600   0.51637
 This molecule is an asymmetric top.
 Rotational symmetry number  1.
 Warning -- assumption of classical behavior for rotation
           may cause significant error
 Rotational temperatures (Kelvin)      0.06589     0.04512     0.04482
 Rotational constants (GHZ):           1.37300     0.94011     0.93388
    1 imaginary frequencies ignored.
 Zero-point vibrational energy     131837.0 (Joules/Mol)
                                   31.50980 (Kcal/Mol)
 Warning -- explicit consideration of  16 degrees of freedom as
           vibrations may cause significant error
 Vibrational temperatures:     70.12    76.20   269.80   274.37   301.40
          (Kelvin)            380.76   404.41   439.29   462.71   537.23
                              593.62   732.87   765.26   774.11   796.67
                              879.80   898.57   909.66   951.32  1083.22
                             1171.86  1578.88  1662.63  1775.80  1927.65
                             2000.01  2217.07  2240.53  5536.88

 Zero-point correction=                           0.050214 (Hartree/Particle)
 Thermal correction to Energy=                    0.060395
 Thermal correction to Enthalpy=                  0.061340
 Thermal correction to Gibbs Free Energy=         0.013709
 Sum of electronic and zero-point Energies=          -1199.714996
 Sum of electronic and thermal Energies=             -1199.704815
 Sum of electronic and thermal Enthalpies=           -1199.703870
 Sum of electronic and thermal Free Energies=        -1199.751501

                     E (Thermal)             CV                S
                      KCal/Mol        Cal/Mol-Kelvin    Cal/Mol-Kelvin
 Total                   37.899             36.153            100.247
 Electronic               0.000              0.000              0.000
 Translational            0.889              2.981             41.783
 Rotational               0.889              2.981             29.968
 Vibrational             36.121             30.191             28.495
 Vibration     1          0.595              1.978              4.868
 Vibration     2          0.596              1.976              4.704
 Vibration     3          0.632              1.857              2.252
 Vibration     4          0.634              1.853              2.221
 Vibration     5          0.642              1.826              2.048
 Vibration     6          0.671              1.738              1.631
 Vibration     7          0.681              1.709              1.527
 Vibration     8          0.696              1.664              1.388
 Vibration     9          0.707              1.632              1.302
 Vibration    10          0.745              1.527              1.066
 Vibration    11          0.776              1.443              0.918
 Vibration    12          0.865              1.229              0.635
 Vibration    13          0.887              1.179              0.583
 Vibration    14          0.893              1.166              0.570
 Vibration    15          0.909              1.132              0.537
 Vibration    16          0.971              1.008              0.430

 Normal termination of Gaussian 16 at Sat May 24 07:10:27 2025.
