 Gaussian 16, Revision C.01,
 Gaussian 16:  ES64L-G16RevC.01  3-Jul-2019

 ------------------------------------------
 #P am1 Symm(None) scf(xqc) pop(None) force
 ------------------------------------------

 ------------------------------
 Gaussian input prepared by ASE
 ------------------------------
 Symbolic Z-matrix:
 Charge =  0 Multiplicity = 1

                          Input orientation:
 ---------------------------------------------------------------------
 Center     Atomic      Atomic             Coordinates (Angstroms)
 Number     Number       Type             X           Y           Z
 ---------------------------------------------------------------------
      1          6           0        1.801115   -0.655223   -1.277291
      2          6           0        1.972039    0.180896    0.016355
      3          9           0       -0.566997    0.099662    0.367030
      4          9           0        1.891152   -0.447654    1.092670
      5         16           0        2.159561    2.003855    0.020458
      6          8           0        2.934999    2.209668    1.189792
      7          8           0        2.741405    2.247674   -1.251082
      8          8           0        0.708924    2.087146    0.142265
      9          9           0        1.011522   -0.087143   -2.149450
     10          9           0        2.981353   -0.833670   -1.866182
     11          9           0        1.324907   -1.858016   -1.050804
     12          1           0       -0.757600    1.012430    0.388332
 ---------------------------------------------------------------------

 SCF Done:  E(RAM1) =  0.516509493529     A.U. after   16 cycles
 Normal termination of Gaussian 16 at Sat May 24 09:58:12 2025.
