 Gaussian 16, Revision C.01,
 Gaussian 16:  ES64L-G16RevC.01  3-Jul-2019

 ----------------------------------------------------------------------
 #P M062X/Def2TZVPP Symm(None) scf(xqc) pop(None) freq opt(CalcFC, Tigh
 t)
 ----------------------------------------------------------------------

 ------------------------------
 Gaussian input prepared by ASE
 ------------------------------
 Symbolic Z-matrix:
 Charge =  0 Multiplicity = 1

 SCF Done:  E(RM062X) =  -1199.70648057     A.U. after   15 cycles
 SCF Done:  E(RM062X) =  -1199.71272248     A.U. after   16 cycles
 SCF Done:  E(RM062X) =  -1199.71306320     A.U. after   16 cycles
 SCF Done:  E(RM062X) =  -1199.69015828     A.U. after   16 cycles
 SCF Done:  E(RM062X) =  -1199.71500948     A.U. after   14 cycles
 SCF Done:  E(RM062X) =  -1199.71514607     A.U. after   13 cycles
 SCF Done:  E(RM062X) =  -1199.71517740     A.U. after   11 cycles
 SCF Done:  E(RM062X) =  -1199.71518565     A.U. after   11 cycles
 SCF Done:  E(RM062X) =  -1199.71518678     A.U. after   10 cycles
 SCF Done:  E(RM062X) =  -1199.71518687     A.U. after    7 cycles
 SCF Done:  E(RM062X) =  -1199.71518688     A.U. after    6 cycles
 SCF Done:  E(RM062X) =  -1199.71518689     A.U. after    6 cycles
 SCF Done:  E(RM062X) =  -1199.71518689     A.U. after    4 cycles
 SCF Done:  E(RM062X) =  -1199.71518689     A.U. after    3 cycles
 SCF Done:  E(RM062X) =  -1199.71518689     A.U. after    3 cycles
 Optimization completed.
    -- Stationary point found.
 Normal termination of Gaussian 16 at Sat May 24 08:31:05 2025.

 ---------------------------------------------------------------------
 #P Geom=AllCheck Guess=TCheck SCRF=Check GenChk RM062X/def2TZVPP Freq
 ---------------------------------------------------------------------

 Structure from the checkpoint file:  "/tmp/Gau-281310.chk"
 ------------------------------
 Gaussian input prepared by ASE
 ------------------------------
 Charge =  0 Multiplicity = 1

                          Input orientation:
 ---------------------------------------------------------------------
 Center     Atomic      Atomic             Coordinates (Angstroms)
 Number     Number       Type             X           Y           Z
 ---------------------------------------------------------------------
      1          6           0        2.438324    0.015772   -2.600353
      2          6           0        2.618520   -0.522893   -1.220190
      3          9           0       -0.421509   -1.067885   -0.296986
      4          9           0        2.997551   -1.814670   -1.193901
      5         16           0        1.723271   -0.030766    0.044628
      6          8           0        0.083198    0.220557   -0.155051
      7          8           0        1.908915   -0.778805    1.229310
      8          8           0        1.865017    1.512464    0.170722
      9          9           0        2.053375    1.299354   -2.562792
     10          9           0        3.582079   -0.054605   -3.278736
     11          9           0        1.526409   -0.654919   -3.309549
     12          1           0        2.737243    1.790109   -0.148275
 ---------------------------------------------------------------------

 SCF Done:  E(RM062X) =  -1199.71518689     A.U. after    1 cycles

 Isotropic polarizability for W=    0.000000       59.51 Bohr**3.
 End of Minotr F.D. properties file   721 does not exist.

                      1                      2                      3
                      A                      A                      A
 Frequencies --     36.5001                50.2728               103.3970
 Red. masses --     16.6209                16.9595                17.8244
 Frc consts  --      0.0130                 0.0253                 0.1123
 IR Inten    --      0.3213                 0.5032                 0.3483

                      4                      5                      6
                      A                      A                      A
 Frequencies --    149.1725               176.4743               215.6760
 Red. masses --     14.2759                11.6370                16.5727
 Frc consts  --      0.1872                 0.2135                 0.4542
 IR Inten    --      0.8175                 6.5813                 2.6693

                      7                      8                      9
                      A                      A                      A
 Frequencies --    251.3852               292.4123               314.4526
 Red. masses --     14.7901                 2.4882                 2.5882
 Frc consts  --      0.5507                 0.1254                 0.1508
 IR Inten    --      3.8532                37.4120                51.8506

                     10                     11                     12
                      A                      A                      A
 Frequencies --    334.9259               346.0612               413.3522
 Red. masses --      4.4826                14.8928                 6.9700
 Frc consts  --      0.2963                 1.0508                 0.7017
 IR Inten    --     25.5758                 1.0508                 2.2569

                     13                     14                     15
                      A                      A                      A
 Frequencies --    448.4707               484.5740               510.3633
 Red. masses --     16.1566                13.7711                12.1234
 Frc consts  --      1.9146                 1.9052                 1.8605
 IR Inten    --      5.8655                12.9575                49.5095

                     16                     17                     18
                      A                      A                      A
 Frequencies --    583.3226               600.2260               610.6985
 Red. masses --     16.8448                16.3181                16.4665
 Frc consts  --      3.3770                 3.4638                 3.6183
 IR Inten    --     37.3046                 5.1592                 8.1601

                     19                     20                     21
                      A                      A                      A
 Frequencies --    731.6354               782.4639               938.5036
 Red. masses --     12.8035                14.0728                17.3925
 Frc consts  --      4.0380                 5.0764                 9.0258
 IR Inten    --    178.0554                85.1062               182.8388

                     22                     23                     24
                      A                      A                      A
 Frequencies --   1085.3588              1108.0973              1160.7907
 Red. masses --      3.9124                12.9766                 1.5938
 Frc consts  --      2.7154                 9.3879                 1.2653
 IR Inten    --     58.4814                11.9912               207.8494

                     25                     26                     27
                      A                      A                      A
 Frequencies --   1219.0567              1237.0703              1315.6951
 Red. masses --     12.9053                13.0894                13.4608
 Frc consts  --     11.2997                11.8021                13.7288
 IR Inten    --    271.8102               262.1552                65.2702

                     28                     29                     30
                      A                      A                      A
 Frequencies --   1376.0419              1416.3872              3794.1139
 Red. masses --     12.7279                16.4324                 1.0655
 Frc consts  --     14.1994                19.4229                 9.0370
 IR Inten    --    429.3051               152.2189               204.4404

 - Thermochemistry -
 -------------------
 Temperature   298.150 Kelvin.  Pressure   1.00000 Atm.
 Atom     1 has atomic number  6 and mass  12.00000

 Molecular mass:   199.95666 amu.
 Principal axes and moments of inertia in atomic units:
                           1         2         3
     Eigenvalues --  1221.642742412.015252439.88625
           X           -0.47066  -0.56926   0.67411
           Y           -0.04268   0.77782   0.62704
           Z            0.88128  -0.26636   0.39038
 This molecule is an asymmetric top.
 Rotational symmetry number  1.
 Warning -- assumption of classical behavior for rotation
           may cause significant error
 Rotational temperatures (Kelvin)      0.07090     0.03591     0.03550
 Rotational constants (GHZ):           1.47731     0.74823     0.73968
 Zero-point vibrational energy     132109.3 (Joules/Mol)
                                   31.57488 (Kcal/Mol)
 Warning -- explicit consideration of  18 degrees of freedom as
           vibrations may cause significant error
 Vibrational temperatures:     52.52    72.33   148.77   214.63   253.91
          (Kelvin)            310.31   361.69   420.72   452.43   481.88
                              497.90   594.72   645.25   697.19   734.30
                              839.27   863.59   878.66  1052.66  1125.79
                             1350.30  1561.59  1594.30  1670.12  1753.95
                             1779.87  1892.99  1979.82  2037.87  5458.88

 Zero-point correction=                           0.050318 (Hartree/Particle)
 Thermal correction to Energy=                    0.061271
 Thermal correction to Enthalpy=                  0.062215
 Thermal correction to Gibbs Free Energy=         0.012285
 Sum of electronic and zero-point Energies=          -1199.664869
 Sum of electronic and thermal Energies=             -1199.653916
 Sum of electronic and thermal Enthalpies=           -1199.652972
 Sum of electronic and thermal Free Energies=        -1199.702902

                     E (Thermal)             CV                S
                      KCal/Mol        Cal/Mol-Kelvin    Cal/Mol-Kelvin
 Total                   38.448             37.595            105.086
 Electronic               0.000              0.000              0.000
 Translational            0.889              2.981             41.783
 Rotational               0.889              2.981             30.354
 Vibrational             36.670             31.633             32.949
 Vibration     1          0.594              1.982              5.441
 Vibration     2          0.595              1.977              4.807
 Vibration     3          0.605              1.946              3.389
 Vibration     4          0.618              1.904              2.683
 Vibration     5          0.628              1.871              2.365
 Vibration     6          0.645              1.817              1.995
 Vibration     7          0.663              1.760              1.721
 Vibration     8          0.688              1.688              1.460
 Vibration     9          0.702              1.646              1.339
 Vibration    10          0.716              1.606              1.236
 Vibration    11          0.724              1.583              1.184
 Vibration    12          0.777              1.441              0.915
 Vibration    13          0.807              1.364              0.800
 Vibration    14          0.841              1.284              0.698
 Vibration    15          0.865              1.227              0.633
 Vibration    16          0.940              1.067              0.479
 Vibration    17          0.958              1.031              0.449
 Vibration    18          0.970              1.009              0.432

 Optimization completed.
    -- Stationary point found.
 Normal termination of Gaussian 16 at Sat May 24 08:38:18 2025.
