 Gaussian 16, Revision C.01,
 Gaussian 16:  ES64L-G16RevC.01  3-Jul-2019

 ----------------------------------------------------------------------
 #P M062X/Def2TZVPP Symm(None) scf(xqc) pop(None) opt(NoFreeze,TS,CalcA
 ll,NoEigentest,MaxCycle=999)
 ----------------------------------------------------------------------

 ------------------------------
 Gaussian input prepared by ASE
 ------------------------------
 Symbolic Z-matrix:
 Charge =  0 Multiplicity = 1

 SCF Done:  E(RM062X) =  -1199.72918118     A.U. after   23 cycles
 SCF Done:  E(RM062X) =  -1199.73655680     A.U. after   19 cycles
 SCF Done:  E(RM062X) =  -1199.73738816     A.U. after   16 cycles
 SCF Done:  E(RM062X) =  -1199.73742023     A.U. after   15 cycles
 SCF Done:  E(RM062X) =  -1199.73742044     A.U. after   12 cycles

 Isotropic polarizability for W=    0.000000       67.52 Bohr**3.
 End of Minotr F.D. properties file   721 does not exist.

 Optimization completed on the basis of negligible forces.
    -- Stationary point found.

                          Input orientation:
 ---------------------------------------------------------------------
 Center     Atomic      Atomic             Coordinates (Angstroms)
 Number     Number       Type             X           Y           Z
 ---------------------------------------------------------------------
      1          6           0       -0.730181    0.742006   -1.024491
      2          6           0       -0.057654    0.007353    0.153230
      3          9           0       -0.524533    0.529232    1.287051
      4          9           0       -0.401143   -1.283559    0.069771
      5         16           0        1.972568    0.038288   -0.082990
      6          8           0        1.966440   -0.606405    1.292296
      7          8           0        3.460658   -0.261690    0.328741
      8          8           0        1.948811    1.625541    0.107676
      9          9           0       -0.615873    2.054273   -0.901572
     10          9           0       -0.165390    0.367162   -2.170721
     11          9           0       -2.021393    0.434813   -1.072559
     12          1           0        2.825034    1.925106    0.385741
 ---------------------------------------------------------------------

 ******    1 imaginary frequencies (negative Signs) ******

                      1                      2                      3
                      A                      A                      A
 Frequencies --   -976.1027                25.5451                77.8329
 Red. masses --     17.6797                11.9263                16.4795
 Frc consts  --      9.9247                 0.0046                 0.0588
 IR Inten    --    668.4940                 1.0014                 0.2024

                      4                      5                      6
                      A                      A                      A
 Frequencies --    125.4491               151.2353               184.9579
 Red. masses --     13.1766                13.4703                 6.6041
 Frc consts  --      0.1222                 0.1815                 0.1331
 IR Inten    --      1.4540                 0.9932                10.1807

                      7                      8                      9
                      A                      A                      A
 Frequencies --    226.9654               233.2269               284.9030
 Red. masses --     17.6564                18.4774                17.8659
 Frc consts  --      0.5359                 0.5922                 0.8544
 IR Inten    --      1.9696                 1.4305                 2.4026

                     10                     11                     12
                      A                      A                      A
 Frequencies --    304.8053               324.1198               370.9625
 Red. masses --      2.7278                 1.9580                17.5097
 Frc consts  --      0.1493                 0.1212                 1.4197
 IR Inten    --     31.5485                61.1807                 1.1678

                     13                     14                     15
                      A                      A                      A
 Frequencies --    387.6588               452.3897               470.8005
 Red. masses --     13.6594                 9.2315                10.1469
 Frc consts  --      1.2094                 1.1131                 1.3251
 IR Inten    --     11.1811                18.4904                16.8658

                     16                     17                     18
                      A                      A                      A
 Frequencies --    541.4257               602.8858               626.4057
 Red. masses --     17.4231                17.7752                16.7869
 Frc consts  --      3.0092                 3.8066                 3.8809
 IR Inten    --      3.1289                 1.5092                 9.5448

                     19                     20                     21
                      A                      A                      A
 Frequencies --    756.6534               803.5122               867.8575
 Red. masses --     16.3754                16.5598                17.1841
 Frc consts  --      5.5238                 6.2993                 7.6256
 IR Inten    --     64.6240                67.9149               145.5233

                     22                     23                     24
                      A                      A                      A
 Frequencies --    941.4159              1098.5199              1149.0965
 Red. masses --     13.6026                 7.8444                 2.5717
 Frc consts  --      7.1029                 5.5773                 2.0007
 IR Inten    --    132.2140                31.2108               183.2031

                     25                     26                     27
                      A                      A                      A
 Frequencies --   1168.5502              1254.3756              1264.8884
 Red. masses --      2.2112                10.8589                12.6642
 Frc consts  --      1.7790                10.0668                11.9380
 IR Inten    --     79.1625                73.9098               222.4781

                     28                     29                     30
                      A                      A                      A
 Frequencies --   1290.6473              1354.6026              3819.7633
 Red. masses --     12.9701                12.3201                 1.0655
 Frc consts  --     12.7294                13.3195                 9.1597
 IR Inten    --    314.9156               338.5223               170.9925

 - Thermochemistry -
 -------------------
 Temperature   298.150 Kelvin.  Pressure   1.00000 Atm.
 Atom     1 has atomic number  6 and mass  12.00000

 Molecular mass:   199.95666 amu.
 Principal axes and moments of inertia in atomic units:
                           1         2         3
     Eigenvalues --  1047.426992386.502182622.45128
           X            0.91665   0.36470  -0.16357
           Y           -0.17250   0.73012   0.66119
           Z            0.36056  -0.57786   0.73217
 This molecule is an asymmetric top.
 Rotational symmetry number  1.
 Warning -- assumption of classical behavior for rotation
           may cause significant error
 Rotational temperatures (Kelvin)      0.08269     0.03629     0.03303
 Rotational constants (GHZ):           1.72302     0.75623     0.68819
    1 imaginary frequencies ignored.
 Zero-point vibrational energy     126573.6 (Joules/Mol)
                                   30.25181 (Kcal/Mol)
 Warning -- explicit consideration of  16 degrees of freedom as
           vibrations may cause significant error
 Vibrational temperatures:     36.75   111.98   180.49   217.59   266.11
          (Kelvin)            326.55   335.56   409.91   438.55   466.34
                              533.73   557.75   650.89   677.38   778.99
                              867.42   901.26  1088.66  1156.07  1248.65
                             1354.49  1580.53  1653.29  1681.28  1804.77
                             1819.89  1856.95  1948.97  5495.79

 Zero-point correction=                           0.048209 (Hartree/Particle)
 Thermal correction to Energy=                    0.058951
 Thermal correction to Enthalpy=                  0.059895
 Thermal correction to Gibbs Free Energy=         0.010456
 Sum of electronic and zero-point Energies=          -1199.689211
 Sum of electronic and thermal Energies=             -1199.678470
 Sum of electronic and thermal Enthalpies=           -1199.677526
 Sum of electronic and thermal Free Energies=        -1199.726964

                     E (Thermal)             CV                S
                      KCal/Mol        Cal/Mol-Kelvin    Cal/Mol-Kelvin
 Total                   36.992             36.766            104.053
 Electronic               0.000              0.000              0.000
 Translational            0.889              2.981             41.783
 Rotational               0.889              2.981             30.262
 Vibrational             35.215             30.804             32.008
 Vibration     1          0.593              1.985              6.148
 Vibration     2          0.599              1.964              3.945
 Vibration     3          0.610              1.928              3.015
 Vibration     4          0.619              1.901              2.657
 Vibration     5          0.631              1.860              2.278
 Vibration     6          0.651              1.800              1.903
 Vibration     7          0.654              1.790              1.854
 Vibration     8          0.683              1.702              1.504
 Vibration     9          0.696              1.665              1.390
 Vibration    10          0.709              1.627              1.289
 Vibration    11          0.743              1.532              1.076
 Vibration    12          0.756              1.497              1.009
 Vibration    13          0.811              1.356              0.789
 Vibration    14          0.828              1.315              0.735
 Vibration    15          0.897              1.158              0.562
 Vibration    16          0.961              1.026              0.445

 Normal termination of Gaussian 16 at Sat May 24 06:49:43 2025.
