 Gaussian 16, Revision C.01,
 Gaussian 16:  ES64L-G16RevC.01  3-Jul-2019

 ----------------------------------------------------------------------
 #P M062X/Def2TZVPP Symm(None) scf(xqc) pop(None) freq opt(CalcFC, Tigh
 t)
 ----------------------------------------------------------------------

 ------------------------------
 Gaussian input prepared by ASE
 ------------------------------
 Symbolic Z-matrix:
 Charge =  0 Multiplicity = 1

 SCF Done:  E(RM062X) =  -1199.71037063     A.U. after   15 cycles
 SCF Done:  E(RM062X) =  -1199.71460482     A.U. after   13 cycles
 SCF Done:  E(RM062X) =  -1199.66297461     A.U. after   15 cycles
 SCF Done:  E(RM062X) =  -1199.71672914     A.U. after   13 cycles
 SCF Done:  E(RM062X) =  -1199.71760547     A.U. after   12 cycles
 SCF Done:  E(RM062X) =  -1199.71768841     A.U. after   11 cycles
 SCF Done:  E(RM062X) =  -1199.71769830     A.U. after   11 cycles
 SCF Done:  E(RM062X) =  -1199.71770081     A.U. after    9 cycles
 SCF Done:  E(RM062X) =  -1199.71770098     A.U. after    7 cycles
 SCF Done:  E(RM062X) =  -1199.71770099     A.U. after    5 cycles
 SCF Done:  E(RM062X) =  -1199.71770099     A.U. after    4 cycles
 Optimization completed.
    -- Stationary point found.
 Normal termination of Gaussian 16 at Sat May 24 08:21:27 2025.

 ---------------------------------------------------------------------
 #P Geom=AllCheck Guess=TCheck SCRF=Check GenChk RM062X/def2TZVPP Freq
 ---------------------------------------------------------------------

 Structure from the checkpoint file:  "/tmp/Gau-221466.chk"
 ------------------------------
 Gaussian input prepared by ASE
 ------------------------------
 Charge =  0 Multiplicity = 1

                          Input orientation:
 ---------------------------------------------------------------------
 Center     Atomic      Atomic             Coordinates (Angstroms)
 Number     Number       Type             X           Y           Z
 ---------------------------------------------------------------------
      1          6           0        2.544531    0.105135   -2.601149
      2          6           0        2.471412   -0.585061   -1.274267
      3          9           0       -0.336108    0.759496   -1.009041
      4          9           0        2.645792   -1.914929   -1.364240
      5         16           0        1.734869   -0.072471    0.052717
      6          8           0        0.048495    0.072794    0.152031
      7          8           0        1.911593   -0.834133    1.231666
      8          8           0        2.056186    1.444356    0.104864
      9          9           0        2.245928    1.399040   -2.531125
     10          9           0        3.772486   -0.011550   -3.107387
     11          9           0        1.710746   -0.459716   -3.480294
     12          1           0        1.267280    1.972664    0.305066
 ---------------------------------------------------------------------

 SCF Done:  E(RM062X) =  -1199.71770099     A.U. after    1 cycles

 Isotropic polarizability for W=    0.000000       59.66 Bohr**3.
 End of Minotr F.D. properties file   721 does not exist.

                      1                      2                      3
                      A                      A                      A
 Frequencies --     36.7862                66.6319                88.4380
 Red. masses --     17.6107                15.6809                16.2494
 Frc consts  --      0.0140                 0.0410                 0.0749
 IR Inten    --      0.2250                 0.8793                 0.9951

                      4                      5                      6
                      A                      A                      A
 Frequencies --    168.5352               194.0443               206.9370
 Red. masses --      3.7955                14.1346                13.4550
 Frc consts  --      0.0635                 0.3136                 0.3395
 IR Inten    --     17.0438                 4.4958                 7.1669

                      7                      8                      9
                      A                      A                      A
 Frequencies --    240.8546               305.9658               325.9274
 Red. masses --     12.7840                 1.6028                16.8264
 Frc consts  --      0.4369                 0.0884                 1.0531
 IR Inten    --      1.4614                79.9152                 1.6609

                     10                     11                     12
                      A                      A                      A
 Frequencies --    333.7996               341.9953               410.5575
 Red. masses --      7.5284                 9.8892                16.6615
 Frc consts  --      0.4942                 0.6815                 1.6547
 IR Inten    --     10.2002                 5.1625                 7.1587

                     13                     14                     15
                      A                      A                      A
 Frequencies --    462.0240               465.9457               492.9674
 Red. masses --     10.0651                13.3197                17.6200
 Frc consts  --      1.2659                 1.7038                 2.5229
 IR Inten    --     20.4962                 6.5979                19.7136

                     16                     17                     18
                      A                      A                      A
 Frequencies --    581.4881               605.4425               615.9532
 Red. masses --     14.1804                15.2319                14.8522
 Frc consts  --      2.8250                 3.2897                 3.3200
 IR Inten    --     25.6794                 9.2402                27.9857

                     19                     20                     21
                      A                      A                      A
 Frequencies --    694.3223               788.8334               946.2499
 Red. masses --     14.4983                15.3155                17.2143
 Frc consts  --      4.1180                 5.6150                 9.0814
 IR Inten    --    224.8166                41.6928               166.3419

                     22                     23                     24
                      A                      A                      A
 Frequencies --   1048.5989              1117.2371              1193.1167
 Red. masses --     17.0523                 5.1784                 1.3946
 Frc consts  --     11.0472                 3.8083                 1.1697
 IR Inten    --      9.4633               159.5628               105.3214

                     25                     26                     27
                      A                      A                      A
 Frequencies --   1215.8305              1259.8239              1337.2205
 Red. masses --     13.0616                13.2439                12.9209
 Frc consts  --     11.3761                12.3847                13.6128
 IR Inten    --    276.0601               315.3158                34.7213

                     28                     29                     30
                      A                      A                      A
 Frequencies --   1378.6600              1443.0007              3772.3404
 Red. masses --     12.0433                16.8267                 1.0653
 Frc consts  --     13.4868                20.6434                 8.9318
 IR Inten    --    319.0981               226.2031               191.5641

 - Thermochemistry -
 -------------------
 Temperature   298.150 Kelvin.  Pressure   1.00000 Atm.
 Atom     1 has atomic number  6 and mass  12.00000

 Molecular mass:   199.95666 amu.
 Principal axes and moments of inertia in atomic units:
                           1         2         3
     Eigenvalues --  1231.033462224.166222578.82864
           X           -0.46589  -0.59857   0.65165
           Y            0.05179   0.71675   0.69540
           Z            0.88332  -0.35773   0.30293
 This molecule is an asymmetric top.
 Rotational symmetry number  1.
 Warning -- assumption of classical behavior for rotation
           may cause significant error
 Rotational temperatures (Kelvin)      0.07036     0.03894     0.03359
 Rotational constants (GHZ):           1.46604     0.81142     0.69983
 Zero-point vibrational energy     132423.8 (Joules/Mol)
                                   31.65004 (Kcal/Mol)
 Warning -- explicit consideration of  18 degrees of freedom as
           vibrations may cause significant error
 Vibrational temperatures:     52.93    95.87   127.24   242.48   279.19
          (Kelvin)            297.74   346.54   440.22   468.94   480.26
                              492.05   590.70   664.75   670.39   709.27
                              836.63   871.10   886.22   998.97  1134.96
                             1361.44  1508.70  1607.46  1716.63  1749.31
                             1812.61  1923.96  1983.58  2076.16  5427.56

 Zero-point correction=                           0.050438 (Hartree/Particle)
 Thermal correction to Energy=                    0.061350
 Thermal correction to Enthalpy=                  0.062295
 Thermal correction to Gibbs Free Energy=         0.012637
 Sum of electronic and zero-point Energies=          -1199.667263
 Sum of electronic and thermal Energies=             -1199.656350
 Sum of electronic and thermal Enthalpies=           -1199.655406
 Sum of electronic and thermal Free Energies=        -1199.705064

                     E (Thermal)             CV                S
                      KCal/Mol        Cal/Mol-Kelvin    Cal/Mol-Kelvin
 Total                   38.498             37.607            104.513
 Electronic               0.000              0.000              0.000
 Translational            0.889              2.981             41.783
 Rotational               0.889              2.981             30.336
 Vibrational             36.721             31.646             32.394
 Vibration     1          0.594              1.982              5.425
 Vibration     2          0.598              1.970              4.250
 Vibration     3          0.601              1.957              3.694
 Vibration     4          0.625              1.881              2.452
 Vibration     5          0.635              1.848              2.189
 Vibration     6          0.641              1.830              2.071
 Vibration     7          0.658              1.778              1.797
 Vibration     8          0.696              1.662              1.384
 Vibration     9          0.710              1.624              1.280
 Vibration    10          0.715              1.608              1.242
 Vibration    11          0.721              1.592              1.203
 Vibration    12          0.775              1.447              0.925
 Vibration    13          0.820              1.334              0.760
 Vibration    14          0.823              1.326              0.749
 Vibration    15          0.849              1.266              0.676
 Vibration    16          0.938              1.071              0.483
 Vibration    17          0.964              1.020              0.440
 Vibration    18          0.976              0.998              0.423

 Optimization completed.
    -- Stationary point found.
 Normal termination of Gaussian 16 at Sat May 24 08:26:08 2025.
