 Gaussian 16, Revision C.01,
 Gaussian 16:  ES64L-G16RevC.01  3-Jul-2019

 ------------------------------------------
 #P am1 Symm(None) scf(xqc) pop(None) force
 ------------------------------------------

 ------------------------------
 Gaussian input prepared by ASE
 ------------------------------
 Symbolic Z-matrix:
 Charge =  0 Multiplicity = 1

                          Input orientation:
 ---------------------------------------------------------------------
 Center     Atomic      Atomic             Coordinates (Angstroms)
 Number     Number       Type             X           Y           Z
 ---------------------------------------------------------------------
      1          6           0        1.892716   -0.997951   -1.179941
      2          6           0        2.154178   -0.040688   -0.041559
      3          9           0       -0.321775    0.527677    0.270867
      4          9           0        2.538791   -0.610940    1.082557
      5         16           0        1.914641    1.618099   -0.057098
      6          8           0        0.497411    2.043377    0.118882
      7          8           0        2.792870    2.395193    0.730437
      8          8           0        2.111029    2.054258   -1.533905
      9          9           0        1.288847   -0.443558   -2.218674
     10          9           0        3.020917   -1.527001   -1.676100
     11          9           0        1.142932   -2.038160   -0.849352
     12          1           0        2.977525    2.288920   -1.900133
 ---------------------------------------------------------------------

 SCF Done:  E(RAM1) =  0.495204438676     A.U. after   29 cycles
 Normal termination of Gaussian 16 at Sat May 24 08:10:20 2025.
