 Gaussian 16, Revision C.01,
 Gaussian 16:  ES64L-G16RevC.01  3-Jul-2019

 ----------------------------------------------------------------------
 #P M062X/Def2TZVPP Symm(None) scf(xqc) pop(None) opt(NoFreeze,TS,CalcA
 ll,NoEigentest,MaxCycle=999)
 ----------------------------------------------------------------------

 ------------------------------
 Gaussian input prepared by ASE
 ------------------------------
 Symbolic Z-matrix:
 Charge =  0 Multiplicity = 1

 SCF Done:  E(RM062X) =  -1199.71298138     A.U. after   19 cycles
 SCF Done:  E(RM062X) =  -1199.73811985     A.U. after   15 cycles
 SCF Done:  E(RM062X) =  -1199.75957160     A.U. after   14 cycles
 SCF Done:  E(RM062X) =  -1199.76965204     A.U. after   14 cycles
 SCF Done:  E(RM062X) =  -1199.77198252     A.U. after   14 cycles
 SCF Done:  E(RM062X) =  -1199.77234144     A.U. after   13 cycles
 SCF Done:  E(RM062X) =  -1199.77241374     A.U. after   13 cycles
 SCF Done:  E(RM062X) =  -1199.77241656     A.U. after   11 cycles

 Isotropic polarizability for W=    0.000000       66.81 Bohr**3.
 End of Minotr F.D. properties file   721 does not exist.

 Optimization completed.
    -- Stationary point found.

                          Input orientation:
 ---------------------------------------------------------------------
 Center     Atomic      Atomic             Coordinates (Angstroms)
 Number     Number       Type             X           Y           Z
 ---------------------------------------------------------------------
      1          6           0       -0.259401   -1.342879   -0.033306
      2          6           0        0.061224    0.024719   -0.088167
      3          9           0       -0.211589    0.630784   -1.225648
      4          9           0       -0.290295    0.733974    0.974111
      5         16           0        2.316458   -0.106940   -0.027664
      6          8           0        2.972106   -0.159451    1.240634
      7          8           0        2.785611   -0.317589   -1.350484
      8          8           0        2.005481    1.500862   -0.104157
      9          9           0        1.797142   -1.814087    0.143631
     10          9           0       -0.506700   -1.937480    1.057349
     11          9           0       -0.372564   -2.044524   -1.080297
     12          1           0        2.089728    1.849413    0.792987
 ---------------------------------------------------------------------

 ******    1 imaginary frequencies (negative Signs) ******

                      1                      2                      3
                      A                      A                      A
 Frequencies --   -551.0518                31.3696                75.8092
 Red. masses --     12.8464                15.2323                12.4200
 Frc consts  --      2.2984                 0.0088                 0.0421
 IR Inten    --    164.7095                 1.3468                 2.2353

                      4                      5                      6
                      A                      A                      A
 Frequencies --    173.5134               189.0482               207.1186
 Red. masses --     17.7504                17.8994                18.7120
 Frc consts  --      0.3149                 0.3769                 0.4729
 IR Inten    --      3.5084                28.8155                 1.1918

                      7                      8                      9
                      A                      A                      A
 Frequencies --    229.7736               242.3448               294.3045
 Red. masses --     16.7096                17.0515                10.1565
 Frc consts  --      0.5198                 0.5900                 0.5183
 IR Inten    --      1.7610                 1.9874                 8.3540

                     10                     11                     12
                      A                      A                      A
 Frequencies --    341.5878               393.9317               403.0123
 Red. masses --     11.8090                 2.0052                 4.3822
 Frc consts  --      0.8118                 0.1833                 0.4194
 IR Inten    --     10.2761                 8.6675                27.4407

                     13                     14                     15
                      A                      A                      A
 Frequencies --    463.9955               477.3911               521.3965
 Red. masses --     11.0481                 7.1952                 5.2755
 Frc consts  --      1.4014                 0.9661                 0.8450
 IR Inten    --     31.8237               281.3670                11.3892

                     16                     17                     18
                      A                      A                      A
 Frequencies --    546.7861               556.8100               603.4087
 Red. masses --      8.7647                15.1497                15.5492
 Frc consts  --      1.5439                 2.7674                 3.3357
 IR Inten    --    272.5024                 6.8787                82.3328

                     19                     20                     21
                      A                      A                      A
 Frequencies --    614.3826               666.4705               765.7789
 Red. masses --     15.8200                13.3318                16.2271
 Frc consts  --      3.5183                 3.4890                 5.6066
 IR Inten    --     10.0881                 2.5117               199.2020

                     22                     23                     24
                      A                      A                      A
 Frequencies --    834.9957              1145.8776              1182.5622
 Red. masses --     17.4128                 5.7972                 1.3933
 Frc consts  --      7.1530                 4.4848                 1.1480
 IR Inten    --     62.1678               195.4174               115.1670

                     25                     26                     27
                      A                      A                      A
 Frequencies --   1244.9443              1345.8539              1468.3392
 Red. masses --     14.0024                13.1938                12.5730
 Frc consts  --     12.7866                14.0804                15.9714
 IR Inten    --    337.1792               133.9605               196.9226

                     28                     29                     30
                      A                      A                      A
 Frequencies --   1534.0922              1621.0658              3831.8001
 Red. masses --     13.2560                12.5048                 1.0657
 Frc consts  --     18.3809                19.3610                 9.2193
 IR Inten    --    314.8966               618.5305               159.4313

 - Thermochemistry -
 -------------------
 Temperature   298.150 Kelvin.  Pressure   1.00000 Atm.
 Atom     1 has atomic number  6 and mass  12.00000

 Molecular mass:   199.95666 amu.
 Principal axes and moments of inertia in atomic units:
                           1         2         3
     Eigenvalues --  1290.524781971.617022230.28056
           X            0.88428  -0.46521  -0.04033
           Y            0.46683   0.88273   0.05347
           Z            0.01073  -0.06611   0.99775
 This molecule is an asymmetric top.
 Rotational symmetry number  1.
 Warning -- assumption of classical behavior for rotation
           may cause significant error
 Rotational temperatures (Kelvin)      0.06712     0.04393     0.03884
 Rotational constants (GHZ):           1.39846     0.91536     0.80920
    1 imaginary frequencies ignored.
 Zero-point vibrational energy     131635.7 (Joules/Mol)
                                   31.46168 (Kcal/Mol)
 Warning -- explicit consideration of  18 degrees of freedom as
           vibrations may cause significant error
 Vibrational temperatures:     45.13   109.07   249.65   272.00   298.00
          (Kelvin)            330.59   348.68   423.44   491.47   566.78
                              579.84   667.59   686.86   750.17   786.70
                              801.13   868.17   883.96   958.90  1101.79
                             1201.37  1648.66  1701.44  1791.20  1936.38
                             2112.61  2207.22  2332.35  5513.11

 Zero-point correction=                           0.050137 (Hartree/Particle)
 Thermal correction to Energy=                    0.060539
 Thermal correction to Enthalpy=                  0.061484
 Thermal correction to Gibbs Free Energy=         0.013220
 Sum of electronic and zero-point Energies=          -1199.722279
 Sum of electronic and thermal Energies=             -1199.711877
 Sum of electronic and thermal Enthalpies=           -1199.710933
 Sum of electronic and thermal Free Energies=        -1199.759196

                     E (Thermal)             CV                S
                      KCal/Mol        Cal/Mol-Kelvin    Cal/Mol-Kelvin
 Total                   37.989             36.556            101.578
 Electronic               0.000              0.000              0.000
 Translational            0.889              2.981             41.783
 Rotational               0.889              2.981             30.118
 Vibrational             36.212             30.594             29.676
 Vibration     1          0.594              1.983              5.741
 Vibration     2          0.599              1.965              3.997
 Vibration     3          0.627              1.875              2.397
 Vibration     4          0.633              1.855              2.237
 Vibration     5          0.641              1.830              2.069
 Vibration     6          0.652              1.796              1.881
 Vibration     7          0.659              1.775              1.786
 Vibration     8          0.689              1.684              1.449
 Vibration     9          0.721              1.592              1.205
 Vibration    10          0.761              1.483              0.985
 Vibration    11          0.768              1.464              0.952
 Vibration    12          0.822              1.330              0.755
 Vibration    13          0.834              1.300              0.717
 Vibration    14          0.876              1.203              0.607
 Vibration    15          0.902              1.147              0.551
 Vibration    16          0.912              1.125              0.530
 Vibration    17          0.962              1.025              0.444
 Vibration    18          0.974              1.001              0.426

 Normal termination of Gaussian 16 at Sat May 24 10:20:49 2025.
