 Gaussian 16, Revision C.01,
 Gaussian 16:  ES64L-G16RevC.01  3-Jul-2019

 ----------------------------------------------------------------------
 #P M062X/Def2TZVPP Symm(None) scf(xqc) pop(None) freq opt(CalcFC, Tigh
 t)
 ----------------------------------------------------------------------

 ------------------------------
 Gaussian input prepared by ASE
 ------------------------------
 Symbolic Z-matrix:
 Charge =  0 Multiplicity = 1

 SCF Done:  E(RM062X) =  -1199.93550631     A.U. after   13 cycles
 SCF Done:  E(RM062X) =  -1199.93873014     A.U. after   12 cycles
 SCF Done:  E(RM062X) =  -1199.89284280     A.U. after   13 cycles
 SCF Done:  E(RM062X) =  -1199.93977492     A.U. after   12 cycles
 SCF Done:  E(RM062X) =  -1199.94048221     A.U. after   12 cycles
 SCF Done:  E(RM062X) =  -1199.94056483     A.U. after   10 cycles
 SCF Done:  E(RM062X) =  -1199.94056978     A.U. after    8 cycles
 SCF Done:  E(RM062X) =  -1199.94057023     A.U. after    8 cycles
 SCF Done:  E(RM062X) =  -1199.94057052     A.U. after    7 cycles
 SCF Done:  E(RM062X) =  -1199.94057055     A.U. after    5 cycles
 SCF Done:  E(RM062X) =  -1199.94057055     A.U. after    3 cycles
 Optimization completed.
    -- Stationary point found.
 Normal termination of Gaussian 16 at Fri May 23 23:55:08 2025.

 ---------------------------------------------------------------------
 #P Geom=AllCheck Guess=TCheck SCRF=Check GenChk RM062X/def2TZVPP Freq
 ---------------------------------------------------------------------

 Structure from the checkpoint file:  "/tmp/Gau-206667.chk"
 ------------------------------
 Gaussian input prepared by ASE
 ------------------------------
 Charge =  0 Multiplicity = 1

                          Input orientation:
 ---------------------------------------------------------------------
 Center     Atomic      Atomic             Coordinates (Angstroms)
 Number     Number       Type             X           Y           Z
 ---------------------------------------------------------------------
      1          6           0       -0.552381    0.425065   -1.336387
      2          6           0        0.035022   -0.010037    0.027105
      3          9           0       -0.384357    0.837252    0.965019
      4          9           0       -0.401449   -1.236459    0.304782
      5         16           0        1.880069   -0.061302    0.061675
      6          8           0        2.231713   -0.608890    1.313859
      7          8           0        2.304492   -0.598151   -1.182185
      8          8           0        2.215858    1.471234    0.112535
      9          9           0        0.053137    1.541246   -1.751855
     10          9           0       -0.388266   -0.515123   -2.243995
     11          9           0       -1.843603    0.674965   -1.197977
     12          1           0        2.297706    1.827103   -0.784480
 ---------------------------------------------------------------------

 SCF Done:  E(RM062X) =  -1199.94057055     A.U. after    1 cycles

 Isotropic polarizability for W=    0.000000       53.46 Bohr**3.
 End of Minotr F.D. properties file   721 does not exist.

                      1                      2                      3
                      A                      A                      A
 Frequencies --     60.6749                73.5479               143.0279
 Red. masses --     12.9749                15.7329                11.3981
 Frc consts  --      0.0281                 0.0501                 0.1374
 IR Inten    --      1.7535                 1.0316                 5.0115

                      4                      5                      6
                      A                      A                      A
 Frequencies --    203.9902               223.2549               241.8441
 Red. masses --     11.4264                13.8528                 9.2202
 Frc consts  --      0.2801                 0.4068                 0.3177
 IR Inten    --      5.8037                 3.2964                 2.7914

                      7                      8                      9
                      A                      A                      A
 Frequencies --    288.3816               309.6939               319.7088
 Red. masses --     16.5202                 3.7490                 7.7108
 Frc consts  --      0.8095                 0.2119                 0.4644
 IR Inten    --      5.5747                29.4322                11.6861

                     10                     11                     12
                      A                      A                      A
 Frequencies --    342.7216               383.5532               448.0985
 Red. masses --      2.6419                 6.3992                14.6632
 Frc consts  --      0.1828                 0.5547                 1.7347
 IR Inten    --     44.2108                15.9797                 7.2250

                     13                     14                     15
                      A                      A                      A
 Frequencies --    472.9667               530.3658               542.8072
 Red. masses --      4.3991                16.4212                17.6422
 Frc consts  --      0.5798                 2.7215                 3.0626
 IR Inten    --     29.8864                13.2124                23.2627

                     16                     17                     18
                      A                      A                      A
 Frequencies --    608.6709               631.0661               665.6354
 Red. masses --     17.7022                20.0012                16.0443
 Frc consts  --      3.8640                 4.6931                 4.1884
 IR Inten    --      3.0759               109.1196                50.5729

                     19                     20                     21
                      A                      A                      A
 Frequencies --    779.9157               905.1705              1036.9080
 Red. masses --     17.4561                16.7544                12.6313
 Frc consts  --      6.2560                 8.0880                 8.0017
 IR Inten    --     10.3121               183.3498                83.0192

                     22                     23                     24
                      A                      A                      A
 Frequencies --   1148.0477              1199.3019              1260.2493
 Red. masses --      1.1970                13.4754                14.2780
 Frc consts  --      0.9295                11.4196                13.3607
 IR Inten    --    122.9220               143.6778                57.6151

                     25                     26                     27
                      A                      A                      A
 Frequencies --   1274.9912              1277.9927              1313.2729
 Red. masses --     12.4880                14.6475                13.4047
 Frc consts  --     11.9607                14.0952                13.6213
 IR Inten    --    246.6691                83.5988               350.1508

                     28                     29                     30
                      A                      A                      A
 Frequencies --   1393.3007              1503.7013              3806.8768
 Red. masses --     12.7118                15.2930                 1.0656
 Frc consts  --     14.5394                20.3736                 9.0986
 IR Inten    --     97.2968               279.8159               173.1948

 - Thermochemistry -
 -------------------
 Temperature   298.150 Kelvin.  Pressure   1.00000 Atm.
 Atom     1 has atomic number  6 and mass  12.00000

 Molecular mass:   199.95666 amu.
 Principal axes and moments of inertia in atomic units:
                           1         2         3
     Eigenvalues --  1137.718662086.219442235.87147
           X            0.86806  -0.49402  -0.04920
           Y           -0.12609  -0.31523   0.94060
           Z            0.48018   0.81030   0.33593
 This molecule is an asymmetric top.
 Rotational symmetry number  1.
 Warning -- assumption of classical behavior for rotation
           may cause significant error
 Rotational temperatures (Kelvin)      0.07613     0.04152     0.03874
 Rotational constants (GHZ):           1.58628     0.86508     0.80718
 Zero-point vibrational energy     139901.7 (Joules/Mol)
                                   33.43731 (Kcal/Mol)
 Warning -- explicit consideration of  16 degrees of freedom as
           vibrations may cause significant error
 Vibrational temperatures:     87.30   105.82   205.79   293.50   321.21
          (Kelvin)            347.96   414.92   445.58   459.99   493.10
                              551.85   644.71   680.49   763.08   780.98
                              875.74   907.96   957.70  1122.12  1302.34
                             1491.88  1651.78  1725.53  1813.22  1834.43
                             1838.75  1889.51  2004.65  2163.49  5477.25

 Zero-point correction=                           0.053286 (Hartree/Particle)
 Thermal correction to Energy=                    0.063486
 Thermal correction to Enthalpy=                  0.064430
 Thermal correction to Gibbs Free Energy=         0.016995
 Sum of electronic and zero-point Energies=          -1199.887285
 Sum of electronic and thermal Energies=             -1199.877085
 Sum of electronic and thermal Enthalpies=           -1199.876140
 Sum of electronic and thermal Free Energies=        -1199.923575

                     E (Thermal)             CV                S
                      KCal/Mol        Cal/Mol-Kelvin    Cal/Mol-Kelvin
 Total                   39.838             35.974             99.835
 Electronic               0.000              0.000              0.000
 Translational            0.889              2.981             41.783
 Rotational               0.889              2.981             30.052
 Vibrational             38.061             30.013             27.999
 Vibration     1          0.597              1.973              4.435
 Vibration     2          0.599              1.966              4.056
 Vibration     3          0.616              1.910              2.763
 Vibration     4          0.640              1.834              2.097
 Vibration     5          0.649              1.806              1.933
 Vibration     6          0.658              1.776              1.789
 Vibration     7          0.685              1.695              1.483
 Vibration     8          0.699              1.655              1.364
 Vibration     9          0.706              1.636              1.312
 Vibration    10          0.722              1.590              1.199
 Vibration    11          0.753              1.505              1.025
 Vibration    12          0.807              1.365              0.802
 Vibration    13          0.830              1.310              0.729
 Vibration    14          0.885              1.183              0.586
 Vibration    15          0.898              1.155              0.559
 Vibration    16          0.968              1.013              0.435

 Optimization completed.
    -- Stationary point found.
 Normal termination of Gaussian 16 at Fri May 23 23:59:49 2025.
