 Gaussian 16, Revision C.01,
 Gaussian 16:  ES64L-G16RevC.01  3-Jul-2019

 ----------------------------------------------------------------------
 #P M062X/Def2TZVPP Symm(None) scf(xqc) pop(None) opt(NoFreeze,TS,CalcA
 ll,NoEigentest,MaxCycle=999)
 ----------------------------------------------------------------------

 ------------------------------
 Gaussian input prepared by ASE
 ------------------------------
 Symbolic Z-matrix:
 Charge =  0 Multiplicity = 1

 SCF Done:  E(RM062X) =  -1199.65950398     A.U. after   19 cycles
 SCF Done:  E(RM062X) =  -1199.69217736     A.U. after   16 cycles
 SCF Done:  E(RM062X) =  -1199.71740604     A.U. after   15 cycles
 SCF Done:  E(RM062X) =  -1199.73590604     A.U. after   14 cycles
 SCF Done:  E(RM062X) =  -1199.74870217     A.U. after   15 cycles
 SCF Done:  E(RM062X) =  -1199.75705264     A.U. after   14 cycles
 SCF Done:  E(RM062X) =  -1199.75869908     A.U. after   14 cycles
 SCF Done:  E(RM062X) =  -1199.75899391     A.U. after   13 cycles
 SCF Done:  E(RM062X) =  -1199.75919265     A.U. after   13 cycles
 SCF Done:  E(RM062X) =  -1199.75978695     A.U. after   14 cycles
 SCF Done:  E(RM062X) =  -1199.76131395     A.U. after   14 cycles
 SCF Done:  E(RM062X) =  -1199.76385428     A.U. after   14 cycles
 SCF Done:  E(RM062X) =  -1199.76577718     A.U. after   14 cycles
 SCF Done:  E(RM062X) =  -1199.76859966     A.U. after   14 cycles
 SCF Done:  E(RM062X) =  -1199.77322982     A.U. after   14 cycles
 SCF Done:  E(RM062X) =  -1199.77767193     A.U. after   14 cycles
 SCF Done:  E(RM062X) =  -1199.77838869     A.U. after   14 cycles
 SCF Done:  E(RM062X) =  -1199.77843179     A.U. after   11 cycles

 Isotropic polarizability for W=    0.000000       60.80 Bohr**3.
 End of Minotr F.D. properties file   721 does not exist.

 Optimization completed.
    -- Stationary point found.

                          Input orientation:
 ---------------------------------------------------------------------
 Center     Atomic      Atomic             Coordinates (Angstroms)
 Number     Number       Type             X           Y           Z
 ---------------------------------------------------------------------
      1          6           0       -0.126685    0.199781   -1.726260
      2          6           0       -0.441192    0.195928   -0.324022
      3          9           0       -1.065960    1.321706    0.076398
      4          9           0       -1.163901   -0.884705    0.038858
      5         16           0        1.995836    0.009517   -0.131113
      6          8           0        3.403531   -0.106897    0.035306
      7          8           0        1.673649   -0.019728   -1.581911
      8          8           0        1.624787    1.300758    0.673496
      9          9           0       -0.339311   -0.831126   -2.474279
     10          9           0        1.464726   -1.228315    0.625767
     11          9           0       -0.106019    1.309710   -2.385192
     12          1           0        2.468438    1.655071    1.014282
 ---------------------------------------------------------------------

 ******    1 imaginary frequencies (negative Signs) ******

                      1                      2                      3
                      A                      A                      A
 Frequencies --   -802.2220                26.1850               110.1912
 Red. masses --     13.6584                13.0741                17.2524
 Frc consts  --      5.1789                 0.0053                 0.1234
 IR Inten    --     52.0167                 1.7290                54.1338

                      4                      5                      6
                      A                      A                      A
 Frequencies --    132.7841               182.5010               211.4345
 Red. masses --     14.9620                15.9733                13.2297
 Frc consts  --      0.1554                 0.3135                 0.3485
 IR Inten    --      1.3819                 1.8552                 9.4850

                      7                      8                      9
                      A                      A                      A
 Frequencies --    221.7916               266.6647               327.5602
 Red. masses --     18.4211                17.1711                14.1859
 Frc consts  --      0.5339                 0.7194                 0.8968
 IR Inten    --      2.0781                19.6638                 0.5541

                     10                     11                     12
                      A                      A                      A
 Frequencies --    347.5141               386.2069               468.4557
 Red. masses --     17.1597                14.0960                15.5154
 Frc consts  --      1.2210                 1.2388                 2.0061
 IR Inten    --      0.5401                 0.4855                17.1735

                     13                     14                     15
                      A                      A                      A
 Frequencies --    494.7319               519.7473               549.9026
 Red. masses --      4.2091                 1.7912                 4.3257
 Frc consts  --      0.6070                 0.2851                 0.7707
 IR Inten    --    163.2935               107.0648                42.0638

                     16                     17                     18
                      A                      A                      A
 Frequencies --    570.4894               596.1132               622.2895
 Red. masses --      9.7343                10.0865                14.7689
 Frc consts  --      1.8666                 2.1118                 3.3696
 IR Inten    --     43.1775                29.6116                86.5695

                     19                     20                     21
                      A                      A                      A
 Frequencies --    675.9774               782.2401               819.3772
 Red. masses --     13.3895                14.3659                12.2062
 Frc consts  --      3.6048                 5.1792                 4.8283
 IR Inten    --    135.1500                24.3732                34.3206

                     22                     23                     24
                      A                      A                      A
 Frequencies --    951.7868              1130.4956              1175.6657
 Red. masses --     20.8575                12.2308                13.8457
 Frc consts  --     11.1325                 9.2096                11.2755
 IR Inten    --    214.1189               209.5965               347.1859

                     25                     26                     27
                      A                      A                      A
 Frequencies --   1212.3607              1242.3924              1352.2463
 Red. masses --      1.5655                10.7174                 5.0580
 Frc consts  --      1.3558                 9.7467                 5.4493
 IR Inten    --     56.7668               143.4801               653.1040

                     28                     29                     30
                      A                      A                      A
 Frequencies --   1412.9477              1518.0836              3668.4882
 Red. masses --     13.1961                11.4275                 1.0634
 Frc consts  --     15.5220                15.5164                 8.4318
 IR Inten    --    268.2163               215.7779                97.5078

 - Thermochemistry -
 -------------------
 Temperature   298.150 Kelvin.  Pressure   1.00000 Atm.
 Atom     1 has atomic number  6 and mass  12.00000

 Molecular mass:   199.95666 amu.
 Principal axes and moments of inertia in atomic units:
                           1         2         3
     Eigenvalues --  1240.004572125.366072297.89489
           X            0.89382  -0.44213   0.07488
           Y           -0.08246   0.00206   0.99659
           Z            0.44078   0.89695   0.03462
 This molecule is an asymmetric top.
 Rotational symmetry number  1.
 Warning -- assumption of classical behavior for rotation
           may cause significant error
 Rotational temperatures (Kelvin)      0.06985     0.04075     0.03769
 Rotational constants (GHZ):           1.45543     0.84914     0.78539
    1 imaginary frequencies ignored.
 Zero-point vibrational energy     131449.4 (Joules/Mol)
                                   31.41716 (Kcal/Mol)
 Warning -- explicit consideration of  16 degrees of freedom as
           vibrations may cause significant error
 Vibrational temperatures:     37.67   158.54   191.05   262.58   304.21
          (Kelvin)            319.11   383.67   471.29   500.00   555.67
                              674.00   711.81   747.80   791.19   820.81
                              857.67   895.34   972.58  1125.47  1178.90
                             1369.41  1626.53  1691.52  1744.32  1787.53
                             1945.58  2032.92  2184.18  5278.14

 Zero-point correction=                           0.050066 (Hartree/Particle)
 Thermal correction to Energy=                    0.060149
 Thermal correction to Enthalpy=                  0.061093
 Thermal correction to Gibbs Free Energy=         0.013282
 Sum of electronic and zero-point Energies=          -1199.728365
 Sum of electronic and thermal Energies=             -1199.718283
 Sum of electronic and thermal Enthalpies=           -1199.717339
 Sum of electronic and thermal Free Energies=        -1199.765150

                     E (Thermal)             CV                S
                      KCal/Mol        Cal/Mol-Kelvin    Cal/Mol-Kelvin
 Total                   37.744             35.542            100.626
 Electronic               0.000              0.000              0.000
 Translational            0.889              2.981             41.783
 Rotational               0.889              2.981             30.183
 Vibrational             35.966             29.580             28.660
 Vibration     1          0.593              1.985              6.099
 Vibration     2          0.606              1.941              3.266
 Vibration     3          0.613              1.921              2.905
 Vibration     4          0.630              1.864              2.303
 Vibration     5          0.643              1.823              2.031
 Vibration     6          0.648              1.808              1.944
 Vibration     7          0.672              1.734              1.618
 Vibration     8          0.711              1.620              1.272
 Vibration     9          0.725              1.580              1.177
 Vibration    10          0.755              1.500              1.015
 Vibration    11          0.826              1.320              0.742
 Vibration    12          0.850              1.262              0.671
 Vibration    13          0.875              1.206              0.611
 Vibration    14          0.905              1.140              0.544
 Vibration    15          0.927              1.095              0.503
 Vibration    16          0.954              1.040              0.456

 Normal termination of Gaussian 16 at Sat May 24 09:06:17 2025.
