 Gaussian 16, Revision C.01,
 Gaussian 16:  ES64L-G16RevC.01  3-Jul-2019

 ----------------------------------------------------------------------
 #P M062X/Def2TZVPP Symm(None) scf(xqc) pop(None) opt(NoFreeze,TS,CalcA
 ll,NoEigentest,MaxCycle=999)
 ----------------------------------------------------------------------

 ------------------------------
 Gaussian input prepared by ASE
 ------------------------------
 Symbolic Z-matrix:
 Charge =  0 Multiplicity = 1

 SCF Done:  E(RM062X) =  -1199.72607257     A.U. after   20 cycles
 SCF Done:  E(RM062X) =  -1199.73543300     A.U. after   19 cycles
 SCF Done:  E(RM062X) =  -1199.73771453     A.U. after   20 cycles
 SCF Done:  E(RM062X) =  -1199.73835823     A.U. after   17 cycles
 SCF Done:  E(RM062X) =  -1199.73846366     A.U. after   16 cycles
 SCF Done:  E(RM062X) =  -1199.73850806     A.U. after   16 cycles
 SCF Done:  E(RM062X) =  -1199.73897077     A.U. after   17 cycles
 SCF Done:  E(RM062X) =  -1199.73951552     A.U. after   17 cycles
 SCF Done:  E(RM062X) =  -1199.73971897     A.U. after   16 cycles
 SCF Done:  E(RM062X) =  -1199.73972112     A.U. after   12 cycles

 Isotropic polarizability for W=    0.000000       65.90 Bohr**3.
 End of Minotr F.D. properties file   721 does not exist.

 Optimization completed.
    -- Stationary point found.

                          Input orientation:
 ---------------------------------------------------------------------
 Center     Atomic      Atomic             Coordinates (Angstroms)
 Number     Number       Type             X           Y           Z
 ---------------------------------------------------------------------
      1          6           0       -0.733964   -1.218143    0.003862
      2          6           0        0.008572    0.104771   -0.210749
      3          9           0       -0.331063    0.595299   -1.408998
      4          9           0       -0.382339    0.997902    0.722635
      5         16           0        2.063605    0.008009   -0.325423
      6          8           0        1.940595   -0.779839    0.970382
      7          8           0        3.486584   -0.461400    0.076033
      8          8           0        2.170675    1.555982    0.043538
      9          9           0       -0.192364   -2.151510   -0.774032
     10          9           0       -0.661377   -1.606209    1.265665
     11          9           0       -2.016005   -1.089843   -0.322595
     12          1           0        1.440861    1.856520    0.605400
 ---------------------------------------------------------------------

 ******    1 imaginary frequencies (negative Signs) ******

                      1                      2                      3
                      A                      A                      A
 Frequencies --   -892.1775                60.2034                63.5326
 Red. masses --     18.1462                14.6372                17.7962
 Frc consts  --      8.5102                 0.0313                 0.0423
 IR Inten    --    405.9363                 1.1248                 0.2030

                      4                      5                      6
                      A                      A                      A
 Frequencies --    116.3221               171.0779               201.0069
 Red. masses --     17.1496                16.3594                 1.9870
 Frc consts  --      0.1367                 0.2821                 0.0473
 IR Inten    --      0.7058                 2.5310                42.3345

                      7                      8                      9
                      A                      A                      A
 Frequencies --    218.4784               240.8696               255.2305
 Red. masses --      3.2996                16.5525                 8.1088
 Frc consts  --      0.0928                 0.5658                 0.3112
 IR Inten    --     42.4204                 3.6713                 5.8700

                     10                     11                     12
                      A                      A                      A
 Frequencies --    291.6900               309.6797               375.8166
 Red. masses --     16.3405                14.7450                14.2209
 Frc consts  --      0.8191                 0.8331                 1.1834
 IR Inten    --      1.8076                 7.0145                 2.0588

                     13                     14                     15
                      A                      A                      A
 Frequencies --    403.1081               446.6005               474.0796
 Red. masses --      6.2685                11.1135                 8.5024
 Frc consts  --      0.6002                 1.3060                 1.1259
 IR Inten    --     21.6576                 0.9138                 5.5297

                     16                     17                     18
                      A                      A                      A
 Frequencies --    543.2080               600.7978               637.2353
 Red. masses --     17.2751                17.7832                16.4799
 Frc consts  --      3.0033                 3.7820                 3.9428
 IR Inten    --      6.0469                 2.2566                 9.3840

                     19                     20                     21
                      A                      A                      A
 Frequencies --    754.4932               838.7703               867.8857
 Red. masses --     16.3140                16.7490                17.2186
 Frc consts  --      5.4717                 6.9427                 7.6414
 IR Inten    --     51.0577                57.2413               155.1853

                     22                     23                     24
                      A                      A                      A
 Frequencies --    935.8901              1105.5271              1139.3434
 Red. masses --     13.9565                10.4357                 3.1799
 Frc consts  --      7.2024                 7.5147                 2.4321
 IR Inten    --    107.2751                49.6642               283.6297

                     25                     26                     27
                      A                      A                      A
 Frequencies --   1175.7038              1220.9812              1262.9893
 Red. masses --      2.2859                 3.9636                12.7136
 Frc consts  --      1.8617                 3.4814                11.9486
 IR Inten    --     44.8560               103.5366               203.6112

                     28                     29                     30
                      A                      A                      A
 Frequencies --   1292.9578              1381.5549              3773.7282
 Red. masses --     13.0909                12.4635                 1.0658
 Frc consts  --     12.8940                14.0161                 8.9426
 IR Inten    --    273.5339               228.2726               128.3332

 - Thermochemistry -
 -------------------
 Temperature   298.150 Kelvin.  Pressure   1.00000 Atm.
 Atom     1 has atomic number  6 and mass  12.00000

 Molecular mass:   199.95666 amu.
 Principal axes and moments of inertia in atomic units:
                           1         2         3
     Eigenvalues --  1082.015492325.389522656.26692
           X            0.93782  -0.32873  -0.11147
           Y            0.34556   0.91452   0.21033
           Z            0.03280  -0.23577   0.97125
 This molecule is an asymmetric top.
 Rotational symmetry number  1.
 Warning -- assumption of classical behavior for rotation
           may cause significant error
 Rotational temperatures (Kelvin)      0.08005     0.03725     0.03261
 Rotational constants (GHZ):           1.66794     0.77610     0.67943
    1 imaginary frequencies ignored.
 Zero-point vibrational energy     126557.5 (Joules/Mol)
                                   30.24797 (Kcal/Mol)
 Warning -- explicit consideration of  16 degrees of freedom as
           vibrations may cause significant error
 Vibrational temperatures:     86.62    91.41   167.36   246.14   289.20
          (Kelvin)            314.34   346.56   367.22   419.68   445.56
                              540.72   579.98   642.56   682.09   781.56
                              864.41   916.84  1085.55  1206.80  1248.69
                             1346.54  1590.61  1639.26  1691.58  1756.72
                             1817.16  1860.28  1987.75  5429.55

 Zero-point correction=                           0.048203 (Hartree/Particle)
 Thermal correction to Energy=                    0.058902
 Thermal correction to Enthalpy=                  0.059846
 Thermal correction to Gibbs Free Energy=         0.011014
 Sum of electronic and zero-point Energies=          -1199.691518
 Sum of electronic and thermal Energies=             -1199.680819
 Sum of electronic and thermal Enthalpies=           -1199.679875
 Sum of electronic and thermal Free Energies=        -1199.728707

                     E (Thermal)             CV                S
                      KCal/Mol        Cal/Mol-Kelvin    Cal/Mol-Kelvin
 Total                   36.962             36.731            102.776
 Electronic               0.000              0.000              0.000
 Translational            0.889              2.981             41.783
 Rotational               0.889              2.981             30.281
 Vibrational             35.184             30.769             30.712
 Vibration     1          0.597              1.973              4.451
 Vibration     2          0.597              1.972              4.344
 Vibration     3          0.608              1.936              3.161
 Vibration     4          0.626              1.878              2.424
 Vibration     5          0.638              1.838              2.124
 Vibration     6          0.646              1.813              1.972
 Vibration     7          0.658              1.778              1.796
 Vibration     8          0.666              1.754              1.694
 Vibration     9          0.687              1.689              1.464
 Vibration    10          0.699              1.655              1.364
 Vibration    11          0.747              1.522              1.056
 Vibration    12          0.769              1.463              0.951
 Vibration    13          0.806              1.368              0.806
 Vibration    14          0.831              1.308              0.726
 Vibration    15          0.898              1.155              0.558
 Vibration    16          0.959              1.030              0.448

 Normal termination of Gaussian 16 at Sat May 24 07:12:18 2025.
