 Gaussian 16, Revision C.01,
 Gaussian 16:  ES64L-G16RevC.01  3-Jul-2019

 ----------------------------------------------------------------------
 #P M062X/Def2TZVPP Symm(None) scf(xqc) pop(None) freq opt(CalcFC, Tigh
 t)
 ----------------------------------------------------------------------

 ------------------------------
 Gaussian input prepared by ASE
 ------------------------------
 Symbolic Z-matrix:
 Charge =  0 Multiplicity = 1

 SCF Done:  E(RM062X) =  -1199.71426512     A.U. after   15 cycles
 SCF Done:  E(RM062X) =  -1199.71714191     A.U. after   14 cycles
 SCF Done:  E(RM062X) =  -1199.71670502     A.U. after   14 cycles
 SCF Done:  E(RM062X) =  -1199.71757824     A.U. after   12 cycles
 SCF Done:  E(RM062X) =  -1199.71768266     A.U. after   12 cycles
 SCF Done:  E(RM062X) =  -1199.71769581     A.U. after   11 cycles
 SCF Done:  E(RM062X) =  -1199.71769617     A.U. after    8 cycles
 SCF Done:  E(RM062X) =  -1199.71769618     A.U. after    6 cycles
 SCF Done:  E(RM062X) =  -1199.71769618     A.U. after    4 cycles
 SCF Done:  E(RM062X) =  -1199.71769618     A.U. after    3 cycles
 SCF Done:  E(RM062X) =  -1199.71769618     A.U. after    4 cycles
 Optimization completed.
    -- Stationary point found.
 Normal termination of Gaussian 16 at Sat May 24 08:21:12 2025.

 ---------------------------------------------------------------------
 #P Geom=AllCheck Guess=TCheck SCRF=Check GenChk RM062X/def2TZVPP Freq
 ---------------------------------------------------------------------

 Structure from the checkpoint file:  "/tmp/Gau-141826.chk"
 ------------------------------
 Gaussian input prepared by ASE
 ------------------------------
 Charge =  0 Multiplicity = 1

                          Input orientation:
 ---------------------------------------------------------------------
 Center     Atomic      Atomic             Coordinates (Angstroms)
 Number     Number       Type             X           Y           Z
 ---------------------------------------------------------------------
      1          6           0        2.564682    0.031831   -2.689056
      2          6           0        2.475912   -0.554261   -1.313841
      3          9           0       -0.406598    0.650044   -1.262800
      4          9           0        2.723151   -1.875410   -1.289962
      5         16           0        1.658224    0.018576   -0.060914
      6          8           0       -0.036238    0.076429   -0.037437
      7          8           0        1.825423   -0.637377    1.181255
      8          8           0        1.896158    1.550490   -0.118680
      9          9           0        2.201053    1.310089   -2.733656
     10          9           0        3.814947   -0.061136   -3.142756
     11          9           0        1.792862   -0.642650   -3.547300
     12          1           0        1.072191    2.047645    0.005729
 ---------------------------------------------------------------------

 SCF Done:  E(RM062X) =  -1199.71769618     A.U. after    1 cycles

 Isotropic polarizability for W=    0.000000       59.66 Bohr**3.
 End of Minotr F.D. properties file   721 does not exist.

                      1                      2                      3
                      A                      A                      A
 Frequencies --     35.6333                66.8093                88.2846
 Red. masses --     17.6085                15.4654                16.2047
 Frc consts  --      0.0132                 0.0407                 0.0744
 IR Inten    --      0.2093                 0.9764                 1.0545

                      4                      5                      6
                      A                      A                      A
 Frequencies --    167.6276               194.0923               207.4937
 Red. masses --      3.7045                14.0765                13.8258
 Frc consts  --      0.0613                 0.3124                 0.3507
 IR Inten    --     17.8345                 4.7533                 6.6348

                      7                      8                      9
                      A                      A                      A
 Frequencies --    240.9335               304.1057               325.9183
 Red. masses --     13.0693                 1.6343                16.8335
 Frc consts  --      0.4470                 0.0891                 1.0535
 IR Inten    --      1.3781                79.1962                 1.4988

                     10                     11                     12
                      A                      A                      A
 Frequencies --    333.2026               342.3277               410.6706
 Red. masses --      7.6315                 9.0998                16.6477
 Frc consts  --      0.4992                 0.6283                 1.6542
 IR Inten    --     10.8350                 5.6296                 7.2275

                     13                     14                     15
                      A                      A                      A
 Frequencies --    461.8553               466.4164               492.6251
 Red. masses --      9.9232                13.3185                17.5917
 Frc consts  --      1.2471                 1.7071                 2.5153
 IR Inten    --     20.8160                 6.4593                19.7638

                     16                     17                     18
                      A                      A                      A
 Frequencies --    581.0488               605.4812               615.7487
 Red. masses --     14.1724                15.2505                14.8612
 Frc consts  --      2.8192                 3.2941                 3.3198
 IR Inten    --     26.0906                 9.1273                28.1670

                     19                     20                     21
                      A                      A                      A
 Frequencies --    693.5677               788.8076               945.9677
 Red. masses --     14.4613                15.3175                17.2270
 Frc consts  --      4.0986                 5.6154                 9.0826
 IR Inten    --    224.3258                41.2976               165.9308

                     22                     23                     24
                      A                      A                      A
 Frequencies --   1048.9272              1116.3407              1191.0065
 Red. masses --     17.0544                 5.0410                 1.4050
 Frc consts  --     11.0555                 3.7013                 1.1743
 IR Inten    --      9.5081               159.4702               101.3012

                     25                     26                     27
                      A                      A                      A
 Frequencies --   1216.2367              1259.7970              1336.1797
 Red. masses --     13.1130                13.2581                12.8996
 Frc consts  --     11.4285                12.3975                13.5692
 IR Inten    --    278.2975               314.8929                33.4822

                     28                     29                     30
                      A                      A                      A
 Frequencies --   1377.6027              1441.4187              3769.9294
 Red. masses --     12.0505                16.9003                 1.0653
 Frc consts  --     13.4743                20.6883                 8.9204
 IR Inten    --    320.9491               227.4034               191.7823

 - Thermochemistry -
 -------------------
 Temperature   298.150 Kelvin.  Pressure   1.00000 Atm.
 Atom     1 has atomic number  6 and mass  12.00000

 Molecular mass:   199.95666 amu.
 Principal axes and moments of inertia in atomic units:
                           1         2         3
     Eigenvalues --  1231.018432222.915572578.38551
           X           -0.50334  -0.62024   0.60162
           Y            0.09513   0.65224   0.75202
           Z            0.85884  -0.43576   0.26929
 This molecule is an asymmetric top.
 Rotational symmetry number  1.
 Warning -- assumption of classical behavior for rotation
           may cause significant error
 Rotational temperatures (Kelvin)      0.07036     0.03896     0.03359
 Rotational constants (GHZ):           1.46606     0.81188     0.69995
 Zero-point vibrational energy     132343.2 (Joules/Mol)
                                   31.63079 (Kcal/Mol)
 Warning -- explicit consideration of  18 degrees of freedom as
           vibrations may cause significant error
 Vibrational temperatures:     51.27    96.12   127.02   241.18   279.26
          (Kelvin)            298.54   346.65   437.54   468.92   479.40
                              492.53   590.86   664.51   671.07   708.78
                              836.00   871.15   885.93   997.89  1134.92
                             1361.04  1509.17  1606.17  1713.59  1749.89
                             1812.57  1922.46  1982.06  2073.88  5424.09

 Zero-point correction=                           0.050407 (Hartree/Particle)
 Thermal correction to Energy=                    0.061326
 Thermal correction to Enthalpy=                  0.062270
 Thermal correction to Gibbs Free Energy=         0.012575
 Sum of electronic and zero-point Energies=          -1199.667289
 Sum of electronic and thermal Energies=             -1199.656370
 Sum of electronic and thermal Enthalpies=           -1199.655426
 Sum of electronic and thermal Free Energies=        -1199.705121

                     E (Thermal)             CV                S
                      KCal/Mol        Cal/Mol-Kelvin    Cal/Mol-Kelvin
 Total                   38.483             37.618            104.592
 Electronic               0.000              0.000              0.000
 Translational            0.889              2.981             41.783
 Rotational               0.889              2.981             30.335
 Vibrational             36.705             31.656             32.474
 Vibration     1          0.594              1.982              5.488
 Vibration     2          0.598              1.970              4.245
 Vibration     3          0.601              1.957              3.698
 Vibration     4          0.624              1.882              2.462
 Vibration     5          0.635              1.848              2.188
 Vibration     6          0.641              1.829              2.066
 Vibration     7          0.658              1.778              1.796
 Vibration     8          0.695              1.666              1.394
 Vibration     9          0.710              1.624              1.280
 Vibration    10          0.715              1.609              1.245
 Vibration    11          0.721              1.591              1.201
 Vibration    12          0.775              1.447              0.924
 Vibration    13          0.820              1.335              0.761
 Vibration    14          0.824              1.325              0.748
 Vibration    15          0.848              1.266              0.677
 Vibration    16          0.938              1.072              0.483
 Vibration    17          0.964              1.020              0.440
 Vibration    18          0.975              0.999              0.423

                           ! Non-Optimized Parameters !
 Normal termination of Gaussian 16 at Sat May 24 08:25:55 2025.
