 Gaussian 16, Revision C.01,
 Gaussian 16:  ES64L-G16RevC.01  3-Jul-2019

 ----------------------------------------------------------------------
 #P M062X/Def2TZVPP Symm(None) scf(xqc) pop(None) freq opt(CalcFC, Tigh
 t)
 ----------------------------------------------------------------------

 ------------------------------
 Gaussian input prepared by ASE
 ------------------------------
 Symbolic Z-matrix:
 Charge =  0 Multiplicity = 1

 SCF Done:  E(RM062X) =  -1199.70996281     A.U. after   14 cycles
 SCF Done:  E(RM062X) =  -1199.71791380     A.U. after   14 cycles
 SCF Done:  E(RM062X) =  -1199.71877701     A.U. after   13 cycles
 SCF Done:  E(RM062X) =  -1199.71890442     A.U. after   11 cycles
 SCF Done:  E(RM062X) =  -1199.71892260     A.U. after   11 cycles
 SCF Done:  E(RM062X) =  -1199.71892464     A.U. after    9 cycles
 SCF Done:  E(RM062X) =  -1199.71892541     A.U. after    8 cycles
 SCF Done:  E(RM062X) =  -1199.71892545     A.U. after    6 cycles
 SCF Done:  E(RM062X) =  -1199.71892545     A.U. after    5 cycles
 SCF Done:  E(RM062X) =  -1199.71892545     A.U. after    5 cycles
 SCF Done:  E(RM062X) =  -1199.71892545     A.U. after    3 cycles
 SCF Done:  E(RM062X) =  -1199.71892545     A.U. after    4 cycles
 SCF Done:  E(RM062X) =  -1199.71892545     A.U. after    4 cycles
 Optimization completed.
    -- Stationary point found.
 Normal termination of Gaussian 16 at Sat May 24 08:21:46 2025.

 ---------------------------------------------------------------------
 #P Geom=AllCheck Guess=TCheck SCRF=Check GenChk RM062X/def2TZVPP Freq
 ---------------------------------------------------------------------

 Structure from the checkpoint file:  "/tmp/Gau-296407.chk"
 ------------------------------
 Gaussian input prepared by ASE
 ------------------------------
 Charge =  0 Multiplicity = 1

                          Input orientation:
 ---------------------------------------------------------------------
 Center     Atomic      Atomic             Coordinates (Angstroms)
 Number     Number       Type             X           Y           Z
 ---------------------------------------------------------------------
      1          6           0        2.447007    0.044148   -2.655873
      2          6           0        2.484642   -0.534936   -1.278549
      3          9           0       -0.525771    0.717878    0.863481
      4          9           0        2.723870   -1.858721   -1.261327
      5         16           0        1.730781    0.059561    0.019772
      6          8           0        0.133984    0.138746   -0.245745
      7          8           0        1.965472   -0.601689    1.246565
      8          8           0        1.940885    1.600623    0.050876
      9          9           0        2.122037    1.336534   -2.642876
     10          9           0        3.641758   -0.078000   -3.237683
     11          9           0        1.572190   -0.590753   -3.440227
     12          1           0        2.875539    1.807765    0.203186
 ---------------------------------------------------------------------

 SCF Done:  E(RM062X) =  -1199.71892545     A.U. after    1 cycles

 Isotropic polarizability for W=    0.000000       62.44 Bohr**3.
 End of Minotr F.D. properties file   721 does not exist.

                      1                      2                      3
                      A                      A                      A
 Frequencies --     32.2931                55.0600               122.2310
 Red. masses --     16.7155                15.4329                14.4982
 Frc consts  --      0.0103                 0.0276                 0.1276
 IR Inten    --      0.4013                 1.0656                 3.3174

                      4                      5                      6
                      A                      A                      A
 Frequencies --    133.7372               178.4759               211.8512
 Red. masses --     15.9968                 6.5579                15.8965
 Frc consts  --      0.1686                 0.1231                 0.4204
 IR Inten    --      0.0800                13.2781                 1.1730

                      7                      8                      9
                      A                      A                      A
 Frequencies --    241.3849               275.9523               299.3886
 Red. masses --      4.8672                 2.0705                 5.0279
 Frc consts  --      0.1671                 0.0929                 0.2655
 IR Inten    --     12.1234                51.4468                10.2687

                     10                     11                     12
                      A                      A                      A
 Frequencies --    328.5411               352.5452               449.0671
 Red. masses --     14.4133                 7.1612                11.8461
 Frc consts  --      0.9166                 0.5244                 1.4075
 IR Inten    --      4.6066                 8.8475                 2.7402

                     13                     14                     15
                      A                      A                      A
 Frequencies --    454.9830               467.0468               507.4214
 Red. masses --      9.0441                12.7735                14.8419
 Frc consts  --      1.1031                 1.6416                 2.2515
 IR Inten    --     34.0650                 4.1885                26.4533

                     16                     17                     18
                      A                      A                      A
 Frequencies --    600.7796               608.3257               642.7338
 Red. masses --     16.5243                16.4002                16.7611
 Frc consts  --      3.5140                 3.5758                 4.0796
 IR Inten    --      8.6684                 0.9678               143.7928

                     19                     20                     21
                      A                      A                      A
 Frequencies --    755.9304               782.4335               925.7324
 Red. masses --     16.4535                17.8653                17.2841
 Frc consts  --      5.5395                 6.4440                 8.7271
 IR Inten    --     32.5858                15.8468                86.3366

                     22                     23                     24
                      A                      A                      A
 Frequencies --    944.9580              1116.8565              1155.5961
 Red. masses --     17.3355                 8.0314                 1.2409
 Frc consts  --      9.1204                 5.9025                 0.9764
 IR Inten    --    211.7258                89.3511               129.6425

                     25                     26                     27
                      A                      A                      A
 Frequencies --   1217.5539              1253.6219              1326.0575
 Red. masses --     13.1486                13.3000                14.0935
 Frc consts  --     11.4843                12.3150                14.6013
 IR Inten    --    281.3203               313.8781                19.7376

                     28                     29                     30
                      A                      A                      A
 Frequencies --   1377.2439              1429.7722              3794.8592
 Red. masses --     12.2402                17.6386                 1.0657
 Frc consts  --     13.6792                21.2446                 9.0422
 IR Inten    --    405.9385               235.2793               214.2222

 - Thermochemistry -
 -------------------
 Temperature   298.150 Kelvin.  Pressure   1.00000 Atm.
 Atom     1 has atomic number  6 and mass  12.00000

 Molecular mass:   199.95666 amu.
 Principal axes and moments of inertia in atomic units:
                           1         2         3
     Eigenvalues --  1080.114042594.177982861.31198
           X           -0.47519  -0.47657   0.73965
           Y            0.13572   0.79086   0.59676
           Z            0.86935  -0.38396   0.31113
 This molecule is an asymmetric top.
 Rotational symmetry number  1.
 Warning -- assumption of classical behavior for rotation
           may cause significant error
 Rotational temperatures (Kelvin)      0.08019     0.03339     0.03027
 Rotational constants (GHZ):           1.67088     0.69569     0.63074
 Zero-point vibrational energy     131843.0 (Joules/Mol)
                                   31.51124 (Kcal/Mol)
 Warning -- explicit consideration of  17 degrees of freedom as
           vibrations may cause significant error
 Vibrational temperatures:     46.46    79.22   175.86   192.42   256.79
          (Kelvin)            304.81   347.30   397.03   430.75   472.70
                              507.23   646.11   654.62   671.98   730.07
                              864.39   875.25   924.75  1087.62  1125.75
                             1331.92  1359.58  1606.91  1662.64  1751.79
                             1803.68  1907.90  1981.55  2057.12  5459.96

 Zero-point correction=                           0.050216 (Hartree/Particle)
 Thermal correction to Energy=                    0.061176
 Thermal correction to Enthalpy=                  0.062120
 Thermal correction to Gibbs Free Energy=         0.012108
 Sum of electronic and zero-point Energies=          -1199.668709
 Sum of electronic and thermal Energies=             -1199.657749
 Sum of electronic and thermal Enthalpies=           -1199.656805
 Sum of electronic and thermal Free Energies=        -1199.706817

                     E (Thermal)             CV                S
                      KCal/Mol        Cal/Mol-Kelvin    Cal/Mol-Kelvin
 Total                   38.389             37.604            105.259
 Electronic               0.000              0.000              0.000
 Translational            0.889              2.981             41.783
 Rotational               0.889              2.981             30.462
 Vibrational             36.611             31.642             33.013
 Vibration     1          0.594              1.983              5.683
 Vibration     2          0.596              1.976              4.627
 Vibration     3          0.610              1.931              3.065
 Vibration     4          0.613              1.920              2.892
 Vibration     5          0.629              1.869              2.344
 Vibration     6          0.643              1.823              2.028
 Vibration     7          0.658              1.777              1.793
 Vibration     8          0.678              1.718              1.559
 Vibration     9          0.692              1.675              1.420
 Vibration    10          0.712              1.618              1.267
 Vibration    11          0.729              1.570              1.155
 Vibration    12          0.808              1.363              0.799
 Vibration    13          0.813              1.350              0.781
 Vibration    14          0.824              1.323              0.746
 Vibration    15          0.863              1.234              0.640
 Vibration    16          0.959              1.030              0.448
 Vibration    17          0.967              1.014              0.436

 Optimization completed.
    -- Stationary point found.
 Normal termination of Gaussian 16 at Sat May 24 08:26:24 2025.
