 Gaussian 16, Revision C.01,
 Gaussian 16:  ES64L-G16RevC.01  3-Jul-2019

 ----------------------------------------------------------------------
 #P M062X/Def2TZVPP Symm(None) scf(xqc) pop(None) opt(NoFreeze,TS,CalcA
 ll,NoEigentest,MaxCycle=999)
 ----------------------------------------------------------------------

 ------------------------------
 Gaussian input prepared by ASE
 ------------------------------
 Symbolic Z-matrix:
 Charge =  0 Multiplicity = 1

 SCF Done:  E(RM062X) =  -1199.74138485     A.U. after   16 cycles
 SCF Done:  E(RM062X) =  -1199.75992910     A.U. after   14 cycles
 SCF Done:  E(RM062X) =  -1199.76298933     A.U. after   14 cycles
 SCF Done:  E(RM062X) =  -1199.76398877     A.U. after   13 cycles
 SCF Done:  E(RM062X) =  -1199.76408727     A.U. after   12 cycles
 SCF Done:  E(RM062X) =  -1199.76409015     A.U. after   10 cycles

 Isotropic polarizability for W=    0.000000       59.15 Bohr**3.
 End of Minotr F.D. properties file   721 does not exist.

 Optimization completed.
    -- Stationary point found.

                          Input orientation:
 ---------------------------------------------------------------------
 Center     Atomic      Atomic             Coordinates (Angstroms)
 Number     Number       Type             X           Y           Z
 ---------------------------------------------------------------------
      1          6           0       -0.164609   -1.164682   -0.957411
      2          6           0        0.000425   -0.038322    0.104330
      3          9           0       -0.582700    1.040318   -0.415121
      4          9           0       -0.603575   -0.332174    1.233904
      5         16           0        1.851973   -0.003283    0.066761
      6          8           0        2.732494   -0.020058    1.187208
      7          8           0        1.995699   -0.567307   -1.270677
      8          8           0        1.899995    1.575429   -0.306379
      9          9           0       -0.610517   -2.307910   -0.724378
     10          9           0        1.279882   -1.765910    0.570636
     11          9           0       -0.316166   -0.838493   -2.163931
     12          1           0        2.423311    2.017679    0.371669
 ---------------------------------------------------------------------

 ******    1 imaginary frequencies (negative Signs) ******

                      1                      2                      3
                      A                      A                      A
 Frequencies --   -333.9809               109.5538               129.0394
 Red. masses --     15.7413                12.5021                15.0879
 Frc consts  --      1.0345                 0.0884                 0.1480
 IR Inten    --     19.9368                 5.0670               201.6666

                      4                      5                      6
                      A                      A                      A
 Frequencies --    175.5412               189.5765               253.1306
 Red. masses --     16.3283                12.6681                17.9631
 Frc consts  --      0.2964                 0.2682                 0.6781
 IR Inten    --      0.9934                 6.4867                 5.8838

                      7                      8                      9
                      A                      A                      A
 Frequencies --    283.2578               296.0703               301.2567
 Red. masses --     15.1231                15.4339                12.9864
 Frc consts  --      0.7149                 0.7971                 0.6944
 IR Inten    --     14.6531                 4.2433                29.2621

                     10                     11                     12
                      A                      A                      A
 Frequencies --    340.6214               371.7122               412.3267
 Red. masses --      2.1851                 2.4128                16.6788
 Frc consts  --      0.1494                 0.1964                 1.6707
 IR Inten    --     76.7265                26.6035                52.6418

                     13                     14                     15
                      A                      A                      A
 Frequencies --    442.9655               506.5108               535.5939
 Red. masses --     13.0889                 6.7944                 9.1371
 Frc consts  --      1.5132                 1.0270                 1.5443
 IR Inten    --     50.7145                 5.9372                 9.1123

                     16                     17                     18
                      A                      A                      A
 Frequencies --    560.8472               582.7381               640.6468
 Red. masses --     13.8796                17.4685                14.4789
 Frc consts  --      2.5723                 3.4950                 3.5012
 IR Inten    --     95.1880                57.5390                56.2808

                     19                     20                     21
                      A                      A                      A
 Frequencies --    675.3980               772.3051               796.4605
 Red. masses --     14.5248                16.3567                15.9358
 Frc consts  --      3.9037                 5.7481                 5.9560
 IR Inten    --     38.9357                34.1477               244.7269

                     22                     23                     24
                      A                      A                      A
 Frequencies --    960.7867              1122.5981              1162.1952
 Red. masses --     13.0574                11.8753                 1.2977
 Frc consts  --      7.1017                 8.8175                 1.0327
 IR Inten    --     14.8575               184.7125               158.7432

                     25                     26                     27
                      A                      A                      A
 Frequencies --   1210.4360              1309.8221              1401.1188
 Red. masses --     13.1006                12.7534                10.0678
 Frc consts  --     11.3091                12.8914                11.6449
 IR Inten    --     95.1236               152.2536               368.5862

                     28                     29                     30
                      A                      A                      A
 Frequencies --   1453.7236              1531.2631              3859.9368
 Red. masses --     13.2983                13.4214                 1.0658
 Frc consts  --     16.5581                18.5416                 9.3558
 IR Inten    --    229.8786               375.7618               160.3551

 - Thermochemistry -
 -------------------
 Temperature   298.150 Kelvin.  Pressure   1.00000 Atm.
 Atom     1 has atomic number  6 and mass  12.00000

 Molecular mass:   199.95666 amu.
 Principal axes and moments of inertia in atomic units:
                           1         2         3
     Eigenvalues --  1230.099571904.676572006.73493
           X            0.78838  -0.40966  -0.45895
           Y            0.49356   0.86652   0.07439
           Z            0.36721  -0.28517   0.88534
 This molecule is an asymmetric top.
 Rotational symmetry number  1.
 Warning -- assumption of classical behavior for rotation
           may cause significant error
 Rotational temperatures (Kelvin)      0.07041     0.04547     0.04316
 Rotational constants (GHZ):           1.46715     0.94753     0.89934
    1 imaginary frequencies ignored.
 Zero-point vibrational energy     133906.6 (Joules/Mol)
                                   32.00444 (Kcal/Mol)
 Warning -- explicit consideration of  16 degrees of freedom as
           vibrations may cause significant error
 Vibrational temperatures:    157.62   185.66   252.56   272.76   364.20
          (Kelvin)            407.54   425.98   433.44   490.08   534.81
                              593.25   637.33   728.76   770.60   806.93
                              838.43   921.75   971.75  1111.17  1145.93
                             1382.36  1615.17  1672.14  1741.55  1884.54
                             2015.90  2091.58  2203.15  5553.59

 Zero-point correction=                           0.051002 (Hartree/Particle)
 Thermal correction to Energy=                    0.060782
 Thermal correction to Enthalpy=                  0.061726
 Thermal correction to Gibbs Free Energy=         0.015946
 Sum of electronic and zero-point Energies=          -1199.713088
 Sum of electronic and thermal Energies=             -1199.703308
 Sum of electronic and thermal Enthalpies=           -1199.702364
 Sum of electronic and thermal Free Energies=        -1199.748144

                     E (Thermal)             CV                S
                      KCal/Mol        Cal/Mol-Kelvin    Cal/Mol-Kelvin
 Total                   38.141             35.599             96.354
 Electronic               0.000              0.000              0.000
 Translational            0.889              2.981             41.783
 Rotational               0.889              2.981             29.932
 Vibrational             36.364             29.637             24.639
 Vibration     1          0.606              1.942              3.277
 Vibration     2          0.612              1.924              2.960
 Vibration     3          0.627              1.873              2.375
 Vibration     4          0.633              1.854              2.232
 Vibration     5          0.664              1.758              1.709
 Vibration     6          0.682              1.705              1.514
 Vibration     7          0.690              1.681              1.439
 Vibration     8          0.693              1.671              1.410
 Vibration     9          0.720              1.594              1.209
 Vibration    10          0.743              1.530              1.073
 Vibration    11          0.776              1.443              0.918
 Vibration    12          0.803              1.376              0.817
 Vibration    13          0.862              1.236              0.642
 Vibration    14          0.891              1.171              0.575
 Vibration    15          0.917              1.116              0.522
 Vibration    16          0.940              1.069              0.480

 Normal termination of Gaussian 16 at Sat May 24 08:01:58 2025.
