 Gaussian 16, Revision C.01,
 Gaussian 16:  ES64L-G16RevC.01  3-Jul-2019

 ------------------------------------------
 #P am1 Symm(None) scf(xqc) pop(None) force
 ------------------------------------------

 ------------------------------
 Gaussian input prepared by ASE
 ------------------------------
 Symbolic Z-matrix:
 Charge =  0 Multiplicity = 1

                          Input orientation:
 ---------------------------------------------------------------------
 Center     Atomic      Atomic             Coordinates (Angstroms)
 Number     Number       Type             X           Y           Z
 ---------------------------------------------------------------------
      1          6           0        1.984860   -1.042807   -1.193219
      2          6           0        2.029149   -0.104762   -0.010534
      3          9           0       -0.353489    0.761547    0.340970
      4          9           0        1.969387   -0.688628    1.169424
      5         16           0        1.977441    1.569102   -0.079124
      6          8           0        0.677203    2.150384    0.358905
      7          8           0        3.035218    2.292500    0.515165
      8          8           0        2.015473    1.952860   -1.582802
      9          9           0        1.383972   -0.540632   -2.259863
     10          9           0        3.204995   -1.399029   -1.621344
     11          9           0        1.361934   -2.183471   -0.939534
     12          1           0        2.723940    2.502162   -1.952063
 ---------------------------------------------------------------------

 SCF Done:  E(RAM1) =  0.467700675093     A.U. after   28 cycles
 Normal termination of Gaussian 16 at Sat May 24 08:10:55 2025.
