 Gaussian 16, Revision C.01,
 Gaussian 16:  ES64L-G16RevC.01  3-Jul-2019

 ----------------------------------------------------------------------
 #P M062X/Def2TZVPP Symm(None) scf(xqc) pop(None) opt(NoFreeze,TS,CalcA
 ll,NoEigentest,MaxCycle=999)
 ----------------------------------------------------------------------

 ------------------------------
 Gaussian input prepared by ASE
 ------------------------------
 Symbolic Z-matrix:
 Charge =  0 Multiplicity = 1

 SCF Done:  E(RM062X) =  -1199.72189565     A.U. after   23 cycles
 SCF Done:  E(RM062X) =  -1199.73129654     A.U. after   19 cycles
 SCF Done:  E(RM062X) =  -1199.73422564     A.U. after   18 cycles
 SCF Done:  E(RM062X) =  -1199.73668344     A.U. after   18 cycles
 SCF Done:  E(RM062X) =  -1199.73735299     A.U. after   17 cycles
 SCF Done:  E(RM062X) =  -1199.73741710     A.U. after   15 cycles
 SCF Done:  E(RM062X) =  -1199.73741733     A.U. after    9 cycles

 Isotropic polarizability for W=    0.000000       67.54 Bohr**3.
 End of Minotr F.D. properties file   721 does not exist.

 Optimization completed.
    -- Stationary point found.

                          Input orientation:
 ---------------------------------------------------------------------
 Center     Atomic      Atomic             Coordinates (Angstroms)
 Number     Number       Type             X           Y           Z
 ---------------------------------------------------------------------
      1          6           0       -0.860478    0.644798   -1.066157
      2          6           0       -0.102337    0.029200    0.127642
      3          9           0       -0.505287    0.647995    1.236961
      4          9           0       -0.428450   -1.267693    0.184549
      5         16           0        1.908214    0.059599   -0.241119
      6          8           0        2.000130   -0.453093    1.185612
      7          8           0        3.424191   -0.185144    0.099312
      8          8           0        1.870883    1.657425   -0.197882
      9          9           0       -0.760670    1.963937   -1.071268
     10          9           0       -0.363462    0.171825   -2.207472
     11          9           0       -2.146814    0.320614   -1.002155
     12          1           0        2.757860    1.990809   -0.005616
 ---------------------------------------------------------------------

 ******    1 imaginary frequencies (negative Signs) ******

                      1                      2                      3
                      A                      A                      A
 Frequencies --   -977.2462                27.7023                78.4127
 Red. masses --     17.6835                11.7235                16.8069
 Frc consts  --      9.9501                 0.0053                 0.0609
 IR Inten    --    670.5794                 1.0374                 0.2026

                      4                      5                      6
                      A                      A                      A
 Frequencies --    125.7866               150.9223               183.5054
 Red. masses --     12.7996                13.4514                 6.1907
 Frc consts  --      0.1193                 0.1805                 0.1228
 IR Inten    --      1.5252                 1.0800                11.3206

                      7                      8                      9
                      A                      A                      A
 Frequencies --    226.9211               233.1603               284.9525
 Red. masses --     17.6254                18.4151                17.7607
 Frc consts  --      0.5347                 0.5898                 0.8497
 IR Inten    --      2.0054                 1.4219                 2.5036

                     10                     11                     12
                      A                      A                      A
 Frequencies --    302.0441               321.9002               370.8794
 Red. masses --      2.2251                 2.4166                17.7276
 Frc consts  --      0.1196                 0.1475                 1.4367
 IR Inten    --     41.6777                50.6861                 1.0848

                     13                     14                     15
                      A                      A                      A
 Frequencies --    387.2103               452.4820               470.7835
 Red. masses --     13.4295                 9.1651                10.1105
 Frc consts  --      1.1863                 1.1056                 1.3203
 IR Inten    --     10.3325                18.5807                16.9710

                     16                     17                     18
                      A                      A                      A
 Frequencies --    541.5865               602.9542               626.3439
 Red. masses --     17.4345                17.7727                16.7896
 Frc consts  --      3.0130                 3.8069                 3.8808
 IR Inten    --      3.1350                 1.5340                 9.5458

                     19                     20                     21
                      A                      A                      A
 Frequencies --    756.8617               802.9082               868.1093
 Red. masses --     16.3756                16.5386                17.1977
 Frc consts  --      5.5269                 6.2818                 7.6360
 IR Inten    --     65.2444                68.0024               145.5386

                     22                     23                     24
                      A                      A                      A
 Frequencies --    941.7739              1099.3300              1147.9954
 Red. masses --     13.5913                 7.3608                 2.3369
 Frc consts  --      7.1024                 5.2412                 1.8145
 IR Inten    --    132.6945                30.4236               181.2719

                     25                     26                     27
                      A                      A                      A
 Frequencies --   1167.3121              1253.8066              1265.1752
 Red. masses --      2.4715                10.8841                12.7358
 Frc consts  --      1.9842                10.0810                12.0110
 IR Inten    --     80.3848                76.9230               220.9890

                     28                     29                     30
                      A                      A                      A
 Frequencies --   1290.8465              1355.0905              3819.4978
 Red. masses --     12.9850                12.3271                 1.0655
 Frc consts  --     12.7480                13.3367                 9.1585
 IR Inten    --    314.1202               338.8108               171.0406

 - Thermochemistry -
 -------------------
 Temperature   298.150 Kelvin.  Pressure   1.00000 Atm.
 Atom     1 has atomic number  6 and mass  12.00000

 Molecular mass:   199.95666 amu.
 Principal axes and moments of inertia in atomic units:
                           1         2         3
     Eigenvalues --  1047.400762386.729252622.91835
           X            0.94046   0.31507  -0.12754
           Y           -0.12860   0.67715   0.72452
           Z            0.31464  -0.66497   0.67736
 This molecule is an asymmetric top.
 Rotational symmetry number  1.
 Warning -- assumption of classical behavior for rotation
           may cause significant error
 Rotational temperatures (Kelvin)      0.08269     0.03629     0.03302
 Rotational constants (GHZ):           1.72307     0.75616     0.68807
    1 imaginary frequencies ignored.
 Zero-point vibrational energy     126542.5 (Joules/Mol)
                                   30.24438 (Kcal/Mol)
 Warning -- explicit consideration of  16 degrees of freedom as
           vibrations may cause significant error
 Vibrational temperatures:     39.86   112.82   180.98   217.14   264.02
          (Kelvin)            326.49   335.47   409.98   434.57   463.14
                              533.61   557.11   651.02   677.35   779.22
                              867.52   901.17  1088.96  1155.21  1249.02
                             1355.00  1581.69  1651.71  1679.50  1803.95
                             1820.30  1857.24  1949.67  5495.41

 Zero-point correction=                           0.048197 (Hartree/Particle)
 Thermal correction to Energy=                    0.058942
 Thermal correction to Enthalpy=                  0.059886
 Thermal correction to Gibbs Free Energy=         0.010510
 Sum of electronic and zero-point Energies=          -1199.689220
 Sum of electronic and thermal Energies=             -1199.678476
 Sum of electronic and thermal Enthalpies=           -1199.677531
 Sum of electronic and thermal Free Energies=        -1199.726907

                     E (Thermal)             CV                S
                      KCal/Mol        Cal/Mol-Kelvin    Cal/Mol-Kelvin
 Total                   36.987             36.778            103.920
 Electronic               0.000              0.000              0.000
 Translational            0.889              2.981             41.783
 Rotational               0.889              2.981             30.262
 Vibrational             35.209             30.816             31.874
 Vibration     1          0.593              1.984              5.988
 Vibration     2          0.600              1.964              3.930
 Vibration     3          0.611              1.927              3.009
 Vibration     4          0.618              1.902              2.661
 Vibration     5          0.631              1.862              2.292
 Vibration     6          0.651              1.800              1.903
 Vibration     7          0.654              1.790              1.854
 Vibration     8          0.683              1.702              1.504
 Vibration     9          0.694              1.670              1.406
 Vibration    10          0.707              1.632              1.300
 Vibration    11          0.743              1.532              1.076
 Vibration    12          0.756              1.497              1.011
 Vibration    13          0.811              1.355              0.788
 Vibration    14          0.828              1.315              0.735
 Vibration    15          0.897              1.158              0.562
 Vibration    16          0.961              1.026              0.445

 Normal termination of Gaussian 16 at Sat May 24 06:58:51 2025.
