 Gaussian 16, Revision C.01,
 Gaussian 16:  ES64L-G16RevC.01  3-Jul-2019

 ----------------------------------------------------------------------
 #P M062X/Def2TZVPP Symm(None) scf(xqc) pop(None) opt(NoFreeze,TS,CalcA
 ll,NoEigentest,MaxCycle=999)
 ----------------------------------------------------------------------

 ------------------------------
 Gaussian input prepared by ASE
 ------------------------------
 Symbolic Z-matrix:
 Charge =  0 Multiplicity = 1

 SCF Done:  E(RM062X) =  -1199.71451255     A.U. after   20 cycles
 SCF Done:  E(RM062X) =  -1199.73727366     A.U. after   16 cycles
 SCF Done:  E(RM062X) =  -1199.75990195     A.U. after   15 cycles
 SCF Done:  E(RM062X) =  -1199.76958054     A.U. after   14 cycles
 SCF Done:  E(RM062X) =  -1199.77216792     A.U. after   14 cycles
 SCF Done:  E(RM062X) =  -1199.77241417     A.U. after   12 cycles
 SCF Done:  E(RM062X) =  -1199.77241590     A.U. after    9 cycles

 Isotropic polarizability for W=    0.000000       66.83 Bohr**3.
 End of Minotr F.D. properties file   721 does not exist.

 Optimization completed.
    -- Stationary point found.

                          Input orientation:
 ---------------------------------------------------------------------
 Center     Atomic      Atomic             Coordinates (Angstroms)
 Number     Number       Type             X           Y           Z
 ---------------------------------------------------------------------
      1          6           0       -0.219705   -1.263701    0.006892
      2          6           0        0.211153    0.074207   -0.013285
      3          9           0       -0.056277    0.744586   -1.115383
      4          9           0       -0.036484    0.767708    1.088042
      5         16           0        2.448162   -0.242387   -0.052832
      6          8           0        3.140751   -0.396580    1.187282
      7          8           0        2.851595   -0.439120   -1.399201
      8          8           0        2.268922    1.387194   -0.061190
      9          9           0        1.797074   -1.907479    0.076188
     10          9           0       -0.470414   -1.878411    1.085514
     11          9           0       -0.433426   -1.912389   -1.058366
     12          1           0        2.410060    1.693308    0.844258
 ---------------------------------------------------------------------

 ******    1 imaginary frequencies (negative Signs) ******

                      1                      2                      3
                      A                      A                      A
 Frequencies --   -550.4617                32.3958                73.3432
 Red. masses --     12.8761                15.3582                12.4728
 Frc consts  --      2.2987                 0.0095                 0.0395
 IR Inten    --    165.0686                 1.2139                 2.2240

                      4                      5                      6
                      A                      A                      A
 Frequencies --    173.3317               189.1500               207.0585
 Red. masses --     17.7669                17.9070                18.7130
 Frc consts  --      0.3145                 0.3775                 0.4727
 IR Inten    --      3.5747                29.0475                 1.2295

                      7                      8                      9
                      A                      A                      A
 Frequencies --    230.0293               243.0667               295.0842
 Red. masses --     16.7590                17.0696                10.2525
 Frc consts  --      0.5225                 0.5942                 0.5260
 IR Inten    --      1.9042                 1.8460                 7.9932

                     10                     11                     12
                      A                      A                      A
 Frequencies --    341.9229               397.9059               406.0162
 Red. masses --     13.0134                 4.1953                 2.1103
 Frc consts  --      0.8964                 0.3914                 0.2050
 IR Inten    --     10.9170                 2.9729                34.6332

                     13                     14                     15
                      A                      A                      A
 Frequencies --    464.2697               477.7177               522.0545
 Red. masses --     11.0940                 6.6009                 5.2143
 Frc consts  --      1.4089                 0.8876                 0.8373
 IR Inten    --     26.7850               280.2584                13.0002

                     16                     17                     18
                      A                      A                      A
 Frequencies --    547.4991               556.6936               603.6799
 Red. masses --      8.1017                14.9410                15.6041
 Frc consts  --      1.4309                 2.7281                 3.3504
 IR Inten    --    272.9039                 8.1715                83.7204

                     19                     20                     21
                      A                      A                      A
 Frequencies --    614.5278               666.4565               766.9922
 Red. masses --     15.7852                13.3447                16.1945
 Frc consts  --      3.5122                 3.4922                 5.6130
 IR Inten    --     10.5318                 2.5163               198.4193

                     22                     23                     24
                      A                      A                      A
 Frequencies --    835.0184              1144.6602              1183.4797
 Red. masses --     17.4206                 6.1008                 1.3767
 Frc consts  --      7.1566                 4.7097                 1.1361
 IR Inten    --     62.5735               196.7516               113.4381

                     25                     26                     27
                      A                      A                      A
 Frequencies --   1244.6223              1346.5526              1467.6161
 Red. masses --     13.9982                13.1943                12.5423
 Frc consts  --     12.7761                14.0956                15.9167
 IR Inten    --    337.1032               133.5572               196.7970

                     28                     29                     30
                      A                      A                      A
 Frequencies --   1533.9470              1620.2279              3831.1838
 Red. masses --     13.2558                12.5055                 1.0657
 Frc consts  --     18.3771                19.3420                 9.2165
 IR Inten    --    314.3970               619.6688               158.4814

 - Thermochemistry -
 -------------------
 Temperature   298.150 Kelvin.  Pressure   1.00000 Atm.
 Atom     1 has atomic number  6 and mass  12.00000

 Molecular mass:   199.95666 amu.
 Principal axes and moments of inertia in atomic units:
                           1         2         3
     Eigenvalues --  1290.620801971.667082230.11674
           X            0.91952  -0.39303   0.00389
           Y            0.39292   0.91941   0.01731
           Z           -0.01038  -0.01439   0.99984
 This molecule is an asymmetric top.
 Rotational symmetry number  1.
 Warning -- assumption of classical behavior for rotation
           may cause significant error
 Rotational temperatures (Kelvin)      0.06711     0.04393     0.03884
 Rotational constants (GHZ):           1.39835     0.91534     0.80926
    1 imaginary frequencies ignored.
 Zero-point vibrational energy     131687.9 (Joules/Mol)
                                   31.47417 (Kcal/Mol)
 Warning -- explicit consideration of  18 degrees of freedom as
           vibrations may cause significant error
 Vibrational temperatures:     46.61   105.52   249.39   272.14   297.91
          (Kelvin)            330.96   349.72   424.56   491.95   572.50
                              584.17   667.98   687.33   751.12   787.73
                              800.96   868.56   884.17   958.88  1103.53
                             1201.41  1646.91  1702.76  1790.73  1937.39
                             2111.57  2207.01  2331.15  5512.22

 Zero-point correction=                           0.050157 (Hartree/Particle)
 Thermal correction to Energy=                    0.060551
 Thermal correction to Enthalpy=                  0.061495
 Thermal correction to Gibbs Free Energy=         0.013252
 Sum of electronic and zero-point Energies=          -1199.722259
 Sum of electronic and thermal Energies=             -1199.711865
 Sum of electronic and thermal Enthalpies=           -1199.710921
 Sum of electronic and thermal Free Energies=        -1199.759164

                     E (Thermal)             CV                S
                      KCal/Mol        Cal/Mol-Kelvin    Cal/Mol-Kelvin
 Total                   37.996             36.532            101.536
 Electronic               0.000              0.000              0.000
 Translational            0.889              2.981             41.783
 Rotational               0.889              2.981             30.119
 Vibrational             36.219             30.570             29.634
 Vibration     1          0.594              1.983              5.677
 Vibration     2          0.599              1.967              4.062
 Vibration     3          0.627              1.875              2.399
 Vibration     4          0.633              1.855              2.236
 Vibration     5          0.641              1.830              2.069
 Vibration     6          0.652              1.795              1.879
 Vibration     7          0.659              1.774              1.780
 Vibration     8          0.689              1.683              1.445
 Vibration     9          0.721              1.592              1.203
 Vibration    10          0.764              1.475              0.970
 Vibration    11          0.771              1.457              0.941
 Vibration    12          0.822              1.329              0.754
 Vibration    13          0.834              1.299              0.716
 Vibration    14          0.877              1.201              0.605
 Vibration    15          0.903              1.145              0.549
 Vibration    16          0.912              1.125              0.530
 Vibration    17          0.962              1.024              0.443
 Vibration    18          0.974              1.001              0.425

 Normal termination of Gaussian 16 at Sat May 24 10:18:20 2025.
