 Gaussian 16, Revision C.01,
 Gaussian 16:  ES64L-G16RevC.01  3-Jul-2019

 ------------------------------------------
 #P am1 Symm(None) scf(xqc) pop(None) force
 ------------------------------------------

 ------------------------------
 Gaussian input prepared by ASE
 ------------------------------
 Symbolic Z-matrix:
 Charge =  0 Multiplicity = 1

                          Input orientation:
 ---------------------------------------------------------------------
 Center     Atomic      Atomic             Coordinates (Angstroms)
 Number     Number       Type             X           Y           Z
 ---------------------------------------------------------------------
      1          6           0       -0.106922    0.521074    0.158460
      2          6           0        1.856739   -0.204673    0.212894
      3          9           0        2.035334   -0.840649    1.370216
      4          9           0        2.095881   -1.101349   -0.739087
      5         16           0        2.573560    1.504803   -0.010469
      6          8           0        2.422699    2.451536    1.033945
      7          8           0        3.192051    1.912525   -1.221075
      8          8           0        0.865072    1.638185   -0.592791
      9          9           0       -0.068655    0.457031    1.472124
     10          9           0       -1.221137    1.325597   -0.079101
     11          9           0       -0.373604   -0.568827   -0.541298
     12          1           0        0.425169    2.496884   -0.717178
 ---------------------------------------------------------------------

 SCF Done:  E(RAM1) =  0.728210419669     A.U. after   17 cycles
 Normal termination of Gaussian 16 at Sat May 24 10:47:13 2025.
