 Gaussian 16, Revision C.01,
 Gaussian 16:  ES64L-G16RevC.01  3-Jul-2019

 ----------------------------------------------------------------------
 #P M062X/Def2TZVPP Symm(None) scf(xqc) pop(None) opt(NoFreeze,TS,CalcA
 ll,NoEigentest,MaxCycle=999)
 ----------------------------------------------------------------------

 ------------------------------
 Gaussian input prepared by ASE
 ------------------------------
 Symbolic Z-matrix:
 Charge =  0 Multiplicity = 1

 SCF Done:  E(RM062X) =  -1199.72906449     A.U. after   21 cycles
 SCF Done:  E(RM062X) =  -1199.73691244     A.U. after   18 cycles
 SCF Done:  E(RM062X) =  -1199.73911871     A.U. after   18 cycles
 SCF Done:  E(RM062X) =  -1199.73966780     A.U. after   18 cycles
 SCF Done:  E(RM062X) =  -1199.73971771     A.U. after   16 cycles
 SCF Done:  E(RM062X) =  -1199.73971881     A.U. after   12 cycles

 Isotropic polarizability for W=    0.000000       65.88 Bohr**3.
 End of Minotr F.D. properties file   721 does not exist.

 Optimization completed.
    -- Stationary point found.

                          Input orientation:
 ---------------------------------------------------------------------
 Center     Atomic      Atomic             Coordinates (Angstroms)
 Number     Number       Type             X           Y           Z
 ---------------------------------------------------------------------
      1          6           0       -0.753635   -1.252281   -0.010532
      2          6           0       -0.066548    0.116790   -0.042937
      3          9           0       -0.444758    0.757996   -1.155454
      4          9           0       -0.475932    0.852039    1.012176
      5         16           0        1.988167    0.119990   -0.193300
      6          8           0        1.917454   -0.844433    0.981260
      7          8           0        3.434748   -0.342840    0.122534
      8          8           0        2.041366    1.604775    0.386703
      9          9           0       -0.189014   -2.043146   -0.919064
     10          9           0       -0.645074   -1.811908    1.182396
     11          9           0       -2.044899   -1.131490   -0.301481
     12          1           0        1.312130    1.792844    0.996202
 ---------------------------------------------------------------------

 ******    1 imaginary frequencies (negative Signs) ******

                      1                      2                      3
                      A                      A                      A
 Frequencies --   -893.0127                60.0047                62.3644
 Red. masses --     18.1454                14.5425                17.7904
 Frc consts  --      8.5257                 0.0309                 0.0408
 IR Inten    --    406.1551                 0.9727                 0.2219

                      4                      5                      6
                      A                      A                      A
 Frequencies --    116.2515               171.4329               207.0227
 Red. masses --     17.0873                17.1229                 3.0098
 Frc consts  --      0.1361                 0.2965                 0.0760
 IR Inten    --      0.7346                 2.3229                23.5732

                      7                      8                      9
                      A                      A                      A
 Frequencies --    220.8457               241.7715               256.2180
 Red. masses --      2.3572                15.4555                 6.2936
 Frc consts  --      0.0677                 0.5323                 0.2434
 IR Inten    --     56.2765                 4.2927                 9.0343

                     10                     11                     12
                      A                      A                      A
 Frequencies --    291.5669               309.7347               376.1124
 Red. masses --     15.5998                13.8284                13.8930
 Frc consts  --      0.7813                 0.7816                 1.1579
 IR Inten    --      2.3955                 7.8800                 2.2640

                     13                     14                     15
                      A                      A                      A
 Frequencies --    402.0094               446.2429               473.6113
 Red. masses --      6.0954                11.1385                 8.4867
 Frc consts  --      0.5804                 1.3068                 1.1216
 IR Inten    --     21.9596                 0.8331                 5.5847

                     16                     17                     18
                      A                      A                      A
 Frequencies --    543.1570               600.8130               637.3478
 Red. masses --     17.2381                17.7821                16.4858
 Frc consts  --      2.9963                 3.7819                 3.9456
 IR Inten    --      6.1245                 2.2590                 9.2458

                     19                     20                     21
                      A                      A                      A
 Frequencies --    754.8189               840.0957               867.8697
 Red. masses --     16.3158                16.7037                17.2104
 Frc consts  --      5.4770                 6.9458                 7.6375
 IR Inten    --     51.0865                58.1055               155.1020

                     22                     23                     24
                      A                      A                      A
 Frequencies --    936.1341              1106.7684              1139.1368
 Red. masses --     13.9444                 9.5173                 3.0029
 Frc consts  --      7.1999                 6.8688                 2.2958
 IR Inten    --    107.6188                49.0668               283.9092

                     25                     26                     27
                      A                      A                      A
 Frequencies --   1174.2785              1220.1033              1263.1606
 Red. masses --      2.3732                 4.1838                12.7533
 Frc consts  --      1.9281                 3.6696                11.9892
 IR Inten    --     42.7596               106.2038               202.3998

                     28                     29                     30
                      A                      A                      A
 Frequencies --   1294.1982              1382.6952              3772.3233
 Red. masses --     13.0957                12.4694                 1.0658
 Frc consts  --     12.9235                14.0459                 8.9361
 IR Inten    --    272.5074               228.3803               128.5337

 - Thermochemistry -
 -------------------
 Temperature   298.150 Kelvin.  Pressure   1.00000 Atm.
 Atom     1 has atomic number  6 and mass  12.00000

 Molecular mass:   199.95666 amu.
 Principal axes and moments of inertia in atomic units:
                           1         2         3
     Eigenvalues --  1082.047212325.041582655.83550
           X            0.92415  -0.36774  -0.10352
           Y            0.37536   0.92445   0.06699
           Z            0.07106  -0.10076   0.99237
 This molecule is an asymmetric top.
 Rotational symmetry number  1.
 Warning -- assumption of classical behavior for rotation
           may cause significant error
 Rotational temperatures (Kelvin)      0.08005     0.03725     0.03261
 Rotational constants (GHZ):           1.66790     0.77622     0.67954
    1 imaginary frequencies ignored.
 Zero-point vibrational energy     126613.3 (Joules/Mol)
                                   30.26130 (Kcal/Mol)
 Warning -- explicit consideration of  16 degrees of freedom as
           vibrations may cause significant error
 Vibrational temperatures:     86.33    89.73   167.26   246.65   297.86
          (Kelvin)            317.75   347.86   368.64   419.50   445.64
                              541.14   578.40   642.04   681.42   781.48
                              864.44   917.00  1086.02  1208.71  1248.67
                             1346.89  1592.39  1638.96  1689.52  1755.46
                             1817.41  1862.06  1989.39  5427.53

 Zero-point correction=                           0.048224 (Hartree/Particle)
 Thermal correction to Energy=                    0.058911
 Thermal correction to Enthalpy=                  0.059855
 Thermal correction to Gibbs Free Energy=         0.011043
 Sum of electronic and zero-point Energies=          -1199.691494
 Sum of electronic and thermal Energies=             -1199.680808
 Sum of electronic and thermal Enthalpies=           -1199.679864
 Sum of electronic and thermal Free Energies=        -1199.728676

                     E (Thermal)             CV                S
                      KCal/Mol        Cal/Mol-Kelvin    Cal/Mol-Kelvin
 Total                   36.967             36.716            102.734
 Electronic               0.000              0.000              0.000
 Translational            0.889              2.981             41.783
 Rotational               0.889              2.981             30.281
 Vibrational             35.190             30.755             30.669
 Vibration     1          0.597              1.973              4.457
 Vibration     2          0.597              1.972              4.381
 Vibration     3          0.608              1.936              3.162
 Vibration     4          0.626              1.878              2.420
 Vibration     5          0.641              1.830              2.070
 Vibration     6          0.648              1.809              1.952
 Vibration     7          0.658              1.776              1.790
 Vibration     8          0.666              1.752              1.687
 Vibration     9          0.687              1.689              1.465
 Vibration    10          0.699              1.655              1.364
 Vibration    11          0.747              1.521              1.055
 Vibration    12          0.768              1.466              0.955
 Vibration    13          0.805              1.369              0.807
 Vibration    14          0.830              1.309              0.728
 Vibration    15          0.898              1.155              0.559
 Vibration    16          0.959              1.030              0.448

 Normal termination of Gaussian 16 at Sat May 24 06:56:22 2025.
