 Gaussian 16, Revision C.01,
 Gaussian 16:  ES64L-G16RevC.01  3-Jul-2019

 ----------------------------------------------------------------------
 #P M062X/Def2TZVPP Symm(None) scf(xqc) pop(None) freq opt(CalcFC, Tigh
 t)
 ----------------------------------------------------------------------

 ------------------------------
 Gaussian input prepared by ASE
 ------------------------------
 Symbolic Z-matrix:
 Charge =  0 Multiplicity = 1

 SCF Done:  E(RM062X) =  -1199.93086031     A.U. after   13 cycles
 SCF Done:  E(RM062X) =  -1199.93761949     A.U. after   12 cycles
 SCF Done:  E(RM062X) =  -1199.87837023     A.U. after   14 cycles
 SCF Done:  E(RM062X) =  -1199.93603836     A.U. after   12 cycles
 SCF Done:  E(RM062X) =  -1199.93774821     A.U. after    9 cycles
 SCF Done:  E(RM062X) =  -1199.93912823     A.U. after   12 cycles
 SCF Done:  E(RM062X) =  -1199.93989659     A.U. after   13 cycles
 SCF Done:  E(RM062X) =  -1199.94012242     A.U. after   11 cycles
 SCF Done:  E(RM062X) =  -1199.94017617     A.U. after   12 cycles
 SCF Done:  E(RM062X) =  -1199.94033968     A.U. after   12 cycles
 SCF Done:  E(RM062X) =  -1199.94053493     A.U. after   11 cycles
 SCF Done:  E(RM062X) =  -1199.94056129     A.U. after    8 cycles
 SCF Done:  E(RM062X) =  -1199.94056418     A.U. after    8 cycles
 SCF Done:  E(RM062X) =  -1199.94056428     A.U. after    6 cycles
 SCF Done:  E(RM062X) =  -1199.94056431     A.U. after    5 cycles
 SCF Done:  E(RM062X) =  -1199.94056431     A.U. after    4 cycles
 Optimization completed.
    -- Stationary point found.
 Normal termination of Gaussian 16 at Fri May 23 23:55:46 2025.

 ---------------------------------------------------------------------
 #P Geom=AllCheck Guess=TCheck SCRF=Check GenChk RM062X/def2TZVPP Freq
 ---------------------------------------------------------------------

 Structure from the checkpoint file:  "/tmp/Gau-261764.chk"
 ------------------------------
 Gaussian input prepared by ASE
 ------------------------------
 Charge =  0 Multiplicity = 1

                          Input orientation:
 ---------------------------------------------------------------------
 Center     Atomic      Atomic             Coordinates (Angstroms)
 Number     Number       Type             X           Y           Z
 ---------------------------------------------------------------------
      1          6           0       -0.749184    0.817246    1.183859
      2          6           0       -0.035083    0.083986    0.024995
      3          9           0       -0.375698   -1.201429    0.059540
      4          9           0       -0.435889    0.618635   -1.134353
      5         16           0        1.806974    0.168467    0.072065
      6          8           0        2.210074    0.059276    1.421039
      7          8           0        2.256277   -0.697121   -0.958042
      8          8           0        2.033310    1.658541   -0.369629
      9          9           0       -0.535405    0.196424    2.327695
     10          9           0       -0.317463    2.067017    1.269687
     11          9           0       -2.052504    0.829863    0.937774
     12          1           0        2.095625    1.716771   -1.334105
 ---------------------------------------------------------------------

 SCF Done:  E(RM062X) =  -1199.94056431     A.U. after    1 cycles

 Isotropic polarizability for W=    0.000000       53.52 Bohr**3.
 End of Minotr F.D. properties file   721 does not exist.

                      1                      2                      3
                      A                      A                      A
 Frequencies --     45.7479                71.0670               134.7053
 Red. masses --     13.2946                16.0875                16.3041
 Frc consts  --      0.0164                 0.0479                 0.1743
 IR Inten    --      2.1609                 0.4936                 0.5673

                      4                      5                      6
                      A                      A                      A
 Frequencies --    192.6919               223.1871               240.9581
 Red. masses --      5.3710                17.0164                14.1584
 Frc consts  --      0.1175                 0.4994                 0.4843
 IR Inten    --     15.2145                 1.2960                 7.6259

                      7                      8                      9
                      A                      A                      A
 Frequencies --    286.4208               315.1257               320.4748
 Red. masses --      9.8140                14.8359                 4.0573
 Frc consts  --      0.4744                 0.8680                 0.2455
 IR Inten    --      1.1542                 0.8101                18.8492

                     10                     11                     12
                      A                      A                      A
 Frequencies --    346.9214               378.5688               446.5794
 Red. masses --      2.2900                 8.3274                14.1957
 Frc consts  --      0.1624                 0.7031                 1.6680
 IR Inten    --     43.8926                 6.7429                11.3862

                     13                     14                     15
                      A                      A                      A
 Frequencies --    472.6532               528.9777               542.7405
 Red. masses --      4.5114                14.4575                17.8907
 Frc consts  --      0.5938                 2.3835                 3.1050
 IR Inten    --     29.1993                17.4686                20.5331

                     16                     17                     18
                      A                      A                      A
 Frequencies --    609.8459               630.1290               664.4372
 Red. masses --     17.2644                19.2912                17.3852
 Frc consts  --      3.7831                 4.5130                 4.5221
 IR Inten    --      5.2793               109.8701                46.8390

                     19                     20                     21
                      A                      A                      A
 Frequencies --    781.6167               903.6641              1040.5210
 Red. masses --     17.3546                16.8063                13.5773
 Frc consts  --      6.2467                 8.0861                 8.6609
 IR Inten    --     11.5440               187.2520                96.7003

                     22                     23                     24
                      A                      A                      A
 Frequencies --   1141.3198              1196.5675              1255.9786
 Red. masses --      1.1858                13.9832                13.9553
 Frc consts  --      0.9101                11.7959                12.9704
 IR Inten    --     87.1109               127.2760                41.1187

                     25                     26                     27
                      A                      A                      A
 Frequencies --   1275.1004              1287.0503              1311.7074
 Red. masses --     14.7906                13.4768                13.3303
 Frc consts  --     14.1685                13.1531                13.5134
 IR Inten    --    192.9862               200.2390               362.3446

                     28                     29                     30
                      A                      A                      A
 Frequencies --   1390.3604              1501.2897              3808.7584
 Red. masses --     12.6927                15.3516                 1.0657
 Frc consts  --     14.4563                20.3860                 9.1083
 IR Inten    --     82.2360               280.1532               190.2878

 - Thermochemistry -
 -------------------
 Temperature   298.150 Kelvin.  Pressure   1.00000 Atm.
 Atom     1 has atomic number  6 and mass  12.00000

 Molecular mass:   199.95666 amu.
 Principal axes and moments of inertia in atomic units:
                           1         2         3
     Eigenvalues --  1131.740632109.109302245.97711
           X            0.90152   0.42488  -0.08208
           Y           -0.17620   0.53366   0.82714
           Z           -0.39524   0.73122  -0.55596
 This molecule is an asymmetric top.
 Rotational symmetry number  1.
 Warning -- assumption of classical behavior for rotation
           may cause significant error
 Rotational temperatures (Kelvin)      0.07653     0.04107     0.03856
 Rotational constants (GHZ):           1.59466     0.85569     0.80354
 Zero-point vibrational energy     139635.1 (Joules/Mol)
                                   33.37359 (Kcal/Mol)
 Warning -- explicit consideration of  16 degrees of freedom as
           vibrations may cause significant error
 Vibrational temperatures:     65.82   102.25   193.81   277.24   321.12
          (Kelvin)            346.68   412.10   453.40   461.09   499.14
                              544.68   642.53   680.04   761.08   780.88
                              877.43   906.62   955.98  1124.57  1300.17
                             1497.08  1642.10  1721.59  1807.07  1834.59
                             1851.78  1887.25  2000.42  2160.02  5479.95

 Zero-point correction=                           0.053184 (Hartree/Particle)
 Thermal correction to Energy=                    0.063453
 Thermal correction to Enthalpy=                  0.064397
 Thermal correction to Gibbs Free Energy=         0.016558
 Sum of electronic and zero-point Energies=          -1199.887380
 Sum of electronic and thermal Energies=             -1199.877111
 Sum of electronic and thermal Enthalpies=           -1199.876167
 Sum of electronic and thermal Free Energies=        -1199.924007

                     E (Thermal)             CV                S
                      KCal/Mol        Cal/Mol-Kelvin    Cal/Mol-Kelvin
 Total                   39.817             36.013            100.686
 Electronic               0.000              0.000              0.000
 Translational            0.889              2.981             41.783
 Rotational               0.889              2.981             30.062
 Vibrational             38.040             30.051             28.841
 Vibration     1          0.595              1.979              4.993
 Vibration     2          0.598              1.968              4.124
 Vibration     3          0.613              1.919              2.878
 Vibration     4          0.635              1.850              2.202
 Vibration     5          0.649              1.806              1.933
 Vibration     6          0.658              1.778              1.796
 Vibration     7          0.684              1.699              1.495
 Vibration     8          0.702              1.645              1.335
 Vibration     9          0.706              1.634              1.308
 Vibration    10          0.725              1.582              1.180
 Vibration    11          0.749              1.516              1.045
 Vibration    12          0.806              1.368              0.806
 Vibration    13          0.830              1.311              0.730
 Vibration    14          0.884              1.186              0.589
 Vibration    15          0.898              1.156              0.559
 Vibration    16          0.969              1.011              0.433

                           ! Non-Optimized Parameters !
 Normal termination of Gaussian 16 at Fri May 23 23:59:44 2025.
