 Gaussian 16, Revision C.01,
 Gaussian 16:  ES64L-G16RevC.01  3-Jul-2019

 ----------------------------------------------------------------------
 #P M062X/Def2TZVPP Symm(None) scf(xqc) pop(None) opt(NoFreeze,TS,CalcA
 ll,NoEigentest,MaxCycle=999)
 ----------------------------------------------------------------------

 ------------------------------
 Gaussian input prepared by ASE
 ------------------------------
 Symbolic Z-matrix:
 Charge =  0 Multiplicity = 1

 SCF Done:  E(RM062X) =  -1199.73187273     A.U. after   17 cycles
 SCF Done:  E(RM062X) =  -1199.75207738     A.U. after   15 cycles
 SCF Done:  E(RM062X) =  -1199.76046638     A.U. after   15 cycles
 SCF Done:  E(RM062X) =  -1199.76141917     A.U. after   14 cycles
 SCF Done:  E(RM062X) =  -1199.76150608     A.U. after   14 cycles
 SCF Done:  E(RM062X) =  -1199.76151227     A.U. after   11 cycles

 Isotropic polarizability for W=    0.000000       58.89 Bohr**3.
 End of Minotr F.D. properties file   721 does not exist.

 Optimization completed.
    -- Stationary point found.

                          Input orientation:
 ---------------------------------------------------------------------
 Center     Atomic      Atomic             Coordinates (Angstroms)
 Number     Number       Type             X           Y           Z
 ---------------------------------------------------------------------
      1          6           0       -0.047072   -0.982387   -1.173150
      2          6           0       -0.058447   -0.113192    0.114559
      3          9           0       -0.698977    1.025976   -0.175122
      4          9           0       -0.651390   -0.673305    1.136748
      5         16           0        1.771782    0.096949    0.117888
      6          8           0        2.642353   -0.159032    1.198710
      7          8           0        1.895106   -0.205820   -1.324695
      8          8           0        1.806265    1.699573    0.099907
      9          9           0       -0.485660   -2.162628   -1.251661
     10          9           0        1.276276   -1.841206    0.157950
     11          9           0       -0.285810   -0.375155   -2.276278
     12          1           0        1.535510    2.033394   -0.763927
 ---------------------------------------------------------------------

 ******    1 imaginary frequencies (negative Signs) ******

                      1                      2                      3
                      A                      A                      A
 Frequencies --   -392.9674               104.0956               135.8159
 Red. masses --     16.9541                14.9608                 8.3884
 Frc consts  --      1.5425                 0.0955                 0.0912
 IR Inten    --      3.6221               130.3305                86.4644

                      4                      5                      6
                      A                      A                      A
 Frequencies --    190.2007               204.9813               254.3919
 Red. masses --     18.0985                 9.8875                16.2309
 Frc consts  --      0.3858                 0.2448                 0.6189
 IR Inten    --      9.8071                38.5453                 1.0272

                      7                      8                      9
                      A                      A                      A
 Frequencies --    282.2693               299.6402               311.3208
 Red. masses --     10.3368                13.1656                11.1247
 Frc consts  --      0.4852                 0.6965                 0.6353
 IR Inten    --      7.3185                 5.2377                32.6745

                     10                     11                     12
                      A                      A                      A
 Frequencies --    376.8521               388.3468               416.0231
 Red. masses --      2.2460                 3.3949                17.6882
 Frc consts  --      0.1879                 0.3017                 1.8037
 IR Inten    --     17.0380                79.8823                54.3738

                     13                     14                     15
                      A                      A                      A
 Frequencies --    437.1936               508.7686               542.0757
 Red. masses --     15.1291                 6.8239                 6.1948
 Frc consts  --      1.7038                 1.0407                 1.0725
 IR Inten    --     45.5740                 5.2160                41.3713

                     16                     17                     18
                      A                      A                      A
 Frequencies --    565.4325               582.2130               646.4317
 Red. masses --     16.4915                16.6810                17.7915
 Frc consts  --      3.1065                 3.3315                 4.3803
 IR Inten    --     45.7006               127.1626                37.6489

                     19                     20                     21
                      A                      A                      A
 Frequencies --    679.8315               774.7827               827.0697
 Red. masses --     15.9800                16.2857                14.8548
 Frc consts  --      4.3514                 5.7599                 5.9869
 IR Inten    --     35.9337                42.1537               219.0977

                     22                     23                     24
                      A                      A                      A
 Frequencies --    981.3475              1097.6670              1163.1127
 Red. masses --     12.5746                10.2710                 1.8664
 Frc consts  --      7.1349                 7.2913                 1.4877
 IR Inten    --     36.2856               175.4725               268.8041

                     25                     26                     27
                      A                      A                      A
 Frequencies --   1179.3135              1320.4015              1384.4309
 Red. masses --      2.9359                13.4546                13.0574
 Frc consts  --      2.4057                13.8208                14.7451
 IR Inten    --     17.0350               300.5498               203.3809

                     28                     29                     30
                      A                      A                      A
 Frequencies --   1418.8112              1493.6107              3846.6063
 Red. masses --     15.0388                13.1428                 1.0658
 Frc consts  --     17.8366                17.2748                 9.2917
 IR Inten    --    392.9701               239.0734               113.1899

 - Thermochemistry -
 -------------------
 Temperature   298.150 Kelvin.  Pressure   1.00000 Atm.
 Atom     1 has atomic number  6 and mass  12.00000

 Molecular mass:   199.95666 amu.
 Principal axes and moments of inertia in atomic units:
                           1         2         3
     Eigenvalues --  1234.740311876.539231976.27115
           X            0.73625  -0.44979  -0.50560
           Y            0.48006   0.87374  -0.07825
           Z            0.47695  -0.18510   0.85922
 This molecule is an asymmetric top.
 Rotational symmetry number  1.
 Warning -- assumption of classical behavior for rotation
           may cause significant error
 Rotational temperatures (Kelvin)      0.07015     0.04616     0.04383
 Rotational constants (GHZ):           1.46164     0.96174     0.91321
    1 imaginary frequencies ignored.
 Zero-point vibrational energy     134059.7 (Joules/Mol)
                                   32.04105 (Kcal/Mol)
 Warning -- explicit consideration of  16 degrees of freedom as
           vibrations may cause significant error
 Vibrational temperatures:    149.77   195.41   273.66   294.92   366.01
          (Kelvin)            406.12   431.12   447.92   542.21   558.74
                              598.56   629.02   732.00   779.93   813.53
                              837.67   930.07   978.13  1114.74  1189.97
                             1411.94  1579.30  1673.46  1696.77  1899.76
                             1991.89  2041.35  2148.97  5534.41

 Zero-point correction=                           0.051061 (Hartree/Particle)
 Thermal correction to Energy=                    0.060699
 Thermal correction to Enthalpy=                  0.061643
 Thermal correction to Gibbs Free Energy=         0.016183
 Sum of electronic and zero-point Energies=          -1199.710452
 Sum of electronic and thermal Energies=             -1199.700813
 Sum of electronic and thermal Enthalpies=           -1199.699869
 Sum of electronic and thermal Free Energies=        -1199.745329

                     E (Thermal)             CV                S
                      KCal/Mol        Cal/Mol-Kelvin    Cal/Mol-Kelvin
 Total                   38.089             35.361             95.678
 Electronic               0.000              0.000              0.000
 Translational            0.889              2.981             41.783
 Rotational               0.889              2.981             29.905
 Vibrational             36.312             29.399             23.989
 Vibration     1          0.605              1.946              3.376
 Vibration     2          0.614              1.918              2.862
 Vibration     3          0.634              1.853              2.226
 Vibration     4          0.640              1.833              2.088
 Vibration     5          0.665              1.755              1.700
 Vibration     6          0.681              1.706              1.520
 Vibration     7          0.692              1.674              1.419
 Vibration     8          0.700              1.652              1.355
 Vibration     9          0.747              1.519              1.052
 Vibration    10          0.757              1.495              1.006
 Vibration    11          0.779              1.435              0.906
 Vibration    12          0.798              1.389              0.835
 Vibration    13          0.864              1.231              0.637
 Vibration    14          0.897              1.157              0.561
 Vibration    15          0.921              1.106              0.513
 Vibration    16          0.939              1.070              0.481

 Normal termination of Gaussian 16 at Sat May 24 08:06:39 2025.
