 Gaussian 16, Revision C.01,
 Gaussian 16:  ES64L-G16RevC.01  3-Jul-2019

 ----------------------------------------------------------------------
 #P M062X/Def2TZVPP Symm(None) scf(xqc) pop(None) opt(NoFreeze,TS,CalcA
 ll,NoEigentest,MaxCycle=999)
 ----------------------------------------------------------------------

 ------------------------------
 Gaussian input prepared by ASE
 ------------------------------
 Symbolic Z-matrix:
 Charge =  0 Multiplicity = 1

 SCF Done:  E(RM062X) =  -1199.75911326     A.U. after   17 cycles
 SCF Done:  E(RM062X) =  -1199.76085607     A.U. after   14 cycles
 SCF Done:  E(RM062X) =  -1199.76143168     A.U. after   14 cycles
 SCF Done:  E(RM062X) =  -1199.76151119     A.U. after   14 cycles
 SCF Done:  E(RM062X) =  -1199.76151451     A.U. after    9 cycles

 Isotropic polarizability for W=    0.000000       58.90 Bohr**3.
 End of Minotr F.D. properties file   721 does not exist.

 Optimization completed.
    -- Stationary point found.

                          Input orientation:
 ---------------------------------------------------------------------
 Center     Atomic      Atomic             Coordinates (Angstroms)
 Number     Number       Type             X           Y           Z
 ---------------------------------------------------------------------
      1          6           0       -0.044119   -0.853045   -1.279048
      2          6           0        0.040971    0.015011    0.006689
      3          9           0       -0.451587    1.223370   -0.291174
      4          9           0       -0.625717   -0.464318    1.024537
      5         16           0        1.883062   -0.003328    0.026809
      6          8           0        2.704457   -0.361076    1.117143
      7          8           0        1.981617   -0.324014   -1.413747
      8          8           0        2.115899    1.582739    0.004926
      9          9           0       -0.624621   -1.970227   -1.358756
     10          9           0        1.151338   -1.864934    0.066799
     11          9           0       -0.195196   -0.224689   -2.385683
     12          1           0        1.904466    1.943041   -0.864778
 ---------------------------------------------------------------------

 ******    1 imaginary frequencies (negative Signs) ******

                      1                      2                      3
                      A                      A                      A
 Frequencies --   -394.1400               101.7163               132.4914
 Red. masses --     16.8112                14.9984                 7.3249
 Frc consts  --      1.5387                 0.0914                 0.0758
 IR Inten    --      3.6845               143.6817                68.8390

                      4                      5                      6
                      A                      A                      A
 Frequencies --    190.0939               203.1843               254.4067
 Red. masses --     17.9683                 8.8822                16.2975
 Frc consts  --      0.3826                 0.2160                 0.6215
 IR Inten    --      7.4442                44.0975                 0.9812

                      7                      8                      9
                      A                      A                      A
 Frequencies --    278.4925               297.8802               310.1690
 Red. masses --      7.2461                11.1481                10.4853
 Frc consts  --      0.3311                 0.5828                 0.5943
 IR Inten    --      6.1757                 9.1744                29.0809

                     10                     11                     12
                      A                      A                      A
 Frequencies --    361.7346               384.2247               415.4077
 Red. masses --      1.6511                12.8381                17.3158
 Frc consts  --      0.1273                 1.1167                 1.7605
 IR Inten    --     62.6299                43.5225                54.6612

                     13                     14                     15
                      A                      A                      A
 Frequencies --    436.8676               506.4788               540.0440
 Red. masses --     15.3396                 7.1869                 7.3528
 Frc consts  --      1.7249                 1.0862                 1.2635
 IR Inten    --     45.0521                 5.7942                36.4602

                     16                     17                     18
                      A                      A                      A
 Frequencies --    565.9125               582.2434               646.6896
 Red. masses --     16.4640                16.6902                17.7839
 Frc consts  --      3.1066                 3.3337                 4.3820
 IR Inten    --     45.9081               124.8543                38.2861

                     19                     20                     21
                      A                      A                      A
 Frequencies --    680.1847               774.6856               827.2213
 Red. masses --     15.9892                16.3096                14.8683
 Frc consts  --      4.3584                 5.7669                 5.9945
 IR Inten    --     36.1860                41.8294               219.6587

                     22                     23                     24
                      A                      A                      A
 Frequencies --    981.4682              1097.9670              1163.3126
 Red. masses --     12.5434                 9.8265                 1.7461
 Frc consts  --      7.1190                 6.9795                 1.3922
 IR Inten    --     34.9266               172.2076               271.8857

                     25                     26                     27
                      A                      A                      A
 Frequencies --   1180.0871              1321.3893              1385.3358
 Red. masses --      3.3435                13.4520                13.0501
 Frc consts  --      2.7433                13.8388                14.7561
 IR Inten    --     17.4875               298.7550               210.0739

                     28                     29                     30
                      A                      A                      A
 Frequencies --   1422.5195              1494.1855              3846.8113
 Red. masses --     15.1957                13.1942                 1.0658
 Frc consts  --     18.1170                17.3557                 9.2927
 IR Inten    --    394.4652               234.1507               113.7544

 - Thermochemistry -
 -------------------
 Temperature   298.150 Kelvin.  Pressure   1.00000 Atm.
 Atom     1 has atomic number  6 and mass  12.00000

 Molecular mass:   199.95666 amu.
 Principal axes and moments of inertia in atomic units:
                           1         2         3
     Eigenvalues --  1234.900221876.678601976.15832
           X            0.78579  -0.33566  -0.51949
           Y            0.38660   0.92218  -0.01107
           Z            0.48278  -0.19214   0.85441
 This molecule is an asymmetric top.
 Rotational symmetry number  1.
 Warning -- assumption of classical behavior for rotation
           may cause significant error
 Rotational temperatures (Kelvin)      0.07014     0.04615     0.04383
 Rotational constants (GHZ):           1.46145     0.96167     0.91326
    1 imaginary frequencies ignored.
 Zero-point vibrational energy     133881.3 (Joules/Mol)
                                   31.99840 (Kcal/Mol)
 Warning -- explicit consideration of  16 degrees of freedom as
           vibrations may cause significant error
 Vibrational temperatures:    146.35   190.63   273.50   292.34   366.03
          (Kelvin)            400.69   428.58   446.26   520.46   552.81
                              597.68   628.56   728.71   777.00   814.22
                              837.72   930.44   978.63  1114.60  1190.19
                             1412.11  1579.73  1673.75  1697.88  1901.18
                             1993.19  2046.69  2149.80  5534.70

 Zero-point correction=                           0.050993 (Hartree/Particle)
 Thermal correction to Energy=                    0.060676
 Thermal correction to Enthalpy=                  0.061620
 Thermal correction to Gibbs Free Energy=         0.016047
 Sum of electronic and zero-point Energies=          -1199.710522
 Sum of electronic and thermal Energies=             -1199.700838
 Sum of electronic and thermal Enthalpies=           -1199.699894
 Sum of electronic and thermal Free Energies=        -1199.745467

                     E (Thermal)             CV                S
                      KCal/Mol        Cal/Mol-Kelvin    Cal/Mol-Kelvin
 Total                   38.075             35.427             95.916
 Electronic               0.000              0.000              0.000
 Translational            0.889              2.981             41.783
 Rotational               0.889              2.981             29.905
 Vibrational             36.297             29.466             24.227
 Vibration     1          0.604              1.948              3.421
 Vibration     2          0.613              1.921              2.910
 Vibration     3          0.633              1.854              2.227
 Vibration     4          0.639              1.835              2.104
 Vibration     5          0.665              1.755              1.700
 Vibration     6          0.679              1.713              1.543
 Vibration     7          0.691              1.678              1.429
 Vibration     8          0.699              1.654              1.361
 Vibration     9          0.736              1.551              1.115
 Vibration    10          0.753              1.504              1.022
 Vibration    11          0.779              1.437              0.908
 Vibration    12          0.797              1.390              0.837
 Vibration    13          0.862              1.236              0.642
 Vibration    14          0.895              1.162              0.565
 Vibration    15          0.922              1.105              0.512
 Vibration    16          0.939              1.070              0.481

 Normal termination of Gaussian 16 at Sat May 24 07:53:23 2025.
