 Gaussian 16, Revision C.01,
 Gaussian 16:  ES64L-G16RevC.01  3-Jul-2019

 ----------------------------------------------------------------------
 #P M062X/Def2TZVPP Symm(None) scf(xqc) pop(None) opt(NoFreeze,TS,CalcA
 ll,NoEigentest,MaxCycle=999)
 ----------------------------------------------------------------------

 ------------------------------
 Gaussian input prepared by ASE
 ------------------------------
 Symbolic Z-matrix:
 Charge =  0 Multiplicity = 1

 SCF Done:  E(RM062X) =  -1199.83931136     A.U. after   18 cycles

 Isotropic polarizability for W=    0.000000       57.63 Bohr**3.
 End of Minotr F.D. properties file   721 does not exist.

 Optimization completed.
    -- Stationary point found.

                          Input orientation:
 ---------------------------------------------------------------------
 Center     Atomic      Atomic             Coordinates (Angstroms)
 Number     Number       Type             X           Y           Z
 ---------------------------------------------------------------------
      1          6           0        1.687048   -0.644165   -1.261736
      2          6           0        1.966925    0.201283    0.006615
      3          9           0       -0.565913   -0.085409    0.287354
      4          9           0        2.021218   -0.464583    1.061957
      5         16           0        2.198412    2.019086    0.025708
      6          8           0        2.886638    2.286444    1.236440
      7          8           0        2.811128    2.307703   -1.221722
      8          8           0        0.745683    2.137820    0.065728
      9          9           0        0.944991    0.006374   -2.117881
     10          9           0        2.900571   -0.849328   -1.768557
     11          9           0        1.148320   -1.802322   -0.956405
     12          1           0       -0.542640    0.846722    0.264593
 ---------------------------------------------------------------------

 ******    1 imaginary frequencies (negative Signs) ******

                      1                      2                      3
                      A                      A                      A
 Frequencies --   -165.7280                48.1982                71.6106
 Red. masses --     14.4298                15.9765                16.5397
 Frc consts  --      0.2335                 0.0219                 0.0500
 IR Inten    --     12.7807                 0.3690                 0.2601

                      4                      5                      6
                      A                      A                      A
 Frequencies --    110.5175               128.1239               157.8124
 Red. masses --     16.5602                14.5943                16.2389
 Frc consts  --      0.1192                 0.1412                 0.2383
 IR Inten    --      1.7831                 1.7010                14.1292

                      7                      8                      9
                      A                      A                      A
 Frequencies --    211.1826               231.2196               235.5562
 Red. masses --     16.3149                15.8616                10.0615
 Frc consts  --      0.4287                 0.4996                 0.3289
 IR Inten    --      8.8689                 4.3399                12.1089

                     10                     11                     12
                      A                      A                      A
 Frequencies --    269.3292               316.0120               444.2057
 Red. masses --     18.0652                18.0384                13.7345
 Frc consts  --      0.7721                 1.0613                 1.5967
 IR Inten    --      0.7202                 0.2190                 4.4223

                     13                     14                     15
                      A                      A                      A
 Frequencies --    501.2155               514.0780               523.4553
 Red. masses --      1.2571                11.3920                 5.3923
 Frc consts  --      0.1861                 1.7738                 0.8705
 IR Inten    --     74.4545                57.3331                67.8650

                     16                     17                     18
                      A                      A                      A
 Frequencies --    533.6113               583.3743               596.7036
 Red. masses --     16.1570                 1.4808                 4.4314
 Frc consts  --      2.7106                 0.2969                 0.9296
 IR Inten    --      9.1180               282.8406                79.9111

                     19                     20                     21
                      A                      A                      A
 Frequencies --    606.5707               704.1741               769.5852
 Red. masses --     14.3549                 8.5587                16.1718
 Frc consts  --      3.1118                 2.5005                 5.6432
 IR Inten    --    132.0572                74.2327                13.5561

                     22                     23                     24
                      A                      A                      A
 Frequencies --    991.8276              1101.4948              1224.5263
 Red. masses --     13.6350                16.0344                13.2369
 Frc consts  --      7.9028                11.4622                11.6942
 IR Inten    --     70.2054                34.9771               177.7261

                     25                     26                     27
                      A                      A                      A
 Frequencies --   1307.8675              1337.6189              1354.6877
 Red. masses --     13.8916                16.9756                13.1639
 Frc consts  --     14.0001                17.8954                14.2335
 IR Inten    --     65.5168               412.3033               225.7077

                     28                     29                     30
                      A                      A                      A
 Frequencies --   1454.4241              1528.9292              3904.5638
 Red. masses --     20.2262                13.5159                 1.0585
 Frc consts  --     25.2085                18.6152                 9.5082
 IR Inten    --    257.7702               232.6378               272.1360

 - Thermochemistry -
 -------------------
 Temperature   298.150 Kelvin.  Pressure   1.00000 Atm.
 Atom     1 has atomic number  6 and mass  12.00000

 Molecular mass:   199.95666 amu.
 Principal axes and moments of inertia in atomic units:
                           1         2         3
     Eigenvalues --  1299.664132192.789492480.57422
           X            0.27836   0.76289   0.58354
           Y            0.88499   0.03237  -0.46448
           Z            0.37324  -0.64572   0.66614
 This molecule is an asymmetric top.
 Rotational symmetry number  1.
 Warning -- assumption of classical behavior for rotation
           may cause significant error
 Rotational temperatures (Kelvin)      0.06664     0.03950     0.03492
 Rotational constants (GHZ):           1.38862     0.82303     0.72755
    1 imaginary frequencies ignored.
 Zero-point vibrational energy     130168.5 (Joules/Mol)
                                   31.11102 (Kcal/Mol)
 Warning -- explicit consideration of  18 degrees of freedom as
           vibrations may cause significant error
 Vibrational temperatures:     69.35   103.03   159.01   184.34   227.06
          (Kelvin)            303.84   332.67   338.91   387.50   454.67
                              639.11   721.14   739.64   753.14   767.75
                              839.35   858.52   872.72  1013.15  1107.26
                             1427.02  1584.81  1761.82  1881.73  1924.54
                             1949.09  2092.59  2199.79  5617.80

 Zero-point correction=                           0.049579 (Hartree/Particle)
 Thermal correction to Energy=                    0.060409
 Thermal correction to Enthalpy=                  0.061353
 Thermal correction to Gibbs Free Energy=         0.011905
 Sum of electronic and zero-point Energies=          -1199.789733
 Sum of electronic and thermal Energies=             -1199.778903
 Sum of electronic and thermal Enthalpies=           -1199.777958
 Sum of electronic and thermal Free Energies=        -1199.827407

                     E (Thermal)             CV                S
                      KCal/Mol        Cal/Mol-Kelvin    Cal/Mol-Kelvin
 Total                   37.907             36.712            104.072
 Electronic               0.000              0.000              0.000
 Translational            0.889              2.981             41.783
 Rotational               0.889              2.981             30.337
 Vibrational             36.130             30.751             31.952
 Vibration     1          0.595              1.978              4.890
 Vibration     2          0.598              1.968              4.109
 Vibration     3          0.606              1.941              3.260
 Vibration     4          0.611              1.925              2.974
 Vibration     5          0.621              1.894              2.576
 Vibration     6          0.643              1.824              2.033
 Vibration     7          0.653              1.793              1.869
 Vibration     8          0.655              1.786              1.836
 Vibration     9          0.674              1.730              1.601
 Vibration    10          0.703              1.643              1.331
 Vibration    11          0.804              1.374              0.813
 Vibration    12          0.857              1.247              0.655
 Vibration    13          0.869              1.219              0.624
 Vibration    14          0.878              1.198              0.602
 Vibration    15          0.889              1.176              0.579
 Vibration    16          0.940              1.067              0.479
 Vibration    17          0.955              1.039              0.455
 Vibration    18          0.965              1.018              0.438

 Normal termination of Gaussian 16 at Sat May 24 10:03:56 2025.
