 Gaussian 16, Revision C.01,
 Gaussian 16:  ES64L-G16RevC.01  3-Jul-2019

 ------------------------------------------
 #P am1 Symm(None) scf(xqc) pop(None) force
 ------------------------------------------

 ------------------------------
 Gaussian input prepared by ASE
 ------------------------------
 Symbolic Z-matrix:
 Charge =  0 Multiplicity = 1

                          Input orientation:
 ---------------------------------------------------------------------
 Center     Atomic      Atomic             Coordinates (Angstroms)
 Number     Number       Type             X           Y           Z
 ---------------------------------------------------------------------
      1          6           0       -0.128907    0.474126    0.038335
      2          6           0        1.850050   -0.155359    0.308735
      3          9           0        2.006610   -0.573828    1.564175
      4          9           0        2.091727   -1.211636   -0.461560
      5         16           0        2.607606    1.482568   -0.170156
      6          8           0        2.780604    2.497917    0.804011
      7          8           0        2.979308    1.725347   -1.518202
      8          8           0        0.829316    1.779268   -0.329769
      9          9           0       -0.291309    0.157082    1.304979
     10          9           0       -1.258582    1.250478   -0.219113
     11          9           0       -0.195932   -0.462992   -0.892246
     12          1           0        0.425698    2.629166   -0.082549
 ---------------------------------------------------------------------

 SCF Done:  E(RAM1) =  0.694819665028     A.U. after   17 cycles
 Normal termination of Gaussian 16 at Sat May 24 10:47:00 2025.
