 Gaussian 16, Revision C.01,
 Gaussian 16:  ES64L-G16RevC.01  3-Jul-2019

 ----------------------------------------------------------------------
 #P M062X/Def2TZVPP Symm(None) scf(xqc) pop(None) opt(NoFreeze,TS,CalcA
 ll,NoEigentest,MaxCycle=999)
 ----------------------------------------------------------------------

 ------------------------------
 Gaussian input prepared by ASE
 ------------------------------
 Symbolic Z-matrix:
 Charge =  0 Multiplicity = 1

 SCF Done:  E(RM062X) =  -1199.72645433     A.U. after   16 cycles
 SCF Done:  E(RM062X) =  -1199.74859226     A.U. after   14 cycles
 SCF Done:  E(RM062X) =  -1199.76210948     A.U. after   14 cycles
 SCF Done:  E(RM062X) =  -1199.76401745     A.U. after   14 cycles
 SCF Done:  E(RM062X) =  -1199.76463184     A.U. after   14 cycles
 SCF Done:  E(RM062X) =  -1199.76532771     A.U. after   14 cycles
 SCF Done:  E(RM062X) =  -1199.76541485     A.U. after   12 cycles
 SCF Done:  E(RM062X) =  -1199.76541502     A.U. after    8 cycles

 Isotropic polarizability for W=    0.000000       64.17 Bohr**3.
 End of Minotr F.D. properties file   721 does not exist.

 Optimization completed.
    -- Stationary point found.

                          Input orientation:
 ---------------------------------------------------------------------
 Center     Atomic      Atomic             Coordinates (Angstroms)
 Number     Number       Type             X           Y           Z
 ---------------------------------------------------------------------
      1          6           0       -0.225804    0.506494    0.435679
      2          6           0        1.650949   -0.418635   -0.564523
      3          9           0        2.571425   -1.355864   -0.314046
      4          9           0        1.395749   -0.456283   -1.887660
      5         16           0        2.309890    1.234926   -0.186218
      6          8           0        0.983216    1.866312    0.018649
      7          8           0        3.244179    1.265695    0.885862
      8          8           0        2.843623    2.059282   -1.428043
      9          9           0       -1.037369    1.472993    0.810453
     10          9           0       -0.838368   -0.121454   -0.524577
     11          9           0        0.057593   -0.179031    1.504126
     12          1           0        3.803408    1.949744   -1.492298
 ---------------------------------------------------------------------

 ******    1 imaginary frequencies (negative Signs) ******

                      1                      2                      3
                      A                      A                      A
 Frequencies --   -451.8612                41.5175                76.9796
 Red. masses --     15.3140                15.2404                13.9551
 Frc consts  --      1.8423                 0.0155                 0.0487
 IR Inten    --     69.3444                 1.0868                 1.6067

                      4                      5                      6
                      A                      A                      A
 Frequencies --     98.6894               156.4312               163.8634
 Red. masses --     16.1100                11.0618                15.3169
 Frc consts  --      0.0924                 0.1595                 0.2423
 IR Inten    --     14.1847                 4.8216                18.9191

                      7                      8                      9
                      A                      A                      A
 Frequencies --    208.5173               239.2011               297.8939
 Red. masses --      2.3215                 2.3827                13.3513
 Frc consts  --      0.0595                 0.0803                 0.6981
 IR Inten    --     32.8483                71.2752                 5.5148

                     10                     11                     12
                      A                      A                      A
 Frequencies --    327.0016               348.1526               406.4471
 Red. masses --     11.6312                11.1232                 8.2569
 Frc consts  --      0.7328                 0.7944                 0.8037
 IR Inten    --     35.7889                10.7457                16.1828

                     13                     14                     15
                      A                      A                      A
 Frequencies --    468.5707               494.6145               524.6801
 Red. masses --     13.3629                 8.5365                16.1329
 Frc consts  --      1.7286                 1.2305                 2.6167
 IR Inten    --      5.8648                24.0733                25.7883

                     16                     17                     18
                      A                      A                      A
 Frequencies --    589.8217               605.6735               641.4231
 Red. masses --     16.8051                18.2223                13.3464
 Frc consts  --      3.4445                 3.9385                 3.2352
 IR Inten    --    124.8133                 4.1423                74.6031

                     19                     20                     21
                      A                      A                      A
 Frequencies --    680.5821               720.7186               899.7588
 Red. masses --     16.8657                14.7832                18.5595
 Frc consts  --      4.6027                 4.5243                 8.8525
 IR Inten    --     28.1280               350.3011               289.2148

                     22                     23                     24
                      A                      A                      A
 Frequencies --    952.8943              1066.8750              1150.0714
 Red. masses --     16.6065                10.4674                 7.3243
 Frc consts  --      8.8842                 7.0196                 5.7077
 IR Inten    --    473.1583                43.5257               184.2203

                     25                     26                     27
                      A                      A                      A
 Frequencies --   1151.6215              1196.5094              1252.3825
 Red. masses --      1.4341                 9.1497                11.3110
 Frc consts  --      1.1206                 7.7178                10.4526
 IR Inten    --     46.8134               249.7976               347.3209

                     28                     29                     30
                      A                      A                      A
 Frequencies --   1380.7824              1395.5249              3811.0666
 Red. masses --     12.9100                13.6134                 1.0658
 Frc consts  --     14.5020                15.6204                 9.1207
 IR Inten    --    173.2728               424.1098               238.7969

 - Thermochemistry -
 -------------------
 Temperature   298.150 Kelvin.  Pressure   1.00000 Atm.
 Atom     1 has atomic number  6 and mass  12.00000

 Molecular mass:   199.95666 amu.
 Principal axes and moments of inertia in atomic units:
                           1         2         3
     Eigenvalues --  1330.660612105.896062449.33107
           X            0.94619   0.02862   0.32233
           Y            0.09612   0.92627  -0.36439
           Z           -0.30899   0.37576   0.87368
 This molecule is an asymmetric top.
 Rotational symmetry number  1.
 Warning -- assumption of classical behavior for rotation
           may cause significant error
 Rotational temperatures (Kelvin)      0.06509     0.04113     0.03536
 Rotational constants (GHZ):           1.35627     0.85699     0.73683
    1 imaginary frequencies ignored.
 Zero-point vibrational energy     127691.0 (Joules/Mol)
                                   30.51888 (Kcal/Mol)
 Warning -- explicit consideration of  16 degrees of freedom as
           vibrations may cause significant error
 Vibrational temperatures:     59.73   110.76   141.99   225.07   235.76
          (Kelvin)            300.01   344.16   428.60   470.48   500.91
                              584.79   674.17   711.64   754.90   848.62
                              871.43   922.86   979.21  1036.95  1294.55
                             1371.00  1535.00  1654.70  1656.93  1721.51
                             1801.90  1986.64  2007.85  5483.27

 Zero-point correction=                           0.048635 (Hartree/Particle)
 Thermal correction to Energy=                    0.059198
 Thermal correction to Enthalpy=                  0.060142
 Thermal correction to Gibbs Free Energy=         0.011224
 Sum of electronic and zero-point Energies=          -1199.716780
 Sum of electronic and thermal Energies=             -1199.706217
 Sum of electronic and thermal Enthalpies=           -1199.705273
 Sum of electronic and thermal Free Energies=        -1199.754191

                     E (Thermal)             CV                S
                      KCal/Mol        Cal/Mol-Kelvin    Cal/Mol-Kelvin
 Total                   37.147             36.355            102.957
 Electronic               0.000              0.000              0.000
 Translational            0.889              2.981             41.783
 Rotational               0.889              2.981             30.307
 Vibrational             35.370             30.393             30.866
 Vibration     1          0.594              1.981              5.185
 Vibration     2          0.599              1.965              3.966
 Vibration     3          0.604              1.950              3.480
 Vibration     4          0.620              1.895              2.593
 Vibration     5          0.623              1.887              2.505
 Vibration     6          0.642              1.828              2.057
 Vibration     7          0.657              1.781              1.809
 Vibration     8          0.691              1.678              1.429
 Vibration     9          0.711              1.622              1.275
 Vibration    10          0.726              1.579              1.175
 Vibration    11          0.771              1.456              0.939
 Vibration    12          0.826              1.320              0.742
 Vibration    13          0.850              1.262              0.672
 Vibration    14          0.880              1.195              0.599
 Vibration    15          0.947              1.053              0.467
 Vibration    16          0.964              1.020              0.440

 Normal termination of Gaussian 16 at Sat May 24 11:07:05 2025.
