 Gaussian 16, Revision C.01,
 Gaussian 16:  ES64L-G16RevC.01  3-Jul-2019

 ----------------------------------------------------------------------
 #P M062X/Def2TZVPP Symm(None) scf(xqc) pop(None) freq opt(CalcFC, Tigh
 t)
 ----------------------------------------------------------------------

 ------------------------------
 Gaussian input prepared by ASE
 ------------------------------
 Symbolic Z-matrix:
 Charge =  0 Multiplicity = 1

 SCF Done:  E(RM062X) =  -1199.92225821     A.U. after   13 cycles
 SCF Done:  E(RM062X) =  -1199.92549517     A.U. after   12 cycles
 SCF Done:  E(RM062X) =  -1199.92558692     A.U. after   10 cycles
 SCF Done:  E(RM062X) =  -1199.92559025     A.U. after    9 cycles
 SCF Done:  E(RM062X) =  -1199.92559039     A.U. after    7 cycles
 SCF Done:  E(RM062X) =  -1199.92559039     A.U. after    5 cycles
 SCF Done:  E(RM062X) =  -1199.92559039     A.U. after    3 cycles
 Optimization completed.
    -- Stationary point found.
 Normal termination of Gaussian 16 at Sat May 24 06:03:15 2025.

 ---------------------------------------------------------------------
 #P Geom=AllCheck Guess=TCheck SCRF=Check GenChk RM062X/def2TZVPP Freq
 ---------------------------------------------------------------------

 Structure from the checkpoint file:  "/tmp/Gau-16638.chk"
 ------------------------------
 Gaussian input prepared by ASE
 ------------------------------
 Charge =  0 Multiplicity = 1

                          Input orientation:
 ---------------------------------------------------------------------
 Center     Atomic      Atomic             Coordinates (Angstroms)
 Number     Number       Type             X           Y           Z
 ---------------------------------------------------------------------
      1          6           0        3.518191   -1.574930   -1.117406
      2          6           0        1.340682    0.008839   -0.003310
      3          9           0        0.004011    0.014921   -0.016378
      4          9           0        1.748367   -0.675462    1.058259
      5         16           0        1.831677   -0.915900   -1.556960
      6          8           0        2.038400    0.107964   -2.537078
      7          8           0        0.981846   -2.036397   -1.760841
      8          8           0        1.871562    1.233370    0.014645
      9          9           0        3.417887   -2.581800   -0.276715
     10          9           0        4.079855   -1.982775   -2.238498
     11          9           0        4.244205   -0.610911   -0.578964
     12          1           0        1.882245    1.601344   -0.881339
 ---------------------------------------------------------------------

 SCF Done:  E(RM062X) =  -1199.92559039     A.U. after    1 cycles

 Isotropic polarizability for W=    0.000000       55.62 Bohr**3.
 End of Minotr F.D. properties file   721 does not exist.

                      1                      2                      3
                      A                      A                      A
 Frequencies --     48.3197                53.1508               110.5547
 Red. masses --     15.0298                17.9794                17.2383
 Frc consts  --      0.0207                 0.0299                 0.1241
 IR Inten    --      0.8102                 0.1918                 0.3319

                      4                      5                      6
                      A                      A                      A
 Frequencies --    186.1511               205.6477               227.7244
 Red. masses --     11.9158                11.1635                16.0558
 Frc consts  --      0.2433                 0.2782                 0.4906
 IR Inten    --      7.3022                 6.4037                 3.5605

                      7                      8                      9
                      A                      A                      A
 Frequencies --    274.4467               297.9598               304.5172
 Red. masses --     16.4999                12.1638                 5.0572
 Frc consts  --      0.7322                 0.6363                 0.2763
 IR Inten    --      0.4595                11.7235                21.8131

                     10                     11                     12
                      A                      A                      A
 Frequencies --    334.8902               388.4544               421.8160
 Red. masses --      7.0496                 2.0323                 4.3567
 Frc consts  --      0.4658                 0.1807                 0.4567
 IR Inten    --     19.7860                68.2605                25.9540

                     13                     14                     15
                      A                      A                      A
 Frequencies --    523.4648               532.3825               558.7871
 Red. masses --     11.4038                14.4396                14.1416
 Frc consts  --      1.8411                 2.4113                 2.6016
 IR Inten    --     27.7705                23.9184                 0.8509

                     16                     17                     18
                      A                      A                      A
 Frequencies --    584.3525               602.2520               640.3362
 Red. masses --     11.9308                16.5713                16.2206
 Frc consts  --      2.4003                 3.5413                 3.9186
 IR Inten    --      7.1698                33.5332               164.8116

                     19                     20                     21
                      A                      A                      A
 Frequencies --    778.9870               806.5837              1070.0878
 Red. masses --     14.2392                17.4543                 4.2448
 Frc consts  --      5.0909                 6.6904                 2.8638
 IR Inten    --      4.8717                 4.2710               141.9770

                     22                     23                     24
                      A                      A                      A
 Frequencies --   1157.3549              1201.5820              1256.2361
 Red. masses --      8.3156                 5.5751                 7.1787
 Frc consts  --      6.5626                 4.7425                 6.6748
 IR Inten    --    129.7600               405.1346                42.1810

                     25                     26                     27
                      A                      A                      A
 Frequencies --   1289.5290              1301.5764              1322.6138
 Red. masses --     12.5337                12.0168                 8.6316
 Frc consts  --     12.2798                11.9944                 8.8962
 IR Inten    --    143.4254               143.3915               405.7249

                     28                     29                     30
                      A                      A                      A
 Frequencies --   1398.4369              1461.8090              3782.7265
 Red. masses --      2.6467                10.1990                 1.0656
 Frc consts  --      3.0496                12.8407                 8.9833
 IR Inten    --    179.6403               264.3252               129.8973

 - Thermochemistry -
 -------------------
 Temperature   298.150 Kelvin.  Pressure   1.00000 Atm.
 Atom     1 has atomic number  6 and mass  12.00000

 Molecular mass:   199.95666 amu.
 Principal axes and moments of inertia in atomic units:
                           1         2         3
     Eigenvalues --  1191.190892084.124262276.58341
           X            0.76150   0.49557   0.41778
           Y           -0.52823   0.10094   0.84308
           Z           -0.37563   0.86269  -0.33864
 This molecule is an asymmetric top.
 Rotational symmetry number  1.
 Warning -- assumption of classical behavior for rotation
           may cause significant error
 Rotational temperatures (Kelvin)      0.07271     0.04156     0.03805
 Rotational constants (GHZ):           1.51507     0.86595     0.79274
 Zero-point vibrational energy     138304.6 (Joules/Mol)
                                   33.05560 (Kcal/Mol)
 Warning -- explicit consideration of  17 degrees of freedom as
           vibrations may cause significant error
 Vibrational temperatures:     69.52    76.47   159.06   267.83   295.88
          (Kelvin)            327.64   394.87   428.70   438.13   481.83
                              558.90   606.90   753.15   765.98   803.97
                              840.75   866.51   921.30  1120.79  1160.49
                             1539.62  1665.18  1728.81  1807.44  1855.34
                             1872.68  1902.95  2012.04  2103.22  5442.50

 Zero-point correction=                           0.052677 (Hartree/Particle)
 Thermal correction to Energy=                    0.063167
 Thermal correction to Enthalpy=                  0.064111
 Thermal correction to Gibbs Free Energy=         0.015528
 Sum of electronic and zero-point Energies=          -1199.872913
 Sum of electronic and thermal Energies=             -1199.862423
 Sum of electronic and thermal Enthalpies=           -1199.861479
 Sum of electronic and thermal Free Energies=        -1199.910062

                     E (Thermal)             CV                S
                      KCal/Mol        Cal/Mol-Kelvin    Cal/Mol-Kelvin
 Total                   39.638             36.341            102.252
 Electronic               0.000              0.000              0.000
 Translational            0.889              2.981             41.783
 Rotational               0.889              2.981             30.114
 Vibrational             37.861             30.380             30.354
 Vibration     1          0.595              1.978              4.885
 Vibration     2          0.596              1.976              4.697
 Vibration     3          0.606              1.941              3.259
 Vibration     4          0.632              1.859              2.266
 Vibration     5          0.640              1.832              2.082
 Vibration     6          0.651              1.799              1.897
 Vibration     7          0.677              1.721              1.568
 Vibration     8          0.691              1.678              1.428
 Vibration     9          0.695              1.665              1.392
 Vibration    10          0.716              1.606              1.236
 Vibration    11          0.757              1.495              1.006
 Vibration    12          0.784              1.423              0.886
 Vibration    13          0.878              1.198              0.602
 Vibration    14          0.887              1.178              0.582
 Vibration    15          0.914              1.120              0.526
 Vibration    16          0.941              1.065              0.477
 Vibration    17          0.961              1.027              0.446

 Optimization completed.
    -- Stationary point found.
 Normal termination of Gaussian 16 at Sat May 24 06:07:57 2025.
