 Gaussian 16, Revision C.01,
 Gaussian 16:  ES64L-G16RevC.01  3-Jul-2019

 ----------------------------------------------------------------------
 #P M062X/Def2TZVPP Symm(None) scf(xqc) pop(None) freq opt(CalcFC, Tigh
 t)
 ----------------------------------------------------------------------

 ------------------------------
 Gaussian input prepared by ASE
 ------------------------------
 Symbolic Z-matrix:
 Charge =  0 Multiplicity = 1

 SCF Done:  E(RM062X) =  -1199.91870046     A.U. after   13 cycles
 SCF Done:  E(RM062X) =  -1199.92202139     A.U. after   13 cycles
 SCF Done:  E(RM062X) =  -1199.92201704     A.U. after   14 cycles
 SCF Done:  E(RM062X) =  -1199.92292754     A.U. after   12 cycles
 SCF Done:  E(RM062X) =  -1199.92321209     A.U. after   11 cycles
 SCF Done:  E(RM062X) =  -1199.92387427     A.U. after   12 cycles
 SCF Done:  E(RM062X) =  -1199.92200032     A.U. after   14 cycles
 SCF Done:  E(RM062X) =  -1199.92487583     A.U. after   12 cycles
 SCF Done:  E(RM062X) =  -1199.92541798     A.U. after   11 cycles
 SCF Done:  E(RM062X) =  -1199.92599407     A.U. after   11 cycles
 SCF Done:  E(RM062X) =  -1199.92602905     A.U. after   11 cycles
 SCF Done:  E(RM062X) =  -1199.92612945     A.U. after   10 cycles
 SCF Done:  E(RM062X) =  -1199.92613928     A.U. after    9 cycles
 SCF Done:  E(RM062X) =  -1199.92614022     A.U. after    7 cycles
 SCF Done:  E(RM062X) =  -1199.92614029     A.U. after    6 cycles
 SCF Done:  E(RM062X) =  -1199.92614030     A.U. after    4 cycles
 SCF Done:  E(RM062X) =  -1199.92614030     A.U. after    4 cycles
 SCF Done:  E(RM062X) =  -1199.92614030     A.U. after    3 cycles
 Optimization completed.
    -- Stationary point found.
 Normal termination of Gaussian 16 at Sat May 24 06:10:17 2025.

 ---------------------------------------------------------------------
 #P Geom=AllCheck Guess=TCheck SCRF=Check GenChk RM062X/def2TZVPP Freq
 ---------------------------------------------------------------------

 Structure from the checkpoint file:  "/tmp/Gau-16640.chk"
 ------------------------------
 Gaussian input prepared by ASE
 ------------------------------
 Charge =  0 Multiplicity = 1

                          Input orientation:
 ---------------------------------------------------------------------
 Center     Atomic      Atomic             Coordinates (Angstroms)
 Number     Number       Type             X           Y           Z
 ---------------------------------------------------------------------
      1          6           0        0.695296   -2.231951   -1.702945
      2          6           0        1.187784    0.185272   -0.120332
      3          9           0        0.143365    0.939463   -0.399488
      4          9           0        0.809934   -0.765588    0.753183
      5         16           0        1.767735   -0.708117   -1.656933
      6          8           0        3.098149   -1.127371   -1.335829
      7          8           0        1.447631    0.053028   -2.813927
      8          8           0        2.188906    0.943438    0.335501
      9          9           0       -0.565360   -1.875942   -1.530306
     10          9           0        0.846053   -2.780512   -2.891941
     11          9           0        1.051739   -3.089265   -0.770776
     12          1           0        3.013222    0.434440    0.334119
 ---------------------------------------------------------------------

 SCF Done:  E(RM062X) =  -1199.92614030     A.U. after    1 cycles

 Isotropic polarizability for W=    0.000000       55.78 Bohr**3.
 End of Minotr F.D. properties file   721 does not exist.

                      1                      2                      3
                      A                      A                      A
 Frequencies --     47.3892                60.0769               113.6277
 Red. masses --     14.2970                17.1856                17.3839
 Frc consts  --      0.0189                 0.0365                 0.1322
 IR Inten    --      0.6744                 0.1573                 0.3548

                      4                      5                      6
                      A                      A                      A
 Frequencies --    191.1325               198.5961               236.8451
 Red. masses --     17.0381                14.0525                10.9283
 Frc consts  --      0.3667                 0.3265                 0.3612
 IR Inten    --      5.3498                 1.7374                18.4137

                      7                      8                      9
                      A                      A                      A
 Frequencies --    277.5735               295.4163               311.9733
 Red. masses --      6.7993                 8.8965                16.8673
 Frc consts  --      0.3087                 0.4574                 0.9672
 IR Inten    --     11.3969                13.9009                 1.0126

                     10                     11                     12
                      A                      A                      A
 Frequencies --    336.7545               392.0088               413.7462
 Red. masses --      8.8008                 2.0815                 3.3557
 Frc consts  --      0.5880                 0.1885                 0.3385
 IR Inten    --      3.9946                45.6855                54.6553

                     13                     14                     15
                      A                      A                      A
 Frequencies --    531.0593               535.1127               551.6483
 Red. masses --     15.3525                12.6476                11.0701
 Frc consts  --      2.5510                 2.1338                 1.9848
 IR Inten    --     35.0254                20.6726                 9.9372

                     16                     17                     18
                      A                      A                      A
 Frequencies --    575.2686               605.7513               644.4923
 Red. masses --     12.7400                14.5071                17.0746
 Frc consts  --      2.4840                 3.1363                 4.1786
 IR Inten    --      6.6486                43.7251               136.7562

                     19                     20                     21
                      A                      A                      A
 Frequencies --    778.8980               809.2628              1077.3414
 Red. masses --     14.8267                17.4865                 4.9635
 Frc consts  --      5.2998                 6.7473                 3.3943
 IR Inten    --      8.1442                 4.7358               190.8638

                     22                     23                     24
                      A                      A                      A
 Frequencies --   1158.0791              1174.7568              1265.7385
 Red. masses --     12.0397                 3.1801                 8.5919
 Frc consts  --      9.5135                 2.5858                 8.1101
 IR Inten    --    146.6775               151.9874               243.3735

                     25                     26                     27
                      A                      A                      A
 Frequencies --   1285.0607              1304.9802              1318.3001
 Red. masses --     12.9151                12.8187                 7.6643
 Frc consts  --     12.5659                12.8618                 7.8479
 IR Inten    --    203.9883               230.8894               298.5738

                     28                     29                     30
                      A                      A                      A
 Frequencies --   1408.3686              1465.5595              3788.4774
 Red. masses --      3.2704                 8.5602                 1.0655
 Frc consts  --      3.8220                10.8328                 9.0100
 IR Inten    --     87.3302               317.2662               127.6333

 - Thermochemistry -
 -------------------
 Temperature   298.150 Kelvin.  Pressure   1.00000 Atm.
 Atom     1 has atomic number  6 and mass  12.00000

 Molecular mass:   199.95666 amu.
 Principal axes and moments of inertia in atomic units:
                           1         2         3
     Eigenvalues --  1191.101282072.013392269.49569
           X            0.17015   0.72357   0.66895
           Y            0.82428   0.26751  -0.49900
           Z            0.54001  -0.63631   0.55090
 This molecule is an asymmetric top.
 Rotational symmetry number  1.
 Warning -- assumption of classical behavior for rotation
           may cause significant error
 Rotational temperatures (Kelvin)      0.07272     0.04180     0.03816
 Rotational constants (GHZ):           1.51519     0.87101     0.79522
 Zero-point vibrational energy     138487.5 (Joules/Mol)
                                   33.09930 (Kcal/Mol)
 Warning -- explicit consideration of  17 degrees of freedom as
           vibrations may cause significant error
 Vibrational temperatures:     68.18    86.44   163.48   275.00   285.74
          (Kelvin)            340.77   399.37   425.04   448.86   484.51
                              564.01   595.29   764.08   769.91   793.70
                              827.68   871.54   927.28  1120.66  1164.35
                             1550.05  1666.22  1690.21  1821.12  1848.92
                             1877.58  1896.74  2026.33  2108.61  5450.77

 Zero-point correction=                           0.052747 (Hartree/Particle)
 Thermal correction to Energy=                    0.063199
 Thermal correction to Enthalpy=                  0.064143
 Thermal correction to Gibbs Free Energy=         0.015734
 Sum of electronic and zero-point Energies=          -1199.873393
 Sum of electronic and thermal Energies=             -1199.862942
 Sum of electronic and thermal Enthalpies=           -1199.861997
 Sum of electronic and thermal Free Energies=        -1199.910407

                     E (Thermal)             CV                S
                      KCal/Mol        Cal/Mol-Kelvin    Cal/Mol-Kelvin
 Total                   39.658             36.312            101.886
 Electronic               0.000              0.000              0.000
 Translational            0.889              2.981             41.783
 Rotational               0.889              2.981             30.106
 Vibrational             37.880             30.350             29.997
 Vibration     1          0.595              1.979              4.923
 Vibration     2          0.597              1.973              4.455
 Vibration     3          0.607              1.938              3.206
 Vibration     4          0.634              1.852              2.217
 Vibration     5          0.637              1.842              2.146
 Vibration     6          0.656              1.784              1.826
 Vibration     7          0.679              1.715              1.549
 Vibration     8          0.690              1.682              1.443
 Vibration     9          0.700              1.651              1.352
 Vibration    10          0.717              1.602              1.227
 Vibration    11          0.759              1.487              0.992
 Vibration    12          0.777              1.440              0.913
 Vibration    13          0.886              1.181              0.585
 Vibration    14          0.890              1.172              0.576
 Vibration    15          0.907              1.136              0.541
 Vibration    16          0.932              1.085              0.494
 Vibration    17          0.964              1.020              0.440

                           ! Non-Optimized Parameters !
 Normal termination of Gaussian 16 at Sat May 24 06:14:49 2025.
