 Gaussian 16, Revision C.01,
 Gaussian 16:  ES64L-G16RevC.01  3-Jul-2019

 ----------------------------------------------------------------------
 #P M062X/Def2TZVPP Symm(None) scf(xqc) pop(None) opt(NoFreeze,TS,CalcA
 ll,NoEigentest,MaxCycle=999)
 ----------------------------------------------------------------------

 ------------------------------
 Gaussian input prepared by ASE
 ------------------------------
 Symbolic Z-matrix:
 Charge =  0 Multiplicity = 1

 SCF Done:  E(RM062X) =  -1199.72403176     A.U. after   15 cycles
 SCF Done:  E(RM062X) =  -1199.73934511     A.U. after   14 cycles
 SCF Done:  E(RM062X) =  -1199.74672903     A.U. after   15 cycles
 SCF Done:  E(RM062X) =  -1199.74807429     A.U. after   15 cycles
 SCF Done:  E(RM062X) =  -1199.74835458     A.U. after   13 cycles
 SCF Done:  E(RM062X) =  -1199.74836020     A.U. after    9 cycles

 Isotropic polarizability for W=    0.000000       62.01 Bohr**3.
 End of Minotr F.D. properties file   721 does not exist.

 Optimization completed.
    -- Stationary point found.

                          Input orientation:
 ---------------------------------------------------------------------
 Center     Atomic      Atomic             Coordinates (Angstroms)
 Number     Number       Type             X           Y           Z
 ---------------------------------------------------------------------
      1          6           0       -0.143851    0.530619    0.127101
      2          6           0        1.806008   -0.230468    0.246784
      3          9           0        2.303222   -0.699897    1.387069
      4          9           0        2.222913   -1.012661   -0.748479
      5         16           0        2.482968    1.482263   -0.056154
      6          8           0        2.492028    2.283220    1.115541
      7          8           0        3.255695    1.785439   -1.205563
      8          8           0        0.787673    1.657542   -0.663005
      9          9           0       -0.174431    0.469370    1.447380
     10          9           0       -1.260003    1.331665   -0.108078
     11          9           0       -0.465357   -0.549830   -0.551066
     12          1           0        0.389323    2.544876   -0.644890
 ---------------------------------------------------------------------

 ******    1 imaginary frequencies (negative Signs) ******

                      1                      2                      3
                      A                      A                      A
 Frequencies --   -550.8751                55.6634                96.7279
 Red. masses --     10.4272                13.7073                14.4244
 Frc consts  --      1.8643                 0.0250                 0.0795
 IR Inten    --     25.7178                 1.1962                17.5391

                      4                      5                      6
                      A                      A                      A
 Frequencies --    122.7494               144.1464               156.7419
 Red. masses --     16.3067                14.7892                15.0314
 Frc consts  --      0.1448                 0.1811                 0.2176
 IR Inten    --     36.8986                25.1193                23.8258

                      7                      8                      9
                      A                      A                      A
 Frequencies --    214.8094               263.8910               268.9943
 Red. masses --     16.3321                13.9030                 5.5528
 Frc consts  --      0.4440                 0.5704                 0.2367
 IR Inten    --     20.2254                 5.6575                15.6301

                     10                     11                     12
                      A                      A                      A
 Frequencies --    330.5376               370.6924               441.0642
 Red. masses --     13.2620                13.4450                10.5892
 Frc consts  --      0.8537                 1.0885                 1.2137
 IR Inten    --     13.4710                29.1056                15.8407

                     13                     14                     15
                      A                      A                      A
 Frequencies --    452.0035               489.7885               535.3769
 Red. masses --      4.6947                 4.7099                11.2053
 Frc consts  --      0.5651                 0.6657                 1.8923
 IR Inten    --     36.7325                68.1563               145.3339

                     16                     17                     18
                      A                      A                      A
 Frequencies --    541.4479               612.5903               649.7722
 Red. masses --      4.0228                15.1714                13.4157
 Frc consts  --      0.6948                 3.3544                 3.3372
 IR Inten    --     93.0835                14.5422                10.1377

                     19                     20                     21
                      A                      A                      A
 Frequencies --    686.9803               728.7278               736.2273
 Red. masses --      8.2952                 3.9545                14.9712
 Frc consts  --      2.3066                 1.2373                 4.7811
 IR Inten    --     96.6057                40.7102                91.5205

                     22                     23                     24
                      A                      A                      A
 Frequencies --    824.2924              1066.8750              1141.5967
 Red. masses --      9.1024                 4.3937                 1.8350
 Frc consts  --      3.6439                 2.9465                 1.4090
 IR Inten    --    435.8535               353.0063               305.7716

                     25                     26                     27
                      A                      A                      A
 Frequencies --   1195.0160              1221.8408              1272.9417
 Red. masses --      8.9420                13.2758                13.3660
 Frc consts  --      7.5237                11.6773                12.7605
 IR Inten    --    272.2029               138.9701               121.5952

                     28                     29                     30
                      A                      A                      A
 Frequencies --   1328.2965              1475.9075              3729.9533
 Red. masses --     10.9137                20.3400                 1.0657
 Frc consts  --     11.3452                26.1048                 8.7355
 IR Inten    --    291.5256               282.6004               211.9752

 - Thermochemistry -
 -------------------
 Temperature   298.150 Kelvin.  Pressure   1.00000 Atm.
 Atom     1 has atomic number  6 and mass  12.00000

 Molecular mass:   199.95666 amu.
 Principal axes and moments of inertia in atomic units:
                           1         2         3
     Eigenvalues --  1325.169232045.895842368.10835
           X            0.97380  -0.22450   0.03635
           Y            0.21760   0.96622   0.13809
           Z           -0.06612  -0.12657   0.98975
 This molecule is an asymmetric top.
 Rotational symmetry number  1.
 Warning -- assumption of classical behavior for rotation
           may cause significant error
 Rotational temperatures (Kelvin)      0.06536     0.04234     0.03658
 Rotational constants (GHZ):           1.36189     0.88213     0.76210
    1 imaginary frequencies ignored.
 Zero-point vibrational energy     126538.9 (Joules/Mol)
                                   30.24352 (Kcal/Mol)
 Warning -- explicit consideration of  16 degrees of freedom as
           vibrations may cause significant error
 Vibrational temperatures:     80.09   139.17   176.61   207.39   225.52
          (Kelvin)            309.06   379.68   387.02   475.57   533.34
                              634.59   650.33   704.70   770.29   779.02
                              881.38   934.88   988.41  1048.48  1059.27
                             1185.97  1535.00  1642.50  1719.36  1757.96
                             1831.48  1911.12  2123.50  5366.57

 Zero-point correction=                           0.048196 (Hartree/Particle)
 Thermal correction to Energy=                    0.058705
 Thermal correction to Enthalpy=                  0.059650
 Thermal correction to Gibbs Free Energy=         0.011341
 Sum of electronic and zero-point Energies=          -1199.700164
 Sum of electronic and thermal Energies=             -1199.689655
 Sum of electronic and thermal Enthalpies=           -1199.688711
 Sum of electronic and thermal Free Energies=        -1199.737019

                     E (Thermal)             CV                S
                      KCal/Mol        Cal/Mol-Kelvin    Cal/Mol-Kelvin
 Total                   36.838             36.666            101.674
 Electronic               0.000              0.000              0.000
 Translational            0.889              2.981             41.783
 Rotational               0.889              2.981             30.241
 Vibrational             35.061             30.705             29.650
 Vibration     1          0.596              1.975              4.605
 Vibration     2          0.603              1.952              3.519
 Vibration     3          0.610              1.930              3.057
 Vibration     4          0.616              1.909              2.748
 Vibration     5          0.620              1.895              2.589
 Vibration     6          0.645              1.818              2.002
 Vibration     7          0.670              1.739              1.636
 Vibration     8          0.673              1.730              1.603
 Vibration     9          0.713              1.615              1.257
 Vibration    10          0.743              1.532              1.077
 Vibration    11          0.801              1.381              0.823
 Vibration    12          0.811              1.356              0.790
 Vibration    13          0.846              1.273              0.684
 Vibration    14          0.890              1.172              0.575
 Vibration    15          0.897              1.158              0.562
 Vibration    16          0.972              1.005              0.429

 Normal termination of Gaussian 16 at Sat May 24 11:20:05 2025.
