 Gaussian 16, Revision C.01,
 Gaussian 16:  ES64L-G16RevC.01  3-Jul-2019

 ----------------------------------------------------------------------
 #P M062X/Def2TZVPP Symm(None) scf(xqc) pop(None) opt(NoFreeze,TS,CalcA
 ll,NoEigentest,MaxCycle=999)
 ----------------------------------------------------------------------

 ------------------------------
 Gaussian input prepared by ASE
 ------------------------------
 Symbolic Z-matrix:
 Charge =  0 Multiplicity = 1

 SCF Done:  E(RM062X) =  -1199.72408186     A.U. after   15 cycles
 SCF Done:  E(RM062X) =  -1199.73929210     A.U. after   14 cycles
 SCF Done:  E(RM062X) =  -1199.74666554     A.U. after   15 cycles
 SCF Done:  E(RM062X) =  -1199.74802415     A.U. after   15 cycles
 SCF Done:  E(RM062X) =  -1199.74834205     A.U. after   13 cycles
 SCF Done:  E(RM062X) =  -1199.74835461     A.U. after   11 cycles
 SCF Done:  E(RM062X) =  -1199.74835463     A.U. after    6 cycles

 Isotropic polarizability for W=    0.000000       62.00 Bohr**3.
 End of Minotr F.D. properties file   721 does not exist.

 Optimization completed.
    -- Stationary point found.

                          Input orientation:
 ---------------------------------------------------------------------
 Center     Atomic      Atomic             Coordinates (Angstroms)
 Number     Number       Type             X           Y           Z
 ---------------------------------------------------------------------
      1          6           0       -0.138714    0.496196    0.010025
      2          6           0        1.802726   -0.188440    0.395746
      3          9           0        2.154688   -0.358478    1.669716
      4          9           0        2.354364   -1.159048   -0.326149
      5         16           0        2.485853    1.455532   -0.166834
      6          8           0        3.194742    2.307479    0.717221
      7          8           0        2.574567    1.560027   -1.579476
      8          8           0        0.759987    1.883340    0.171040
      9          9           0       -0.511477   -0.098908    1.122710
     10          9           0       -1.257082    1.286758   -0.252979
     11          9           0       -0.097786   -0.224104   -1.098147
     12          1           0        0.374318    2.631786   -0.316235
 ---------------------------------------------------------------------

 ******    1 imaginary frequencies (negative Signs) ******

                      1                      2                      3
                      A                      A                      A
 Frequencies --   -550.5356                54.3065                96.6827
 Red. masses --     10.4066                13.7409                14.0772
 Frc consts  --      1.8584                 0.0239                 0.0775
 IR Inten    --     25.4012                 1.1796                18.1687

                      4                      5                      6
                      A                      A                      A
 Frequencies --    122.0352               143.7978               155.8692
 Red. masses --     16.2896                14.5422                14.7818
 Frc consts  --      0.1429                 0.1772                 0.2116
 IR Inten    --     35.7302                26.1967                24.1037

                      7                      8                      9
                      A                      A                      A
 Frequencies --    213.5322               262.4415               266.6932
 Red. masses --     16.2945                 8.7375                 6.6715
 Frc consts  --      0.4377                 0.3546                 0.2796
 IR Inten    --     20.3879                13.1669                 8.6892

                     10                     11                     12
                      A                      A                      A
 Frequencies --    330.1904               370.5370               440.1047
 Red. masses --     13.1416                13.4102                 9.2596
 Frc consts  --      0.8442                 1.0848                 1.0567
 IR Inten    --     13.0085                28.5522                14.5540

                     13                     14                     15
                      A                      A                      A
 Frequencies --    449.9994               487.9352               534.4008
 Red. masses --      4.3753                 4.7640                 5.3640
 Frc consts  --      0.5220                 0.6683                 0.9026
 IR Inten    --     46.3608                68.7352               121.0666

                     16                     17                     18
                      A                      A                      A
 Frequencies --    538.8641               612.1918               648.8108
 Red. masses --      7.7750                15.4905                13.6532
 Frc consts  --      1.3302                 3.4205                 3.3863
 IR Inten    --    111.3525                13.6647                10.2336

                     19                     20                     21
                      A                      A                      A
 Frequencies --    685.9937               726.4061               735.7958
 Red. masses --      8.2143                 4.1863                15.3926
 Frc consts  --      2.2775                 1.3015                 4.9099
 IR Inten    --     92.0783                37.0964                97.4927

                     22                     23                     24
                      A                      A                      A
 Frequencies --    822.4986              1065.7712              1140.5101
 Red. masses --      9.3226                 4.3643                 1.8314
 Frc consts  --      3.7158                 2.9207                 1.4035
 IR Inten    --    434.3517               355.8365               304.5403

                     25                     26                     27
                      A                      A                      A
 Frequencies --   1195.6729              1222.1219              1273.0261
 Red. masses --      9.2494                13.2980                13.4375
 Frc consts  --      7.7909                11.7022                12.8305
 IR Inten    --    271.6054               139.4361               120.6538

                     28                     29                     30
                      A                      A                      A
 Frequencies --   1327.5745              1477.3943              3732.0159
 Red. masses --     10.8863                20.3461                 1.0657
 Frc consts  --     11.3044                26.1653                 8.7452
 IR Inten    --    292.5353               281.8325               211.8078

 - Thermochemistry -
 -------------------
 Temperature   298.150 Kelvin.  Pressure   1.00000 Atm.
 Atom     1 has atomic number  6 and mass  12.00000

 Molecular mass:   199.95666 amu.
 Principal axes and moments of inertia in atomic units:
                           1         2         3
     Eigenvalues --  1324.969632046.372792368.16990
           X            0.97113  -0.21951  -0.09342
           Y            0.23856   0.89470   0.37762
           Z            0.00069  -0.38900   0.92124
 This molecule is an asymmetric top.
 Rotational symmetry number  1.
 Warning -- assumption of classical behavior for rotation
           may cause significant error
 Rotational temperatures (Kelvin)      0.06537     0.04233     0.03657
 Rotational constants (GHZ):           1.36210     0.88192     0.76208
    1 imaginary frequencies ignored.
 Zero-point vibrational energy     126404.5 (Joules/Mol)
                                   30.21139 (Kcal/Mol)
 Warning -- explicit consideration of  16 degrees of freedom as
           vibrations may cause significant error
 Vibrational temperatures:     78.13   139.10   175.58   206.89   224.26
          (Kelvin)            307.23   377.59   383.71   475.07   533.12
                              633.21   647.45   702.03   768.88   775.31
                              880.81   933.49   986.99  1045.14  1058.65
                             1183.39  1533.41  1640.94  1720.31  1758.36
                             1831.60  1910.08  2125.64  5369.54

 Zero-point correction=                           0.048145 (Hartree/Particle)
 Thermal correction to Energy=                    0.058677
 Thermal correction to Enthalpy=                  0.059621
 Thermal correction to Gibbs Free Energy=         0.011244
 Sum of electronic and zero-point Energies=          -1199.700210
 Sum of electronic and thermal Energies=             -1199.689678
 Sum of electronic and thermal Enthalpies=           -1199.688733
 Sum of electronic and thermal Free Energies=        -1199.737110

                     E (Thermal)             CV                S
                      KCal/Mol        Cal/Mol-Kelvin    Cal/Mol-Kelvin
 Total                   36.820             36.711            101.818
 Electronic               0.000              0.000              0.000
 Translational            0.889              2.981             41.783
 Rotational               0.889              2.981             30.241
 Vibrational             35.043             30.749             29.793
 Vibration     1          0.596              1.976              4.654
 Vibration     2          0.603              1.952              3.520
 Vibration     3          0.610              1.931              3.068
 Vibration     4          0.616              1.909              2.753
 Vibration     5          0.620              1.896              2.599
 Vibration     6          0.644              1.820              2.013
 Vibration     7          0.670              1.742              1.645
 Vibration     8          0.672              1.734              1.618
 Vibration     9          0.713              1.615              1.259
 Vibration    10          0.743              1.533              1.078
 Vibration    11          0.800              1.383              0.826
 Vibration    12          0.809              1.361              0.796
 Vibration    13          0.844              1.277              0.689
 Vibration    14          0.889              1.174              0.577
 Vibration    15          0.894              1.164              0.568
 Vibration    16          0.971              1.006              0.429

 Normal termination of Gaussian 16 at Sat May 24 11:20:44 2025.
