 Gaussian 16, Revision C.01,
 Gaussian 16:  ES64L-G16RevC.01  3-Jul-2019

 ----------------------------------------------------------------------
 #P M062X/Def2TZVPP Symm(None) scf(xqc) pop(None) opt(NoFreeze,TS,CalcA
 ll,NoEigentest,MaxCycle=999)
 ----------------------------------------------------------------------

 ------------------------------
 Gaussian input prepared by ASE
 ------------------------------
 Symbolic Z-matrix:
 Charge =  0 Multiplicity = 1

 SCF Done:  E(RM062X) =  -1199.79025625     A.U. after   15 cycles
 SCF Done:  E(RM062X) =  -1199.79178045     A.U. after   12 cycles
 SCF Done:  E(RM062X) =  -1199.79181182     A.U. after   10 cycles

 Isotropic polarizability for W=    0.000000       58.56 Bohr**3.
 End of Minotr F.D. properties file   721 does not exist.

 Optimization completed.
    -- Stationary point found.

                          Input orientation:
 ---------------------------------------------------------------------
 Center     Atomic      Atomic             Coordinates (Angstroms)
 Number     Number       Type             X           Y           Z
 ---------------------------------------------------------------------
      1          6           0       -0.464806   -2.201537   -1.116414
      2          6           0        0.488839   -1.740632    0.000061
      3          9           0        0.033977    0.005080   -0.001149
      4          9           0        0.023678   -2.152785    1.127933
      5         16           0        1.792572   -0.025211   -0.002590
      6          8           0        2.261080   -0.370300    1.292729
      7          8           0        2.323822   -0.313239   -1.276837
      8          8           0        1.756791    1.556708   -0.006063
      9          9           0       -0.225211   -1.559169   -2.242348
     10          9           0       -0.232621   -3.500895   -1.293253
     11          9           0       -1.742134   -2.039347   -0.790628
     12          1           0        1.633480    1.876470    0.897752
 ---------------------------------------------------------------------

 ******    1 imaginary frequencies (negative Signs) ******

                      1                      2                      3
                      A                      A                      A
 Frequencies --   -373.0360                51.9470                89.8494
 Red. masses --     14.8816                16.7649                11.6977
 Frc consts  --      1.2201                 0.0267                 0.0556
 IR Inten    --      5.1671                 0.3482                 0.7488

                      4                      5                      6
                      A                      A                      A
 Frequencies --     93.3923               157.7752               191.9447
 Red. masses --     11.9419                14.7337                13.8589
 Frc consts  --      0.0614                 0.2161                 0.3008
 IR Inten    --      1.7563                45.4278                 9.2136

                      7                      8                      9
                      A                      A                      A
 Frequencies --    251.8118               290.4420               316.6239
 Red. masses --     12.3616                16.2676                 2.0063
 Frc consts  --      0.4618                 0.8085                 0.1185
 IR Inten    --      4.1311                 3.0732                63.6982

                     10                     11                     12
                      A                      A                      A
 Frequencies --    348.1236               371.4226               402.2253
 Red. masses --     14.2214                 8.4086                 3.2197
 Frc consts  --      1.0155                 0.6835                 0.3069
 IR Inten    --     28.5765                42.3903                16.5063

                     13                     14                     15
                      A                      A                      A
 Frequencies --    453.4386               517.9202               525.1919
 Red. masses --     15.8466                 9.7582                 6.6447
 Frc consts  --      1.9197                 1.5422                 1.0798
 IR Inten    --      2.5645                25.2357                 6.6134

                     16                     17                     18
                      A                      A                      A
 Frequencies --    547.8272               583.8269               601.7260
 Red. masses --     16.8192                17.3178                17.7821
 Frc consts  --      2.9740                 3.4778                 3.7934
 IR Inten    --    153.2378                20.9052               285.2358

                     19                     20                     21
                      A                      A                      A
 Frequencies --    689.8147               738.7574               869.7816
 Red. masses --     13.8245                15.7990                15.7095
 Frc consts  --      3.8758                 5.0802                 7.0022
 IR Inten    --     84.6228                32.7686               350.1733

                     22                     23                     24
                      A                      A                      A
 Frequencies --    932.3275              1194.6246              1205.1889
 Red. masses --     14.3552                 1.3358                 6.8916
 Frc consts  --      7.3519                 1.1232                 5.8977
 IR Inten    --     19.8442                74.8999               122.0800

                     25                     26                     27
                      A                      A                      A
 Frequencies --   1242.1299              1286.3130              1312.5202
 Red. masses --     13.3249                12.8993                13.2740
 Frc consts  --     12.1129                12.5750                13.4730
 IR Inten    --    292.5155               149.1973               288.4284

                     28                     29                     30
                      A                      A                      A
 Frequencies --   1393.6232              1502.4344              3826.8565
 Red. masses --     13.1161                13.7233                 1.0657
 Frc consts  --     15.0088                18.2516                 9.1952
 IR Inten    --    115.9234               286.9977               160.1773

 - Thermochemistry -
 -------------------
 Temperature   298.150 Kelvin.  Pressure   1.00000 Atm.
 Atom     1 has atomic number  6 and mass  12.00000

 Molecular mass:   199.95666 amu.
 Principal axes and moments of inertia in atomic units:
                           1         2         3
     Eigenvalues --   967.025332591.023682810.53750
           X            0.63917  -0.09267   0.76346
           Y            0.70944  -0.31222  -0.63184
           Z            0.29692   0.94548  -0.13382
 This molecule is an asymmetric top.
 Rotational symmetry number  1.
 Warning -- assumption of classical behavior for rotation
           may cause significant error
 Rotational temperatures (Kelvin)      0.08957     0.03343     0.03082
 Rotational constants (GHZ):           1.86628     0.69654     0.64213
    1 imaginary frequencies ignored.
 Zero-point vibrational energy     131528.6 (Joules/Mol)
                                   31.43608 (Kcal/Mol)
 Warning -- explicit consideration of  17 degrees of freedom as
           vibrations may cause significant error
 Vibrational temperatures:     74.74   129.27   134.37   227.00   276.17
          (Kelvin)            362.30   417.88   455.55   500.87   534.39
                              578.71   652.40   745.17   755.63   788.20
                              840.00   865.75   992.49  1062.91  1251.42
                             1341.41  1718.80  1734.00  1787.15  1850.72
                             1888.42  2005.11  2161.67  5505.99

 Zero-point correction=                           0.050097 (Hartree/Particle)
 Thermal correction to Energy=                    0.060393
 Thermal correction to Enthalpy=                  0.061337
 Thermal correction to Gibbs Free Energy=         0.013277
 Sum of electronic and zero-point Energies=          -1199.741715
 Sum of electronic and thermal Energies=             -1199.731419
 Sum of electronic and thermal Enthalpies=           -1199.730475
 Sum of electronic and thermal Free Energies=        -1199.778535

                     E (Thermal)             CV                S
                      KCal/Mol        Cal/Mol-Kelvin    Cal/Mol-Kelvin
 Total                   37.897             35.933            101.151
 Electronic               0.000              0.000              0.000
 Translational            0.889              2.981             41.783
 Rotational               0.889              2.981             30.333
 Vibrational             36.120             29.971             29.034
 Vibration     1          0.596              1.977              4.742
 Vibration     2          0.602              1.956              3.663
 Vibration     3          0.602              1.954              3.588
 Vibration     4          0.621              1.894              2.576
 Vibration     5          0.634              1.851              2.209
 Vibration     6          0.664              1.760              1.718
 Vibration     7          0.686              1.692              1.471
 Vibration     8          0.704              1.642              1.327
 Vibration     9          0.726              1.579              1.175
 Vibration    10          0.743              1.531              1.074
 Vibration    11          0.768              1.465              0.955
 Vibration    12          0.812              1.353              0.785
 Vibration    13          0.873              1.210              0.615
 Vibration    14          0.880              1.194              0.598
 Vibration    15          0.903              1.144              0.549
 Vibration    16          0.941              1.066              0.478
 Vibration    17          0.960              1.028              0.447

 Normal termination of Gaussian 16 at Sat May 24 05:55:12 2025.
