 Gaussian 16, Revision C.01,
 Gaussian 16:  ES64L-G16RevC.01  3-Jul-2019

 ----------------------------------------------------------------------
 #P M062X/Def2TZVPP Symm(None) scf(xqc) pop(None) opt(NoFreeze,TS,CalcA
 ll,NoEigentest,MaxCycle=999)
 ----------------------------------------------------------------------

 ------------------------------
 Gaussian input prepared by ASE
 ------------------------------
 Symbolic Z-matrix:
 Charge =  0 Multiplicity = 1

 SCF Done:  E(RM062X) =  -1199.74015672     A.U. after   16 cycles
 SCF Done:  E(RM062X) =  -1199.75635797     A.U. after   14 cycles
 SCF Done:  E(RM062X) =  -1199.75940761     A.U. after   14 cycles
 SCF Done:  E(RM062X) =  -1199.76156974     A.U. after   15 cycles
 SCF Done:  E(RM062X) =  -1199.76317721     A.U. after   14 cycles
 SCF Done:  E(RM062X) =  -1199.76397883     A.U. after   13 cycles
 SCF Done:  E(RM062X) =  -1199.76409011     A.U. after   12 cycles
 SCF Done:  E(RM062X) =  -1199.76409506     A.U. after   10 cycles

 Isotropic polarizability for W=    0.000000       59.14 Bohr**3.
 End of Minotr F.D. properties file   721 does not exist.

 Optimization completed.
    -- Stationary point found.

                          Input orientation:
 ---------------------------------------------------------------------
 Center     Atomic      Atomic             Coordinates (Angstroms)
 Number     Number       Type             X           Y           Z
 ---------------------------------------------------------------------
      1          6           0       -0.212402   -1.157903    1.042618
      2          6           0       -0.001586   -0.016499    0.005344
      3          9           0       -0.532211   -0.305290   -1.161730
      4          9           0       -0.631171    1.047210    0.500697
      5         16           0        1.843459    0.045079    0.154880
      6          8           0        1.914394   -0.533025    1.492231
      7          8           0        2.790201    0.053514   -0.910123
      8          8           0        1.845275    1.619700    0.547254
      9          9           0        1.328659   -1.720301   -0.401936
     10          9           0       -0.441839   -0.848249    2.241324
     11          9           0       -0.626668   -2.304474    0.770670
     12          1           0        2.404084    2.076789   -0.091507
 ---------------------------------------------------------------------

 ******    1 imaginary frequencies (negative Signs) ******

                      1                      2                      3
                      A                      A                      A
 Frequencies --   -334.4772               108.9299               127.1901
 Red. masses --     15.6556                12.1363                14.9786
 Frc consts  --      1.0319                 0.0848                 0.1428
 IR Inten    --     20.0707                 5.2644               203.5966

                      4                      5                      6
                      A                      A                      A
 Frequencies --    175.8206               187.6409               253.0553
 Red. masses --     14.9255                11.5453                17.5848
 Frc consts  --      0.2718                 0.2395                 0.6635
 IR Inten    --      1.8026                 7.2338                 5.8683

                      7                      8                      9
                      A                      A                      A
 Frequencies --    283.5307               295.3718               300.7675
 Red. masses --     15.2878                11.4894                11.3817
 Frc consts  --      0.7241                 0.5906                 0.6066
 IR Inten    --     15.5718                 6.0344                32.7338

                     10                     11                     12
                      A                      A                      A
 Frequencies --    331.4652               368.2646               412.1788
 Red. masses --      1.8003                 3.5996                16.7834
 Frc consts  --      0.1165                 0.2876                 1.6800
 IR Inten    --     73.8851                21.7851                52.8214

                     13                     14                     15
                      A                      A                      A
 Frequencies --    442.2466               505.8904               535.6615
 Red. masses --     13.3500                 7.1347                 9.3651
 Frc consts  --      1.5384                 1.0758                 1.5832
 IR Inten    --     51.0179                 5.1488                 9.4684

                     16                     17                     18
                      A                      A                      A
 Frequencies --    561.0401               582.7742               640.8896
 Red. masses --     13.8714                17.5499                14.4620
 Frc consts  --      2.5725                 3.5118                 3.4998
 IR Inten    --     94.6642                57.2257                56.2620

                     19                     20                     21
                      A                      A                      A
 Frequencies --    675.4346               772.5899               797.0115
 Red. masses --     14.5377                16.3468                15.9357
 Frc consts  --      3.9076                 5.7489                 5.9642
 IR Inten    --     38.9949                33.6158               245.2353

                     22                     23                     24
                      A                      A                      A
 Frequencies --    961.6413              1124.4305              1163.8913
 Red. masses --     13.0573                11.9991                 1.2945
 Frc consts  --      7.1143                 8.9385                 1.0331
 IR Inten    --     14.8354               186.4320               158.2995

                     25                     26                     27
                      A                      A                      A
 Frequencies --   1211.5514              1310.3001              1404.1221
 Red. masses --     13.1331                12.7503                10.1275
 Frc consts  --     11.3580                12.8977                11.7642
 IR Inten    --     94.0785               153.1713               375.5567

                     28                     29                     30
                      A                      A                      A
 Frequencies --   1453.7151              1532.1917              3860.5160
 Red. masses --     13.2962                13.4232                 1.0658
 Frc consts  --     16.5553                18.5666                 9.3586
 IR Inten    --    222.9970               375.7573               160.7091

 - Thermochemistry -
 -------------------
 Temperature   298.150 Kelvin.  Pressure   1.00000 Atm.
 Atom     1 has atomic number  6 and mass  12.00000

 Molecular mass:   199.95666 amu.
 Principal axes and moments of inertia in atomic units:
                           1         2         3
     Eigenvalues --  1230.043041904.475282006.65505
           X            0.80136  -0.43936   0.40593
           Y            0.50947   0.85692  -0.07826
           Z           -0.31347   0.26953   0.91054
 This molecule is an asymmetric top.
 Rotational symmetry number  1.
 Warning -- assumption of classical behavior for rotation
           may cause significant error
 Rotational temperatures (Kelvin)      0.07042     0.04548     0.04316
 Rotational constants (GHZ):           1.46722     0.94763     0.89938
    1 imaginary frequencies ignored.
 Zero-point vibrational energy     133862.8 (Joules/Mol)
                                   31.99398 (Kcal/Mol)
 Warning -- explicit consideration of  16 degrees of freedom as
           vibrations may cause significant error
 Vibrational temperatures:    156.73   183.00   252.97   269.97   364.09
          (Kelvin)            407.94   424.97   432.74   476.90   529.85
                              593.03   636.29   727.86   770.70   807.21
                              838.48   922.10   971.80  1111.58  1146.72
                             1383.59  1617.80  1674.58  1743.15  1885.23
                             2020.22  2091.57  2204.48  5554.42

 Zero-point correction=                           0.050986 (Hartree/Particle)
 Thermal correction to Energy=                    0.060788
 Thermal correction to Enthalpy=                  0.061732
 Thermal correction to Gibbs Free Energy=         0.015895
 Sum of electronic and zero-point Energies=          -1199.713109
 Sum of electronic and thermal Energies=             -1199.703307
 Sum of electronic and thermal Enthalpies=           -1199.702363
 Sum of electronic and thermal Free Energies=        -1199.748200

                     E (Thermal)             CV                S
                      KCal/Mol        Cal/Mol-Kelvin    Cal/Mol-Kelvin
 Total                   38.145             35.626             96.473
 Electronic               0.000              0.000              0.000
 Translational            0.889              2.981             41.783
 Rotational               0.889              2.981             29.931
 Vibrational             36.368             29.664             24.758
 Vibration     1          0.606              1.942              3.288
 Vibration     2          0.611              1.926              2.988
 Vibration     3          0.628              1.872              2.372
 Vibration     4          0.632              1.857              2.251
 Vibration     5          0.664              1.758              1.709
 Vibration     6          0.682              1.704              1.512
 Vibration     7          0.690              1.682              1.443
 Vibration     8          0.693              1.672              1.413
 Vibration     9          0.714              1.613              1.253
 Vibration    10          0.741              1.537              1.087
 Vibration    11          0.776              1.444              0.919
 Vibration    12          0.802              1.378              0.820
 Vibration    13          0.861              1.237              0.644
 Vibration    14          0.891              1.171              0.575
 Vibration    15          0.917              1.116              0.522
 Vibration    16          0.940              1.069              0.480

 Normal termination of Gaussian 16 at Sat May 24 06:44:38 2025.
