 Gaussian 16, Revision C.01,
 Gaussian 16:  ES64L-G16RevC.01  3-Jul-2019

 ----------------------------------------------------------------------
 #P M062X/Def2TZVPP Symm(None) scf(xqc) pop(None) opt(NoFreeze,TS,CalcA
 ll,NoEigentest,MaxCycle=999)
 ----------------------------------------------------------------------

 ------------------------------
 Gaussian input prepared by ASE
 ------------------------------
 Symbolic Z-matrix:
 Charge =  0 Multiplicity = 1

 SCF Done:  E(RM062X) =  -1199.63232766     A.U. after   19 cycles
 SCF Done:  E(RM062X) =  -1199.67155564     A.U. after   16 cycles
 SCF Done:  E(RM062X) =  -1199.70356725     A.U. after   15 cycles
 SCF Done:  E(RM062X) =  -1199.73027544     A.U. after   14 cycles
 SCF Done:  E(RM062X) =  -1199.74083511     A.U. after   15 cycles
 SCF Done:  E(RM062X) =  -1199.75154287     A.U. after   15 cycles
 SCF Done:  E(RM062X) =  -1199.75747695     A.U. after   14 cycles
 SCF Done:  E(RM062X) =  -1199.75866801     A.U. after   13 cycles
 SCF Done:  E(RM062X) =  -1199.75892446     A.U. after   13 cycles
 SCF Done:  E(RM062X) =  -1199.75908650     A.U. after   13 cycles
 SCF Done:  E(RM062X) =  -1199.75955037     A.U. after   14 cycles
 SCF Done:  E(RM062X) =  -1199.76076117     A.U. after   14 cycles
 SCF Done:  E(RM062X) =  -1199.76309707     A.U. after   14 cycles
 SCF Done:  E(RM062X) =  -1199.76532200     A.U. after   14 cycles
 SCF Done:  E(RM062X) =  -1199.76754730     A.U. after   14 cycles
 SCF Done:  E(RM062X) =  -1199.77165679     A.U. after   14 cycles
 SCF Done:  E(RM062X) =  -1199.77656948     A.U. after   14 cycles
 SCF Done:  E(RM062X) =  -1199.77818435     A.U. after   13 cycles
 SCF Done:  E(RM062X) =  -1199.77842674     A.U. after   13 cycles
 SCF Done:  E(RM062X) =  -1199.77842960     A.U. after   11 cycles

 Isotropic polarizability for W=    0.000000       60.80 Bohr**3.
 End of Minotr F.D. properties file   721 does not exist.

 Optimization completed.
    -- Stationary point found.

                          Input orientation:
 ---------------------------------------------------------------------
 Center     Atomic      Atomic             Coordinates (Angstroms)
 Number     Number       Type             X           Y           Z
 ---------------------------------------------------------------------
      1          6           0       -0.144770    0.336845    1.706326
      2          6           0       -0.448714    0.295662    0.302294
      3          9           0       -1.213282   -0.766257   -0.028612
      4          9           0       -1.023213    1.431472   -0.142702
      5         16           0        1.981001    0.007157    0.137855
      6          8           0        1.648204    0.054445    1.585711
      7          8           0        3.384093   -0.171220   -0.011457
      8          8           0        1.665967    1.274398   -0.726411
      9          9           0        1.406661   -1.241983   -0.567458
     10          9           0       -0.091643    1.466141    2.329590
     11          9           0       -0.397774   -0.661693    2.484977
     12          1           0        2.525024    1.580467   -1.075351
 ---------------------------------------------------------------------

 ******    1 imaginary frequencies (negative Signs) ******

                      1                      2                      3
                      A                      A                      A
 Frequencies --   -802.8174                26.6355               109.1347
 Red. masses --     13.6519                13.0638                17.2608
 Frc consts  --      5.1841                 0.0055                 0.1211
 IR Inten    --     52.2296                 1.7435                54.0237

                      4                      5                      6
                      A                      A                      A
 Frequencies --    130.9161               181.5290               211.5196
 Red. masses --     14.9737                15.9504                13.1948
 Frc consts  --      0.1512                 0.3097                 0.3478
 IR Inten    --      1.3670                 1.8298                 9.2480

                      7                      8                      9
                      A                      A                      A
 Frequencies --    221.5999               266.6383               327.5716
 Red. masses --     18.4576                17.1705                14.1357
 Frc consts  --      0.5340                 0.7192                 0.8937
 IR Inten    --      1.9864                19.8418                 0.5870

                     10                     11                     12
                      A                      A                      A
 Frequencies --    347.3315               386.2727               468.0610
 Red. masses --     17.2154                14.0868                15.3362
 Frc consts  --      1.2236                 1.2384                 1.9796
 IR Inten    --      0.5365                 0.4987                16.4773

                     13                     14                     15
                      A                      A                      A
 Frequencies --    493.2280               516.7588               548.8104
 Red. masses --      3.5346                 1.8009                 4.9443
 Frc consts  --      0.5066                 0.2834                 0.8774
 IR Inten    --    149.2797               127.1523                39.7503

                     16                     17                     18
                      A                      A                      A
 Frequencies --    569.8814               595.9444               622.2768
 Red. masses --     10.8318                10.3459                14.9245
 Frc consts  --      2.0726                 2.1649                 3.4050
 IR Inten    --     39.1001                29.0750                88.0934

                     19                     20                     21
                      A                      A                      A
 Frequencies --    675.5373               781.8664               818.6046
 Red. masses --     13.3942                14.3453                12.2751
 Frc consts  --      3.6013                 5.1669                 4.8464
 IR Inten    --    135.4829                24.7657                34.7264

                     22                     23                     24
                      A                      A                      A
 Frequencies --    950.3057              1130.0105              1175.6398
 Red. masses --     20.8466                11.9557                13.7984
 Frc consts  --     11.0920                 8.9948                11.2364
 IR Inten    --    214.1921               212.4088               345.6355

                     25                     26                     27
                      A                      A                      A
 Frequencies --   1210.1291              1241.8457              1350.9133
 Red. masses --      1.5613                10.9398                 5.1172
 Frc consts  --      1.3471                 9.9402                 5.5022
 IR Inten    --     53.5477               145.4097               651.2253

                     28                     29                     30
                      A                      A                      A
 Frequencies --   1413.5645              1517.6772              3667.2423
 Red. masses --     13.1970                11.4536                 1.0634
 Frc consts  --     15.5367                15.5436                 8.4261
 IR Inten    --    267.9889               217.4129                97.4714

 - Thermochemistry -
 -------------------
 Temperature   298.150 Kelvin.  Pressure   1.00000 Atm.
 Atom     1 has atomic number  6 and mass  12.00000

 Molecular mass:   199.95666 amu.
 Principal axes and moments of inertia in atomic units:
                           1         2         3
     Eigenvalues --  1240.018562125.781582298.25968
           X            0.89322   0.43419   0.11679
           Y           -0.13365   0.00838   0.99099
           Z           -0.42931   0.90078  -0.06552
 This molecule is an asymmetric top.
 Rotational symmetry number  1.
 Warning -- assumption of classical behavior for rotation
           may cause significant error
 Rotational temperatures (Kelvin)      0.06985     0.04074     0.03769
 Rotational constants (GHZ):           1.45541     0.84898     0.78526
    1 imaginary frequencies ignored.
 Zero-point vibrational energy     131334.7 (Joules/Mol)
                                   31.38974 (Kcal/Mol)
 Warning -- explicit consideration of  16 degrees of freedom as
           vibrations may cause significant error
 Vibrational temperatures:     38.32   157.02   188.36   261.18   304.33
          (Kelvin)            318.83   383.63   471.30   499.73   555.76
                              673.44   709.65   743.50   789.62   819.93
                              857.43   895.32   971.95  1124.93  1177.79
                             1367.28  1625.83  1691.48  1741.11  1786.74
                             1943.66  2033.80  2183.60  5276.34

 Zero-point correction=                           0.050023 (Hartree/Particle)
 Thermal correction to Energy=                    0.060117
 Thermal correction to Enthalpy=                  0.061061
 Thermal correction to Gibbs Free Energy=         0.013230
 Sum of electronic and zero-point Energies=          -1199.728407
 Sum of electronic and thermal Energies=             -1199.718313
 Sum of electronic and thermal Enthalpies=           -1199.717368
 Sum of electronic and thermal Free Energies=        -1199.765199

                     E (Thermal)             CV                S
                      KCal/Mol        Cal/Mol-Kelvin    Cal/Mol-Kelvin
 Total                   37.724             35.568            100.669
 Electronic               0.000              0.000              0.000
 Translational            0.889              2.981             41.783
 Rotational               0.889              2.981             30.183
 Vibrational             35.947             29.607             28.702
 Vibration     1          0.593              1.984              6.065
 Vibration     2          0.606              1.942              3.284
 Vibration     3          0.612              1.922              2.933
 Vibration     4          0.630              1.865              2.313
 Vibration     5          0.643              1.823              2.031
 Vibration     6          0.648              1.808              1.946
 Vibration     7          0.672              1.734              1.618
 Vibration     8          0.711              1.620              1.272
 Vibration     9          0.725              1.581              1.178
 Vibration    10          0.755              1.499              1.015
 Vibration    11          0.825              1.321              0.743
 Vibration    12          0.849              1.265              0.675
 Vibration    13          0.872              1.213              0.618
 Vibration    14          0.904              1.142              0.547
 Vibration    15          0.926              1.096              0.504
 Vibration    16          0.954              1.040              0.457

 Normal termination of Gaussian 16 at Sat May 24 07:47:56 2025.
