 Gaussian 16, Revision C.01,
 Gaussian 16:  ES64L-G16RevC.01  3-Jul-2019

 ----------------------------------------------------------------------
 #P M062X/Def2TZVPP Symm(None) scf(xqc) pop(None) opt(NoFreeze,TS,CalcA
 ll,NoEigentest,MaxCycle=999)
 ----------------------------------------------------------------------

 ------------------------------
 Gaussian input prepared by ASE
 ------------------------------
 Symbolic Z-matrix:
 Charge =  0 Multiplicity = 1

 SCF Done:  E(RM062X) =  -1199.67428145     A.U. after   22 cycles

 Isotropic polarizability for W=    0.000000       69.76 Bohr**3.
 End of Minotr F.D. properties file   721 does not exist.

 Optimization completed.
    -- Stationary point found.

                          Input orientation:
 ---------------------------------------------------------------------
 Center     Atomic      Atomic             Coordinates (Angstroms)
 Number     Number       Type             X           Y           Z
 ---------------------------------------------------------------------
      1          6           0        1.884448   -0.990092   -1.197280
      2          6           0        2.228564    0.006626   -0.116186
      3          9           0       -0.283559    0.459891    0.070311
      4          9           0        2.475620   -0.537051    1.058603
      5         16           0        1.934501    1.656367   -0.083359
      6          8           0        0.521491    1.978530    0.263028
      7          8           0        2.856505    2.326347    0.751152
      8          8           0        2.021527    2.098036   -1.568996
      9          9           0        1.278014   -0.425623   -2.229069
     10          9           0        3.017525   -1.551474   -1.644374
     11          9           0        1.129311   -1.968632   -0.722172
     12          1           0        2.946135    2.216302   -1.835677
 ---------------------------------------------------------------------

 ******    1 imaginary frequencies (negative Signs) ******

                      1                      2                      3
                      A                      A                      A
 Frequencies --   -632.7527                39.1995                68.3818
 Red. masses --     17.9103                14.6622                14.7498
 Frc consts  --      4.2249                 0.0133                 0.0406
 IR Inten    --    730.3004                 0.6850                 0.6427

                      4                      5                      6
                      A                      A                      A
 Frequencies --     91.9101               140.7302               169.2157
 Red. masses --     17.4456                14.8386                 9.1251
 Frc consts  --      0.0868                 0.1731                 0.1539
 IR Inten    --      1.0511                 5.7601                 8.9655

                      7                      8                      9
                      A                      A                      A
 Frequencies --    230.5700               245.0477               279.9337
 Red. masses --      4.8562                16.5997                 2.8691
 Frc consts  --      0.1521                 0.5873                 0.1325
 IR Inten    --     16.9128                 4.7530                50.1739

                     10                     11                     12
                      A                      A                      A
 Frequencies --    301.8019               324.8206               344.2208
 Red. masses --      5.0632                 5.4376                 6.2219
 Frc consts  --      0.2717                 0.3380                 0.4344
 IR Inten    --     11.9240                18.3405                14.8930

                     13                     14                     15
                      A                      A                      A
 Frequencies --    437.8106               461.3824               483.7889
 Red. masses --     11.3539                 7.0684                11.7237
 Frc consts  --      1.2822                 0.8865                 1.6167
 IR Inten    --      3.7768                36.0023                14.4526

                     16                     17                     18
                      A                      A                      A
 Frequencies --    513.1291               596.1677               611.0365
 Red. masses --     14.4790                16.6286                16.6707
 Frc consts  --      2.2462                 3.4821                 3.6672
 IR Inten    --     45.6182                13.5817                14.0534

                     19                     20                     21
                      A                      A                      A
 Frequencies --    633.9815               772.2493               904.5118
 Red. masses --     17.3492                17.4750                16.4846
 Frc consts  --      4.1085                 6.1402                 7.9462
 IR Inten    --    118.5947                10.0035                23.7307

                     22                     23                     24
                      A                      A                      A
 Frequencies --    973.8356              1084.0487              1140.6504
 Red. masses --     16.2693                11.6626                 1.1975
 Frc consts  --      9.0905                 8.0750                 0.9180
 IR Inten    --    249.2983               161.3021                41.3545

                     25                     26                     27
                      A                      A                      A
 Frequencies --   1201.2038              1287.9747              1303.2857
 Red. masses --     13.0369                13.5338                12.7732
 Frc consts  --     11.0830                13.2277                12.7829
 IR Inten    --    229.3817               277.1406               121.0999

                     28                     29                     30
                      A                      A                      A
 Frequencies --   1377.2586              1417.8771              3792.1680
 Red. masses --     12.9724                16.5691                 1.0659
 Frc consts  --     14.4978                19.6258                 9.0308
 IR Inten    --    310.2849               214.2536               237.1448

 - Thermochemistry -
 -------------------
 Temperature   298.150 Kelvin.  Pressure   1.00000 Atm.
 Atom     1 has atomic number  6 and mass  12.00000

 Molecular mass:   199.95666 amu.
 Principal axes and moments of inertia in atomic units:
                           1         2         3
     Eigenvalues --  1219.968012268.213442336.78053
           X           -0.04354   0.99807   0.04432
           Y            0.93082   0.05664  -0.36105
           Z            0.36287  -0.02553   0.93149
 This molecule is an asymmetric top.
 Rotational symmetry number  1.
 Warning -- assumption of classical behavior for rotation
           may cause significant error
 Rotational temperatures (Kelvin)      0.07100     0.03819     0.03707
 Rotational constants (GHZ):           1.47933     0.79567     0.77232
    1 imaginary frequencies ignored.
 Zero-point vibrational energy     126972.8 (Joules/Mol)
                                   30.34722 (Kcal/Mol)
 Warning -- explicit consideration of  17 degrees of freedom as
           vibrations may cause significant error
 Vibrational temperatures:     56.40    98.39   132.24   202.48   243.46
          (Kelvin)            331.74   352.57   402.76   434.23   467.34
                              495.26   629.91   663.83   696.06   738.28
                              857.75   879.15   912.16  1111.09  1301.39
                             1401.13  1559.70  1641.14  1728.26  1853.11
                             1875.14  1981.57  2040.01  5456.08

 Zero-point correction=                           0.048361 (Hartree/Particle)
 Thermal correction to Energy=                    0.059219
 Thermal correction to Enthalpy=                  0.060163
 Thermal correction to Gibbs Free Energy=         0.010571
 Sum of electronic and zero-point Energies=          -1199.625920
 Sum of electronic and thermal Energies=             -1199.615062
 Sum of electronic and thermal Enthalpies=           -1199.614118
 Sum of electronic and thermal Free Energies=        -1199.663710

                     E (Thermal)             CV                S
                      KCal/Mol        Cal/Mol-Kelvin    Cal/Mol-Kelvin
 Total                   37.161             36.916            104.375
 Electronic               0.000              0.000              0.000
 Translational            0.889              2.981             41.783
 Rotational               0.889              2.981             30.248
 Vibrational             35.383             30.955             32.344
 Vibration     1          0.594              1.981              5.299
 Vibration     2          0.598              1.969              4.199
 Vibration     3          0.602              1.955              3.619
 Vibration     4          0.615              1.913              2.794
 Vibration     5          0.625              1.880              2.444
 Vibration     6          0.652              1.794              1.875
 Vibration     7          0.660              1.771              1.766
 Vibration     8          0.680              1.711              1.534
 Vibration     9          0.694              1.670              1.407
 Vibration    10          0.709              1.626              1.286
 Vibration    11          0.723              1.587              1.193
 Vibration    12          0.798              1.388              0.834
 Vibration    13          0.819              1.336              0.762
 Vibration    14          0.840              1.286              0.700
 Vibration    15          0.868              1.221              0.626
 Vibration    16          0.954              1.040              0.456
 Vibration    17          0.970              1.008              0.431

 Normal termination of Gaussian 16 at Sat May 24 08:17:05 2025.
