 Gaussian 16, Revision C.01,
 Gaussian 16:  ES64L-G16RevC.01  3-Jul-2019

 ----------------------------------------------------------------------
 #P M062X/Def2TZVPP Symm(None) scf(xqc) pop(None) freq opt(CalcFC, Tigh
 t)
 ----------------------------------------------------------------------

 ------------------------------
 Gaussian input prepared by ASE
 ------------------------------
 Symbolic Z-matrix:
 Charge =  0 Multiplicity = 1

 SCF Done:  E(RM062X) =  -1199.70381427     A.U. after   15 cycles
 SCF Done:  E(RM062X) =  -1199.71220106     A.U. after   15 cycles
 SCF Done:  E(RM062X) =  -1199.71160104     A.U. after   14 cycles
 SCF Done:  E(RM062X) =  -1199.71375286     A.U. after   13 cycles
 SCF Done:  E(RM062X) =  -1199.71423667     A.U. after   13 cycles
 SCF Done:  E(RM062X) =  -1199.71441014     A.U. after   13 cycles
 SCF Done:  E(RM062X) =  -1199.71450154     A.U. after   13 cycles
 SCF Done:  E(RM062X) =  -1199.71455056     A.U. after   12 cycles
 SCF Done:  E(RM062X) =  -1199.71458323     A.U. after   12 cycles
 SCF Done:  E(RM062X) =  -1199.71460533     A.U. after   12 cycles
 SCF Done:  E(RM062X) =  -1199.71471909     A.U. after   13 cycles
 SCF Done:  E(RM062X) =  -1199.71486700     A.U. after   15 cycles
 SCF Done:  E(RM062X) =  -1199.71513113     A.U. after   12 cycles
 SCF Done:  E(RM062X) =  -1199.71517681     A.U. after   12 cycles
 SCF Done:  E(RM062X) =  -1199.71518455     A.U. after   11 cycles
 SCF Done:  E(RM062X) =  -1199.71518546     A.U. after    8 cycles
 SCF Done:  E(RM062X) =  -1199.71518561     A.U. after    7 cycles
 SCF Done:  E(RM062X) =  -1199.71518563     A.U. after    6 cycles
 SCF Done:  E(RM062X) =  -1199.71518563     A.U. after    5 cycles
 Optimization completed.
    -- Stationary point found.
 Normal termination of Gaussian 16 at Sat May 24 08:29:47 2025.

 ---------------------------------------------------------------------
 #P Geom=AllCheck Guess=TCheck SCRF=Check GenChk RM062X/def2TZVPP Freq
 ---------------------------------------------------------------------

 Structure from the checkpoint file:  "/tmp/Gau-15511.chk"
 ------------------------------
 Gaussian input prepared by ASE
 ------------------------------
 Charge =  0 Multiplicity = 1

                          Input orientation:
 ---------------------------------------------------------------------
 Center     Atomic      Atomic             Coordinates (Angstroms)
 Number     Number       Type             X           Y           Z
 ---------------------------------------------------------------------
      1          6           0        2.341782    0.023909   -2.615837
      2          6           0        2.551555   -0.427829   -1.208925
      3          9           0       -0.420707   -1.305542   -0.314335
      4          9           0        3.085541   -1.660308   -1.115086
      5         16           0        1.571473    0.005062    0.013985
      6          8           0       -0.081769    0.040811   -0.227953
      7          8           0        1.818600   -0.660172    1.236169
      8          8           0        1.518466    1.558026    0.068819
      9          9           0        1.803218    1.251390   -2.645225
     10          9           0        3.502159    0.064533   -3.267828
     11          9           0        1.535918   -0.783309   -3.310920
     12          1           0        2.355533    1.927513   -0.251251
 ---------------------------------------------------------------------

 SCF Done:  E(RM062X) =  -1199.71518563     A.U. after    1 cycles

 Isotropic polarizability for W=    0.000000       59.49 Bohr**3.
 End of Minotr F.D. properties file   721 does not exist.

                      1                      2                      3
                      A                      A                      A
 Frequencies --     35.5692                49.9197               104.2698
 Red. masses --     15.8908                16.8298                17.8261
 Frc consts  --      0.0118                 0.0247                 0.1142
 IR Inten    --      0.5424                 0.6193                 0.3417

                      4                      5                      6
                      A                      A                      A
 Frequencies --    147.1185               173.1605               215.9027
 Red. masses --     11.2727                 8.9278                16.2236
 Frc consts  --      0.1438                 0.1577                 0.4456
 IR Inten    --      2.7063                10.2279                 2.8728

                      7                      8                      9
                      A                      A                      A
 Frequencies --    250.6965               272.0491               306.2236
 Red. masses --     11.4174                 1.4586                 6.1110
 Frc consts  --      0.4228                 0.0636                 0.3376
 IR Inten    --      8.4083                78.0841                17.8844

                     10                     11                     12
                      A                      A                      A
 Frequencies --    332.1230               345.9593               413.0613
 Red. masses --      9.4673                14.8432                 7.4728
 Frc consts  --      0.6153                 1.0467                 0.7512
 IR Inten    --     10.1777                 1.0089                 2.0227

                     13                     14                     15
                      A                      A                      A
 Frequencies --    448.6979               484.5785               510.5177
 Red. masses --     16.1797                13.6246                12.6603
 Frc consts  --      1.9192                 1.8850                 1.9441
 IR Inten    --      5.8872                13.5348                48.2369

                     16                     17                     18
                      A                      A                      A
 Frequencies --    583.2042               600.4491               610.8877
 Red. masses --     16.8813                16.3726                16.4192
 Frc consts  --      3.3830                 3.4779                 3.6101
 IR Inten    --     37.4406                 5.3089                 8.1108

                     19                     20                     21
                      A                      A                      A
 Frequencies --    731.4325               782.9038               938.6555
 Red. masses --     12.7854                14.0726                17.3883
 Frc consts  --      4.0301                 5.0821                 9.0265
 IR Inten    --    179.9875                83.3140               181.7797

                     22                     23                     24
                      A                      A                      A
 Frequencies --   1085.8173              1108.1070              1160.7067
 Red. masses --      3.8285                12.3559                 1.6190
 Frc consts  --      2.6594                 8.9390                 1.2851
 IR Inten    --     57.9275                12.1993               209.5591

                     25                     26                     27
                      A                      A                      A
 Frequencies --   1219.6288              1237.4533              1317.5344
 Red. masses --     12.9083                13.0875                13.4657
 Frc consts  --     11.3129                11.8077                13.7722
 IR Inten    --    272.2482               261.3276                66.0374

                     28                     29                     30
                      A                      A                      A
 Frequencies --   1376.2621              1419.3053              3793.0164
 Red. masses --     12.6984                16.5081                 1.0655
 Frc consts  --     14.1711                19.5930                 9.0317
 IR Inten    --    420.6235               159.7400               204.2445

 - Thermochemistry -
 -------------------
 Temperature   298.150 Kelvin.  Pressure   1.00000 Atm.
 Atom     1 has atomic number  6 and mass  12.00000

 Molecular mass:   199.95666 amu.
 Principal axes and moments of inertia in atomic units:
                           1         2         3
     Eigenvalues --  1221.166432413.320842441.37320
           X           -0.48408  -0.64443   0.59192
           Y           -0.06266   0.70026   0.71113
           Z            0.87278  -0.30715   0.37936
 This molecule is an asymmetric top.
 Rotational symmetry number  1.
 Warning -- assumption of classical behavior for rotation
           may cause significant error
 Rotational temperatures (Kelvin)      0.07093     0.03589     0.03548
 Rotational constants (GHZ):           1.47788     0.74782     0.73923
 Zero-point vibrational energy     131919.5 (Joules/Mol)
                                   31.52951 (Kcal/Mol)
 Warning -- explicit consideration of  18 degrees of freedom as
           vibrations may cause significant error
 Vibrational temperatures:     51.18    71.82   150.02   211.67   249.14
          (Kelvin)            310.64   360.70   391.42   440.59   477.85
                              497.76   594.30   645.58   697.20   734.52
                              839.10   863.91   878.93  1052.37  1126.42
                             1350.52  1562.25  1594.32  1670.00  1754.77
                             1780.42  1895.64  1980.13  2042.06  5457.30

 Zero-point correction=                           0.050245 (Hartree/Particle)
 Thermal correction to Energy=                    0.061249
 Thermal correction to Enthalpy=                  0.062193
 Thermal correction to Gibbs Free Energy=         0.012123
 Sum of electronic and zero-point Energies=          -1199.664940
 Sum of electronic and thermal Energies=             -1199.653937
 Sum of electronic and thermal Enthalpies=           -1199.652993
 Sum of electronic and thermal Free Energies=        -1199.703062

                     E (Thermal)             CV                S
                      KCal/Mol        Cal/Mol-Kelvin    Cal/Mol-Kelvin
 Total                   38.434             37.656            105.380
 Electronic               0.000              0.000              0.000
 Translational            0.889              2.981             41.783
 Rotational               0.889              2.981             30.354
 Vibrational             36.657             31.695             33.242
 Vibration     1          0.594              1.982              5.492
 Vibration     2          0.595              1.978              4.821
 Vibration     3          0.605              1.946              3.373
 Vibration     4          0.617              1.906              2.709
 Vibration     5          0.627              1.876              2.401
 Vibration     6          0.645              1.817              1.993
 Vibration     7          0.663              1.762              1.726
 Vibration     8          0.675              1.725              1.583
 Vibration     9          0.697              1.662              1.383
 Vibration    10          0.714              1.611              1.250
 Vibration    11          0.724              1.583              1.185
 Vibration    12          0.777              1.442              0.916
 Vibration    13          0.808              1.364              0.800
 Vibration    14          0.841              1.284              0.698
 Vibration    15          0.866              1.227              0.632
 Vibration    16          0.940              1.068              0.479
 Vibration    17          0.959              1.031              0.449
 Vibration    18          0.970              1.009              0.431

 Optimization completed.
    -- Stationary point found.
 Normal termination of Gaussian 16 at Sat May 24 08:34:21 2025.
