 Gaussian 16, Revision C.01,
 Gaussian 16:  ES64L-G16RevC.01  3-Jul-2019

 ----------------------------------------------------------------------
 #P M062X/Def2TZVPP Symm(None) scf(xqc) pop(None) freq opt(CalcFC, Tigh
 t)
 ----------------------------------------------------------------------

 ------------------------------
 Gaussian input prepared by ASE
 ------------------------------
 Symbolic Z-matrix:
 Charge =  0 Multiplicity = 1

 SCF Done:  E(RM062X) =  -1199.94013398     A.U. after   13 cycles
 SCF Done:  E(RM062X) =  -1199.94066206     A.U. after   11 cycles
 SCF Done:  E(RM062X) =  -1199.94067276     A.U. after   10 cycles
 SCF Done:  E(RM062X) =  -1199.94067446     A.U. after    9 cycles
 SCF Done:  E(RM062X) =  -1199.94067460     A.U. after    7 cycles
 SCF Done:  E(RM062X) =  -1199.94067460     A.U. after    5 cycles
 Optimization completed.
    -- Stationary point found.
 Normal termination of Gaussian 16 at Fri May 23 23:48:40 2025.

 ---------------------------------------------------------------------
 #P Geom=AllCheck Guess=TCheck SCRF=Check GenChk RM062X/def2TZVPP Freq
 ---------------------------------------------------------------------

 Structure from the checkpoint file:  "/tmp/Gau-167342.chk"
 ------------------------------
 Gaussian input prepared by ASE
 ------------------------------
 Charge =  0 Multiplicity = 1

                          Input orientation:
 ---------------------------------------------------------------------
 Center     Atomic      Atomic             Coordinates (Angstroms)
 Number     Number       Type             X           Y           Z
 ---------------------------------------------------------------------
      1          6           0       -0.646824   -1.363207    0.308241
      2          6           0        0.004905    0.009779    0.025633
      3          9           0       -0.397952    0.442062   -1.165960
      4          9           0       -0.395068    0.872494    0.968109
      5         16           0        1.847814   -0.023855    0.044042
      6          8           0        2.240928   -0.469229    1.332838
      7          8           0        2.281842   -0.620363   -1.158690
      8          8           0        2.109305    1.521348   -0.076813
      9          9           0       -0.181125   -2.269806   -0.535283
     10          9           0       -0.399414   -1.747593    1.547698
     11          9           0       -1.957522   -1.251768    0.145564
     12          1           0        2.135325    1.927333    0.801826
 ---------------------------------------------------------------------

 SCF Done:  E(RM062X) =  -1199.94067460     A.U. after    1 cycles

 Isotropic polarizability for W=    0.000000       53.47 Bohr**3.
 End of Minotr F.D. properties file   721 does not exist.

                      1                      2                      3
                      A                      A                      A
 Frequencies --     24.2390                69.9641               128.5828
 Red. masses --     14.6234                13.8500                14.5182
 Frc consts  --      0.0051                 0.0399                 0.1414
 IR Inten    --      1.2656                 0.9784                 1.3705

                      4                      5                      6
                      A                      A                      A
 Frequencies --    194.5911               220.5159               237.5436
 Red. masses --      9.4271                16.6892                 7.9652
 Frc consts  --      0.2103                 0.4782                 0.2648
 IR Inten    --      7.8959                 1.6749                11.4841

                      7                      8                      9
                      A                      A                      A
 Frequencies --    283.8836               319.5290               323.3012
 Red. masses --     13.9518                 6.0557                17.8111
 Frc consts  --      0.6625                 0.3643                 1.0969
 IR Inten    --      0.4466                12.4454                 0.0563

                     10                     11                     12
                      A                      A                      A
 Frequencies --    368.7850               376.4584               446.0408
 Red. masses --      1.8341                11.1854                 4.5980
 Frc consts  --      0.1470                 0.9340                 0.5390
 IR Inten    --     53.5265                 4.0357                23.5372

                     13                     14                     15
                      A                      A                      A
 Frequencies --    499.3716               507.3105               543.8574
 Red. masses --      7.5611                14.5393                17.7345
 Frc consts  --      1.1109                 2.2047                 3.0906
 IR Inten    --      7.1796                33.1375                25.6067

                     16                     17                     18
                      A                      A                      A
 Frequencies --    609.0783               630.9871               663.9924
 Red. masses --     17.1521                19.4217                17.6338
 Frc consts  --      3.7490                 4.5559                 4.5806
 IR Inten    --      3.6811               111.1690                47.3795

                     19                     20                     21
                      A                      A                      A
 Frequencies --    781.9166               896.3716              1040.4367
 Red. masses --     17.3497                16.5870                14.0182
 Frc consts  --      6.2497                 7.8523                 8.9408
 IR Inten    --     19.8900               227.6047                29.0121

                     22                     23                     24
                      A                      A                      A
 Frequencies --   1140.1968              1200.7715              1257.3252
 Red. masses --      1.1815                13.6070                15.6881
 Frc consts  --      0.9050                11.5593                14.6122
 IR Inten    --     93.4254               245.5225                23.0958

                     25                     26                     27
                      A                      A                      A
 Frequencies --   1263.5736              1302.5357              1306.3629
 Red. masses --     13.4944                13.8807                13.2006
 Frc consts  --     12.6942                13.8752                13.2731
 IR Inten    --     83.9649               323.0843               235.3501

                     28                     29                     30
                      A                      A                      A
 Frequencies --   1389.6815              1505.2087              3806.7183
 Red. masses --     12.6905                15.5210                 1.0657
 Frc consts  --     14.4398                20.7187                 9.0984
 IR Inten    --     90.7743               296.5961               188.4501

 - Thermochemistry -
 -------------------
 Temperature   298.150 Kelvin.  Pressure   1.00000 Atm.
 Atom     1 has atomic number  6 and mass  12.00000

 Molecular mass:   199.95666 amu.
 Principal axes and moments of inertia in atomic units:
                           1         2         3
     Eigenvalues --  1118.683112148.805732267.22427
           X            0.86607  -0.49984  -0.00923
           Y            0.49227   0.84945   0.19004
           Z           -0.08715  -0.16913   0.98173
 This molecule is an asymmetric top.
 Rotational symmetry number  1.
 Warning -- assumption of classical behavior for rotation
           may cause significant error
 Rotational temperatures (Kelvin)      0.07742     0.04031     0.03820
 Rotational constants (GHZ):           1.61327     0.83988     0.79601
 Zero-point vibrational energy     139599.0 (Joules/Mol)
                                   33.36496 (Kcal/Mol)
 Warning -- explicit consideration of  16 degrees of freedom as
           vibrations may cause significant error
 Vibrational temperatures:     34.87   100.66   185.00   279.97   317.27
          (Kelvin)            341.77   408.45   459.73   465.16   530.60
                              541.64   641.75   718.48   729.91   782.49
                              876.33   907.85   955.34  1125.00  1289.68
                             1496.96  1640.49  1727.64  1809.01  1818.00
                             1874.06  1879.56  1999.44  2165.66  5477.02

 Zero-point correction=                           0.053170 (Hartree/Particle)
 Thermal correction to Energy=                    0.063473
 Thermal correction to Enthalpy=                  0.064418
 Thermal correction to Gibbs Free Energy=         0.015961
 Sum of electronic and zero-point Energies=          -1199.887504
 Sum of electronic and thermal Energies=             -1199.877201
 Sum of electronic and thermal Enthalpies=           -1199.876257
 Sum of electronic and thermal Free Energies=        -1199.924714

                     E (Thermal)             CV                S
                      KCal/Mol        Cal/Mol-Kelvin    Cal/Mol-Kelvin
 Total                   39.830             35.977            101.986
 Electronic               0.000              0.000              0.000
 Translational            0.889              2.981             41.783
 Rotational               0.889              2.981             30.078
 Vibrational             38.053             30.016             30.124
 Vibration     1          0.593              1.985              6.253
 Vibration     2          0.598              1.968              4.154
 Vibration     3          0.611              1.925              2.967
 Vibration     4          0.635              1.847              2.184
 Vibration     5          0.647              1.810              1.955
 Vibration     6          0.656              1.783              1.821
 Vibration     7          0.682              1.704              1.510
 Vibration     8          0.705              1.636              1.313
 Vibration     9          0.708              1.629              1.293
 Vibration    10          0.741              1.536              1.085
 Vibration    11          0.747              1.520              1.053
 Vibration    12          0.805              1.370              0.808
 Vibration    13          0.855              1.251              0.660
 Vibration    14          0.863              1.234              0.640
 Vibration    15          0.899              1.153              0.557
 Vibration    16          0.968              1.013              0.434

 Optimization completed.
    -- Stationary point found.
 Normal termination of Gaussian 16 at Fri May 23 23:53:25 2025.
