 Gaussian 16, Revision C.01,
 Gaussian 16:  ES64L-G16RevC.01  3-Jul-2019

 ----------------------------------------------------------------------
 #P M062X/Def2TZVPP Symm(None) scf(xqc) pop(None) freq opt(CalcFC, Tigh
 t)
 ----------------------------------------------------------------------

 ------------------------------
 Gaussian input prepared by ASE
 ------------------------------
 Symbolic Z-matrix:
 Charge =  0 Multiplicity = 1

 SCF Done:  E(RM062X) =  -1199.91862494     A.U. after   13 cycles
 SCF Done:  E(RM062X) =  -1199.92144366     A.U. after   12 cycles
 SCF Done:  E(RM062X) =  -1199.92111842     A.U. after   12 cycles
 SCF Done:  E(RM062X) =  -1199.92169295     A.U. after   12 cycles
 SCF Done:  E(RM062X) =  -1199.92171225     A.U. after   10 cycles
 SCF Done:  E(RM062X) =  -1199.92171582     A.U. after    9 cycles
 SCF Done:  E(RM062X) =  -1199.92171621     A.U. after    8 cycles
 SCF Done:  E(RM062X) =  -1199.92171630     A.U. after    7 cycles
 SCF Done:  E(RM062X) =  -1199.92171630     A.U. after    5 cycles
 SCF Done:  E(RM062X) =  -1199.92171630     A.U. after    3 cycles
 SCF Done:  E(RM062X) =  -1199.92171630     A.U. after    3 cycles
 Optimization completed.
    -- Stationary point found.
 Normal termination of Gaussian 16 at Sat May 24 06:05:53 2025.

 ---------------------------------------------------------------------
 #P Geom=AllCheck Guess=TCheck SCRF=Check GenChk RM062X/def2TZVPP Freq
 ---------------------------------------------------------------------

 Structure from the checkpoint file:  "/tmp/Gau-16639.chk"
 ------------------------------
 Gaussian input prepared by ASE
 ------------------------------
 Charge =  0 Multiplicity = 1

                          Input orientation:
 ---------------------------------------------------------------------
 Center     Atomic      Atomic             Coordinates (Angstroms)
 Number     Number       Type             X           Y           Z
 ---------------------------------------------------------------------
      1          6           0        0.563317   -2.147644   -1.805330
      2          6           0        1.248405    0.033206   -0.055367
      3          9           0       -0.088938    0.139586   -0.114229
      4          9           0        1.533414   -0.740174    0.996254
      5         16           0        1.832594   -0.794345   -1.615685
      6          8           0        3.070591   -1.431413   -1.327977
      7          8           0        1.639691    0.112150   -2.693075
      8          8           0        1.869289    1.214803   -0.009837
      9          9           0       -0.577447   -1.663000   -2.249087
     10          9           0        1.047124   -3.010625   -2.677450
     11          9           0        0.370059   -2.748583   -0.643370
     12          1           0        1.790952    1.599892    0.873153
 ---------------------------------------------------------------------

 SCF Done:  E(RM062X) =  -1199.92171630     A.U. after    1 cycles

 Isotropic polarizability for W=    0.000000       55.74 Bohr**3.
 End of Minotr F.D. properties file   721 does not exist.

                      1                      2                      3
                      A                      A                      A
 Frequencies --     48.5880                51.4494               101.7682
 Red. masses --     13.9647                14.2324                 2.0895
 Frc consts  --      0.0194                 0.0222                 0.0128
 IR Inten    --      2.0100                 0.7521                49.1239

                      4                      5                      6
                      A                      A                      A
 Frequencies --    122.8885               192.7060               195.6799
 Red. masses --      2.0305                16.3914                16.5427
 Frc consts  --      0.0181                 0.3586                 0.3732
 IR Inten    --     59.0373                 1.9269                 6.0999

                      7                      8                      9
                      A                      A                      A
 Frequencies --    231.6612               280.3330               294.8796
 Red. masses --     13.7510                11.1762                14.4560
 Frc consts  --      0.4348                 0.5175                 0.7406
 IR Inten    --      7.1525                 1.7845                 1.4410

                     10                     11                     12
                      A                      A                      A
 Frequencies --    304.3123               343.1127               405.8867
 Red. masses --     15.8912                14.8973                18.0753
 Frc consts  --      0.8671                 1.0333                 1.7545
 IR Inten    --      2.0128                 0.5282                13.0035

                     13                     14                     15
                      A                      A                      A
 Frequencies --    525.4913               540.2789               556.4986
 Red. masses --     13.5213                16.1897                16.3212
 Frc consts  --      2.1999                 2.7844                 2.9780
 IR Inten    --     49.0931                40.8607                 2.7766

                     16                     17                     18
                      A                      A                      A
 Frequencies --    577.2581               602.7713               630.1499
 Red. masses --     15.7816                14.7642                14.1692
 Frc consts  --      3.0984                 3.1606                 3.3150
 IR Inten    --      3.2159                33.1620               181.2558

                     19                     20                     21
                      A                      A                      A
 Frequencies --    763.3733               801.6135              1042.4049
 Red. masses --      6.7290                14.5154                 3.3651
 Frc consts  --      2.3103                 5.4955                 2.1544
 IR Inten    --      1.0430                 3.5882               102.6642

                     22                     23                     24
                      A                      A                      A
 Frequencies --   1165.0910              1190.7240              1256.4713
 Red. masses --     12.8588                 9.7494                 6.3844
 Frc consts  --     10.2842                 8.1442                 5.9384
 IR Inten    --    249.8218               155.2807                31.0635

                     25                     26                     27
                      A                      A                      A
 Frequencies --   1281.1493              1300.2171              1320.5748
 Red. masses --     13.2587                13.0661                10.1590
 Frc consts  --     12.8218                13.0145                10.4382
 IR Inten    --    267.7838               257.8264               329.2407

                     28                     29                     30
                      A                      A                      A
 Frequencies --   1388.7268              1476.9130              3820.3578
 Red. masses --      2.5181                20.4861                 1.0652
 Frc consts  --      2.8613                26.3281                 9.1600
 IR Inten    --     41.7012               275.5650               156.5441

 - Thermochemistry -
 -------------------
 Temperature   298.150 Kelvin.  Pressure   1.00000 Atm.
 Atom     1 has atomic number  6 and mass  12.00000

 Molecular mass:   199.95666 amu.
 Principal axes and moments of inertia in atomic units:
                           1         2         3
     Eigenvalues --  1202.564982034.486702249.41626
           X            0.23672   0.77726  -0.58295
           Y            0.75154   0.23378   0.61688
           Z            0.61576  -0.58413  -0.52880
 This molecule is an asymmetric top.
 Rotational symmetry number  1.
 Warning -- assumption of classical behavior for rotation
           may cause significant error
 Rotational temperatures (Kelvin)      0.07202     0.04257     0.03851
 Rotational constants (GHZ):           1.50074     0.88707     0.80232
 Zero-point vibrational energy     136454.0 (Joules/Mol)
                                   32.61329 (Kcal/Mol)
 Warning -- explicit consideration of  17 degrees of freedom as
           vibrations may cause significant error
 Vibrational temperatures:     69.91    74.02   146.42   176.81   277.26
          (Kelvin)            281.54   333.31   403.34   424.27   437.84
                              493.66   583.98   756.06   777.34   800.68
                              830.55   867.25   906.65  1098.32  1153.34
                             1499.79  1676.31  1713.19  1807.78  1843.29
                             1870.72  1900.01  1998.07  2124.95  5496.64

 Zero-point correction=                           0.051973 (Hartree/Particle)
 Thermal correction to Energy=                    0.062868
 Thermal correction to Enthalpy=                  0.063812
 Thermal correction to Gibbs Free Energy=         0.014151
 Sum of electronic and zero-point Energies=          -1199.869744
 Sum of electronic and thermal Energies=             -1199.858848
 Sum of electronic and thermal Enthalpies=           -1199.857904
 Sum of electronic and thermal Free Energies=        -1199.907566

                     E (Thermal)             CV                S
                      KCal/Mol        Cal/Mol-Kelvin    Cal/Mol-Kelvin
 Total                   39.450             36.883            104.522
 Electronic               0.000              0.000              0.000
 Translational            0.889              2.981             41.783
 Rotational               0.889              2.981             30.088
 Vibrational             37.673             30.921             32.650
 Vibration     1          0.595              1.978              4.874
 Vibration     2          0.596              1.977              4.761
 Vibration     3          0.604              1.948              3.420
 Vibration     4          0.610              1.930              3.054
 Vibration     5          0.635              1.850              2.202
 Vibration     6          0.636              1.846              2.173
 Vibration     7          0.653              1.793              1.866
 Vibration     8          0.680              1.710              1.532
 Vibration     9          0.689              1.683              1.446
 Vibration    10          0.695              1.666              1.393
 Vibration    11          0.722              1.589              1.198
 Vibration    12          0.771              1.457              0.941
 Vibration    13          0.880              1.194              0.597
 Vibration    14          0.895              1.161              0.565
 Vibration    15          0.912              1.125              0.531
 Vibration    16          0.934              1.080              0.490
 Vibration    17          0.961              1.026              0.445

                           ! Non-Optimized Parameters !
 Normal termination of Gaussian 16 at Sat May 24 06:10:13 2025.
