 Gaussian 16, Revision C.01,
 Gaussian 16:  ES64L-G16RevC.01  3-Jul-2019

 ----------------------------------------------------------------------
 #P M062X/Def2TZVPP Symm(None) scf(xqc) pop(None) freq opt(CalcFC, Tigh
 t)
 ----------------------------------------------------------------------

 ------------------------------
 Gaussian input prepared by ASE
 ------------------------------
 Symbolic Z-matrix:
 Charge =  0 Multiplicity = 1

 SCF Done:  E(RM062X) =  -1199.92614033     A.U. after   13 cycles
 SCF Done:  E(RM062X) =  -1199.92614055     A.U. after    7 cycles
 Optimization completed.
    -- Stationary point found.
 Normal termination of Gaussian 16 at Sat May 24 05:59:44 2025.

 ---------------------------------------------------------------------
 #P Geom=AllCheck Guess=TCheck SCRF=Check GenChk RM062X/def2TZVPP Freq
 ---------------------------------------------------------------------

 Structure from the checkpoint file:  "/tmp/Gau-16641.chk"
 ------------------------------
 Gaussian input prepared by ASE
 ------------------------------
 Charge =  0 Multiplicity = 1

                          Input orientation:
 ---------------------------------------------------------------------
 Center     Atomic      Atomic             Coordinates (Angstroms)
 Number     Number       Type             X           Y           Z
 ---------------------------------------------------------------------
      1          6           0        0.524685   -2.128245   -1.840674
      2          6           0        1.345927   -0.000327    0.000079
      3          9           0        0.000587   -0.001009    0.001052
      4          9           0        1.767975   -0.667248    1.055838
      5         16           0        1.874632   -0.872434   -1.567224
      6          8           0        3.072564   -1.602609   -1.338925
      7          8           0        1.745474    0.127165   -2.583768
      8          8           0        1.866441    1.230048   -0.000057
      9          9           0       -0.585054   -1.549211   -2.245733
     10          9           0        0.951332   -2.965779   -2.764777
     11          9           0        0.307894   -2.779417   -0.711620
     12          1           0        1.738393    1.640817   -0.868061
 ---------------------------------------------------------------------

 SCF Done:  E(RM062X) =  -1199.92614055     A.U. after    1 cycles

 Isotropic polarizability for W=    0.000000       55.80 Bohr**3.
 End of Minotr F.D. properties file   721 does not exist.

                      1                      2                      3
                      A                      A                      A
 Frequencies --     49.6394                57.6248               114.8627
 Red. masses --     14.0793                17.4494                17.4608
 Frc consts  --      0.0204                 0.0341                 0.1357
 IR Inten    --      0.6548                 0.0901                 0.3865

                      4                      5                      6
                      A                      A                      A
 Frequencies --    193.3682               199.3809               237.1872
 Red. masses --     17.1416                14.7740                11.7628
 Frc consts  --      0.3776                 0.3460                 0.3899
 IR Inten    --      4.8845                 1.6312                16.7768

                      7                      8                      9
                      A                      A                      A
 Frequencies --    278.6516               296.0746               311.8265
 Red. masses --      7.8243                 9.5501                16.8293
 Frc consts  --      0.3579                 0.4932                 0.9641
 IR Inten    --      8.4459                12.8526                 1.2083

                     10                     11                     12
                      A                      A                      A
 Frequencies --    338.4420               399.3969               426.7071
 Red. masses --     10.6680                 4.1749                 1.7168
 Frc consts  --      0.7200                 0.3924                 0.1842
 IR Inten    --      2.4262                15.5700                88.4761

                     13                     14                     15
                      A                      A                      A
 Frequencies --    531.5337               535.7756               551.7639
 Red. masses --     14.6825                11.7816                11.1107
 Frc consts  --      2.4441                 1.9926                 1.9930
 IR Inten    --     36.3214                20.2566                10.6983

                     16                     17                     18
                      A                      A                      A
 Frequencies --    575.2538               606.6873               644.2742
 Red. masses --     12.6526                13.8766                16.9631
 Frc consts  --      2.4669                 3.0093                 4.1486
 IR Inten    --      6.8803                45.8475               136.5847

                     19                     20                     21
                      A                      A                      A
 Frequencies --    778.9665               809.2845              1077.8466
 Red. masses --     14.8358                17.4665                 5.0484
 Frc consts  --      5.3039                 6.7400                 3.4556
 IR Inten    --      8.2132                 4.5479               191.4510

                     22                     23                     24
                      A                      A                      A
 Frequencies --   1157.5443              1175.6502              1265.6856
 Red. masses --     12.4674                 3.1664                 8.5302
 Frc consts  --      9.8424                 2.5785                 8.0512
 IR Inten    --    150.2046               150.9468               246.7122

                     25                     26                     27
                      A                      A                      A
 Frequencies --   1285.2508              1305.8580              1318.3240
 Red. masses --     12.9788                12.8737                 7.6019
 Frc consts  --     12.6317                12.9344                 7.7842
 IR Inten    --    198.3647               229.4690               302.3685

                     28                     29                     30
                      A                      A                      A
 Frequencies --   1408.9705              1465.9139              3786.5472
 Red. masses --      3.2406                 8.4277                 1.0655
 Frc consts  --      3.7903                10.6703                 9.0008
 IR Inten    --     87.9569               317.0960               127.8994

 - Thermochemistry -
 -------------------
 Temperature   298.150 Kelvin.  Pressure   1.00000 Atm.
 Atom     1 has atomic number  6 and mass  12.00000

 Molecular mass:   199.95666 amu.
 Principal axes and moments of inertia in atomic units:
                           1         2         3
     Eigenvalues --  1191.133972072.178522269.65756
           X            0.28040   0.80584  -0.52154
           Y            0.72732   0.17621   0.66329
           Z            0.62641  -0.56531  -0.53669
 This molecule is an asymmetric top.
 Rotational symmetry number  1.
 Warning -- assumption of classical behavior for rotation
           may cause significant error
 Rotational temperatures (Kelvin)      0.07272     0.04180     0.03816
 Rotational constants (GHZ):           1.51515     0.87094     0.79516
 Zero-point vibrational energy     138672.9 (Joules/Mol)
                                   33.14361 (Kcal/Mol)
 Warning -- explicit consideration of  17 degrees of freedom as
           vibrations may cause significant error
 Vibrational temperatures:     71.42    82.91   165.26   278.21   286.86
          (Kelvin)            341.26   400.92   425.99   448.65   486.94
                              574.64   613.94   764.76   770.86   793.87
                              827.66   872.89   926.97  1120.76  1164.38
                             1550.78  1665.45  1691.50  1821.04  1849.19
                             1878.84  1896.77  2027.19  2109.12  5448.00

 Zero-point correction=                           0.052818 (Hartree/Particle)
 Thermal correction to Energy=                    0.063237
 Thermal correction to Enthalpy=                  0.064182
 Thermal correction to Gibbs Free Energy=         0.015846
 Sum of electronic and zero-point Energies=          -1199.873323
 Sum of electronic and thermal Energies=             -1199.862903
 Sum of electronic and thermal Enthalpies=           -1199.861959
 Sum of electronic and thermal Free Energies=        -1199.910294

                     E (Thermal)             CV                S
                      KCal/Mol        Cal/Mol-Kelvin    Cal/Mol-Kelvin
 Total                   39.682             36.250            101.731
 Electronic               0.000              0.000              0.000
 Translational            0.889              2.981             41.783
 Rotational               0.889              2.981             30.106
 Vibrational             37.905             30.289             29.841
 Vibration     1          0.595              1.978              4.832
 Vibration     2          0.596              1.974              4.537
 Vibration     3          0.608              1.937              3.185
 Vibration     4          0.635              1.849              2.195
 Vibration     5          0.638              1.841              2.139
 Vibration     6          0.656              1.784              1.824
 Vibration     7          0.679              1.713              1.542
 Vibration     8          0.690              1.681              1.439
 Vibration     9          0.700              1.651              1.353
 Vibration    10          0.719              1.599              1.219
 Vibration    11          0.765              1.471              0.965
 Vibration    12          0.788              1.412              0.869
 Vibration    13          0.887              1.180              0.584
 Vibration    14          0.891              1.171              0.574
 Vibration    15          0.907              1.136              0.541
 Vibration    16          0.932              1.085              0.494
 Vibration    17          0.965              1.018              0.438

 Optimization completed.
    -- Stationary point found.
 Normal termination of Gaussian 16 at Sat May 24 06:04:24 2025.
