 Gaussian 16, Revision C.01,
 Gaussian 16:  ES64L-G16RevC.01  3-Jul-2019

 ----------------------------------------------------------------------
 #P M062X/Def2TZVPP Symm(None) scf(xqc) pop(None) opt(NoFreeze,TS,CalcA
 ll,NoEigentest,MaxCycle=999)
 ----------------------------------------------------------------------

 ------------------------------
 Gaussian input prepared by ASE
 ------------------------------
 Symbolic Z-matrix:
 Charge =  0 Multiplicity = 1

 SCF Done:  E(RM062X) =  -1199.78466035     A.U. after   15 cycles
 SCF Done:  E(RM062X) =  -1199.79111283     A.U. after   12 cycles
 SCF Done:  E(RM062X) =  -1199.79190971     A.U. after   13 cycles
 SCF Done:  E(RM062X) =  -1199.79196511     A.U. after   10 cycles
 SCF Done:  E(RM062X) =  -1199.79196553     A.U. after    7 cycles

 Isotropic polarizability for W=    0.000000       58.51 Bohr**3.
 End of Minotr F.D. properties file   721 does not exist.

 Optimization completed.
    -- Stationary point found.

                          Input orientation:
 ---------------------------------------------------------------------
 Center     Atomic      Atomic             Coordinates (Angstroms)
 Number     Number       Type             X           Y           Z
 ---------------------------------------------------------------------
      1          6           0       -0.473172   -2.232096   -1.115389
      2          6           0        0.477110   -1.755204   -0.002769
      3          9           0       -0.049516   -0.031177    0.038257
      4          9           0        0.047294   -2.209867    1.121728
      5         16           0        1.708484    0.010284    0.022324
      6          8           0        2.231689   -0.349666    1.283286
      7          8           0        2.210221   -0.218831   -1.284639
      8          8           0        1.608436    1.585505    0.138431
      9          9           0       -0.279313   -1.552470   -2.230124
     10          9           0       -0.188221   -3.514777   -1.328943
     11          9           0       -1.751172   -2.132595   -0.769103
     12          1           0        1.500545    1.964160   -0.744322
 ---------------------------------------------------------------------

 ******    1 imaginary frequencies (negative Signs) ******

                      1                      2                      3
                      A                      A                      A
 Frequencies --   -371.7684                52.3313                87.3699
 Red. masses --     14.9328                15.3475                13.6535
 Frc consts  --      1.2160                 0.0248                 0.0614
 IR Inten    --      4.8703                 0.5896                 0.2714

                      4                      5                      6
                      A                      A                      A
 Frequencies --     95.0768               155.8618               195.2857
 Red. masses --     13.7083                 9.7640                15.2477
 Frc consts  --      0.0730                 0.1398                 0.3426
 IR Inten    --      3.3440                38.2245                12.5605

                      7                      8                      9
                      A                      A                      A
 Frequencies --    252.0968               286.2991               303.0876
 Red. masses --     12.0984                 5.8690                 2.9036
 Frc consts  --      0.4530                 0.2834                 0.1572
 IR Inten    --      4.7004                12.4645                54.9003

                     10                     11                     12
                      A                      A                      A
 Frequencies --    357.4114               372.0593               393.8527
 Red. masses --      7.6340                 6.7262                 3.7450
 Frc consts  --      0.5746                 0.5486                 0.3423
 IR Inten    --     13.4713                60.6056                20.2408

                     13                     14                     15
                      A                      A                      A
 Frequencies --    453.0676               519.2975               522.0257
 Red. masses --     17.0571                 9.3590                 7.0726
 Frc consts  --      2.0629                 1.4870                 1.1356
 IR Inten    --      3.7833                28.9975                 6.9253

                     16                     17                     18
                      A                      A                      A
 Frequencies --    549.0142               583.5675               601.6966
 Red. masses --     17.6222                17.0515                18.0050
 Frc consts  --      3.1295                 3.4213                 3.8406
 IR Inten    --    143.6987                24.8397               280.2835

                     19                     20                     21
                      A                      A                      A
 Frequencies --    690.8320               738.7576               870.4596
 Red. masses --     14.0433                15.8483                15.7251
 Frc consts  --      3.9488                 5.0961                 7.0201
 IR Inten    --     83.5211                32.0393               349.4369

                     22                     23                     24
                      A                      A                      A
 Frequencies --    932.1605              1190.4400              1204.5900
 Red. masses --     14.3189                 1.2563                10.3122
 Frc consts  --      7.3306                 1.0490                 8.8162
 IR Inten    --     20.1163                74.7275               112.9178

                     25                     26                     27
                      A                      A                      A
 Frequencies --   1244.9921              1287.7600              1307.6720
 Red. masses --     13.3295                12.8629                13.3184
 Frc consts  --     12.1730                12.5678                13.4183
 IR Inten    --    298.9672               147.7257               286.6574

                     28                     29                     30
                      A                      A                      A
 Frequencies --   1395.2387              1501.9619              3828.7462
 Red. masses --     13.1848                13.7386                 1.0657
 Frc consts  --     15.1225                18.2604                 9.2044
 IR Inten    --    124.5451               284.8081               156.8051

 - Thermochemistry -
 -------------------
 Temperature   298.150 Kelvin.  Pressure   1.00000 Atm.
 Atom     1 has atomic number  6 and mass  12.00000

 Molecular mass:   199.95666 amu.
 Principal axes and moments of inertia in atomic units:
                           1         2         3
     Eigenvalues --   967.626202586.868922810.16639
           X            0.61472  -0.04839   0.78726
           Y            0.72846  -0.34788  -0.59019
           Z            0.30243   0.93629  -0.17860
 This molecule is an asymmetric top.
 Rotational symmetry number  1.
 Warning -- assumption of classical behavior for rotation
           may cause significant error
 Rotational temperatures (Kelvin)      0.08951     0.03348     0.03082
 Rotational constants (GHZ):           1.86512     0.69765     0.64222
    1 imaginary frequencies ignored.
 Zero-point vibrational energy     131427.8 (Joules/Mol)
                                   31.41200 (Kcal/Mol)
 Warning -- explicit consideration of  17 degrees of freedom as
           vibrations may cause significant error
 Vibrational temperatures:     75.29   125.71   136.79   224.25   280.97
          (Kelvin)            362.71   411.92   436.08   514.24   535.31
                              566.67   651.86   747.15   751.08   789.91
                              839.62   865.71   993.95  1062.91  1252.40
                             1341.17  1712.78  1733.14  1791.27  1852.80
                             1881.45  2007.44  2160.99  5508.71

 Zero-point correction=                           0.050058 (Hartree/Particle)
 Thermal correction to Energy=                    0.060373
 Thermal correction to Enthalpy=                  0.061317
 Thermal correction to Gibbs Free Energy=         0.013219
 Sum of electronic and zero-point Energies=          -1199.741907
 Sum of electronic and thermal Energies=             -1199.731593
 Sum of electronic and thermal Enthalpies=           -1199.730649
 Sum of electronic and thermal Free Energies=        -1199.778747

                     E (Thermal)             CV                S
                      KCal/Mol        Cal/Mol-Kelvin    Cal/Mol-Kelvin
 Total                   37.884             35.964            101.230
 Electronic               0.000              0.000              0.000
 Translational            0.889              2.981             41.783
 Rotational               0.889              2.981             30.332
 Vibrational             36.107             30.002             29.115
 Vibration     1          0.596              1.977              4.727
 Vibration     2          0.601              1.958              3.718
 Vibration     3          0.603              1.953              3.553
 Vibration     4          0.620              1.896              2.599
 Vibration     5          0.636              1.846              2.177
 Vibration     6          0.664              1.759              1.716
 Vibration     7          0.684              1.699              1.496
 Vibration     8          0.695              1.668              1.400
 Vibration     9          0.733              1.560              1.133
 Vibration    10          0.744              1.530              1.071
 Vibration    11          0.761              1.483              0.986
 Vibration    12          0.812              1.354              0.787
 Vibration    13          0.874              1.207              0.612
 Vibration    14          0.877              1.201              0.605
 Vibration    15          0.904              1.142              0.546
 Vibration    16          0.940              1.067              0.479
 Vibration    17          0.960              1.028              0.447

 Normal termination of Gaussian 16 at Sat May 24 05:57:08 2025.
