 Gaussian 16, Revision C.01,
 Gaussian 16:  ES64L-G16RevC.01  3-Jul-2019

 ------------------------------------------
 #P am1 Symm(None) scf(xqc) pop(None) force
 ------------------------------------------

 ------------------------------
 Gaussian input prepared by ASE
 ------------------------------
 Symbolic Z-matrix:
 Charge =  0 Multiplicity = 1

                          Input orientation:
 ---------------------------------------------------------------------
 Center     Atomic      Atomic             Coordinates (Angstroms)
 Number     Number       Type             X           Y           Z
 ---------------------------------------------------------------------
      1          6           0       -0.664242   -1.012507    0.580354
      2          6           0       -0.063032    0.056581   -0.378204
      3          9           0       -0.444517   -0.135885   -1.621015
      4          9           0       -0.541360    1.264581   -0.086273
      5         16           0        1.701780   -0.301230    0.055982
      6          8           0        1.455733   -0.895150    1.365260
      7          8           0        2.716586   -0.330158   -0.944080
      8          8           0        1.920126    1.241615    0.509967
      9          9           0        0.926628   -1.926787   -0.610226
     10          9           0       -0.779400   -0.873001    1.826256
     11          9           0       -1.276067   -2.031324    0.196165
     12          1           0        2.495695    1.822855    0.000010
 ---------------------------------------------------------------------

 SCF Done:  E(RAM1) =  0.315854841932     A.U. after   16 cycles
 Normal termination of Gaussian 16 at Sat May 24 06:00:50 2025.
