 Gaussian 16, Revision C.01,
 Gaussian 16:  ES64L-G16RevC.01  3-Jul-2019

 ----------------------------------------------------------------------
 #P M062X/Def2TZVPP Symm(None) scf(xqc) pop(None) opt(NoFreeze,TS,CalcA
 ll,NoEigentest,MaxCycle=999)
 ----------------------------------------------------------------------

 ------------------------------
 Gaussian input prepared by ASE
 ------------------------------
 Symbolic Z-matrix:
 Charge =  0 Multiplicity = 1

 SCF Done:  E(RM062X) =  -1199.76409483     A.U. after   16 cycles
 SCF Done:  E(RM062X) =  -1199.76409502     A.U. after    8 cycles

 Isotropic polarizability for W=    0.000000       59.18 Bohr**3.
 End of Minotr F.D. properties file   721 does not exist.

 Optimization completed.
    -- Stationary point found.

                          Input orientation:
 ---------------------------------------------------------------------
 Center     Atomic      Atomic             Coordinates (Angstroms)
 Number     Number       Type             X           Y           Z
 ---------------------------------------------------------------------
      1          6           0       -0.164504   -0.849048   -1.294366
      2          6           0        0.000039    0.000324   -0.000268
      3          9           0       -0.551323    1.182554   -0.267852
      4          9           0       -0.632755   -0.529825    1.022270
      5         16           0        1.852268   -0.000062   -0.000118
      6          8           0        2.710075   -0.294211    1.099208
      7          8           0        2.011816   -0.245378   -1.429101
      8          8           0        1.937563    1.620580    0.000809
      9          9           0       -0.636843   -2.004551   -1.336630
     10          9           0        1.236463   -1.817888    0.076633
     11          9           0       -0.285838   -0.251877   -2.396175
     12          1           0        2.457491    1.882962    0.768940
 ---------------------------------------------------------------------

 ******    1 imaginary frequencies (negative Signs) ******

                      1                      2                      3
                      A                      A                      A
 Frequencies --   -334.6616               109.1283               127.1771
 Red. masses --     15.7035                12.3442                15.1246
 Frc consts  --      1.0362                 0.0866                 0.1441
 IR Inten    --     20.2237                 5.1309               203.2169

                      4                      5                      6
                      A                      A                      A
 Frequencies --    175.8474               188.0934               252.8392
 Red. masses --     15.5429                12.2373                17.7879
 Frc consts  --      0.2832                 0.2551                 0.6700
 IR Inten    --      1.3916                 6.8495                 5.8013

                      7                      8                      9
                      A                      A                      A
 Frequencies --    283.5296               295.9263               300.9636
 Red. masses --     15.2214                13.6124                12.3906
 Frc consts  --      0.7209                 0.7023                 0.6613
 IR Inten    --     14.8862                 4.5258                31.1939

                     10                     11                     12
                      A                      A                      A
 Frequencies --    336.6608               369.8932               412.2595
 Red. masses --      1.9481                 2.8982                16.6913
 Frc consts  --      0.1301                 0.2336                 1.6714
 IR Inten    --     76.6528                23.4532                52.5532

                     13                     14                     15
                      A                      A                      A
 Frequencies --    442.5146               506.0454               535.3631
 Red. masses --     13.1231                 6.9422                 9.3205
 Frc consts  --      1.5141                 1.0474                 1.5739
 IR Inten    --     50.6024                 5.5802                 9.7384

                     16                     17                     18
                      A                      A                      A
 Frequencies --    560.7976               582.6753               640.5645
 Red. masses --     13.8257                17.5286                14.4359
 Frc consts  --      2.5618                 3.5063                 3.4900
 IR Inten    --     94.7019                57.6117                55.8165

                     19                     20                     21
                      A                      A                      A
 Frequencies --    675.2309               772.3126               796.0082
 Red. masses --     14.5418                16.3504                15.9623
 Frc consts  --      3.9064                 5.7460                 5.9591
 IR Inten    --     38.7079                34.0939               245.2043

                     22                     23                     24
                      A                      A                      A
 Frequencies --    960.9855              1123.6717              1161.9317
 Red. masses --     13.0491                11.4771                 1.3019
 Frc consts  --      7.1001                 8.5381                 1.0356
 IR Inten    --     14.5211               182.8867               162.0088

                     25                     26                     27
                      A                      A                      A
 Frequencies --   1211.1433              1310.7566              1401.8415
 Red. masses --     13.1128                12.7672                10.1212
 Frc consts  --     11.3328                12.9238                11.7188
 IR Inten    --     93.6016               153.2379               372.3259

                     28                     29                     30
                      A                      A                      A
 Frequencies --   1453.2676              1531.1491              3859.5288
 Red. masses --     13.2999                13.4242                 1.0658
 Frc consts  --     16.5497                18.5428                 9.3538
 IR Inten    --    228.9313               375.9273               160.3859

 - Thermochemistry -
 -------------------
 Temperature   298.150 Kelvin.  Pressure   1.00000 Atm.
 Atom     1 has atomic number  6 and mass  12.00000

 Molecular mass:   199.95666 amu.
 Principal axes and moments of inertia in atomic units:
                           1         2         3
     Eigenvalues --  1230.077201904.500562006.92973
           X            0.79000  -0.38758  -0.47506
           Y            0.37790   0.91797  -0.12050
           Z            0.48280  -0.08433   0.87166
 This molecule is an asymmetric top.
 Rotational symmetry number  1.
 Warning -- assumption of classical behavior for rotation
           may cause significant error
 Rotational temperatures (Kelvin)      0.07041     0.04548     0.04316
 Rotational constants (GHZ):           1.46718     0.94762     0.89925
    1 imaginary frequencies ignored.
 Zero-point vibrational energy     133850.8 (Joules/Mol)
                                   31.99111 (Kcal/Mol)
 Warning -- explicit consideration of  16 degrees of freedom as
           vibrations may cause significant error
 Vibrational temperatures:    157.01   182.98   253.01   270.62   363.78
          (Kelvin)            407.94   425.77   433.02   484.38   532.19
                              593.15   636.68   728.09   770.27   806.86
                              838.34   921.63   971.51  1111.19  1145.28
                             1382.64  1616.71  1671.76  1742.57  1885.89
                             2016.94  2090.93  2202.98  5553.00

 Zero-point correction=                           0.050981 (Hartree/Particle)
 Thermal correction to Energy=                    0.060775
 Thermal correction to Enthalpy=                  0.061719
 Thermal correction to Gibbs Free Energy=         0.015901
 Sum of electronic and zero-point Energies=          -1199.713114
 Sum of electronic and thermal Energies=             -1199.703320
 Sum of electronic and thermal Enthalpies=           -1199.702376
 Sum of electronic and thermal Free Energies=        -1199.748194

                     E (Thermal)             CV                S
                      KCal/Mol        Cal/Mol-Kelvin    Cal/Mol-Kelvin
 Total                   38.137             35.618             96.433
 Electronic               0.000              0.000              0.000
 Translational            0.889              2.981             41.783
 Rotational               0.889              2.981             29.932
 Vibrational             36.360             29.656             24.718
 Vibration     1          0.606              1.942              3.284
 Vibration     2          0.611              1.926              2.988
 Vibration     3          0.628              1.872              2.372
 Vibration     4          0.633              1.856              2.247
 Vibration     5          0.664              1.758              1.711
 Vibration     6          0.682              1.704              1.512
 Vibration     7          0.690              1.681              1.440
 Vibration     8          0.693              1.672              1.412
 Vibration     9          0.717              1.602              1.228
 Vibration    10          0.742              1.534              1.080
 Vibration    11          0.776              1.444              0.919
 Vibration    12          0.802              1.377              0.819
 Vibration    13          0.861              1.237              0.643
 Vibration    14          0.890              1.172              0.575
 Vibration    15          0.916              1.116              0.522
 Vibration    16          0.939              1.069              0.480

 Normal termination of Gaussian 16 at Sat May 24 07:38:29 2025.
