 Gaussian 16, Revision C.01,
 Gaussian 16:  ES64L-G16RevC.01  3-Jul-2019

 ----------------------------------------------------------------------
 #P M062X/Def2TZVPP Symm(None) scf(xqc) pop(None) freq opt(CalcFC, Tigh
 t)
 ----------------------------------------------------------------------

 ------------------------------
 Gaussian input prepared by ASE
 ------------------------------
 Symbolic Z-matrix:
 Charge =  0 Multiplicity = 1

 SCF Done:  E(RM062X) =  -1199.70627606     A.U. after   14 cycles
 SCF Done:  E(RM062X) =  -1199.71653496     A.U. after   15 cycles
 SCF Done:  E(RM062X) =  -1199.71718126     A.U. after   13 cycles
 SCF Done:  E(RM062X) =  -1199.71687220     A.U. after   14 cycles
 SCF Done:  E(RM062X) =  -1199.71815732     A.U. after   14 cycles
 SCF Done:  E(RM062X) =  -1199.71835535     A.U. after   11 cycles
 SCF Done:  E(RM062X) =  -1199.71838114     A.U. after   11 cycles
 SCF Done:  E(RM062X) =  -1199.71838898     A.U. after   10 cycles
 SCF Done:  E(RM062X) =  -1199.71839095     A.U. after   11 cycles
 SCF Done:  E(RM062X) =  -1199.71839154     A.U. after    8 cycles
 SCF Done:  E(RM062X) =  -1199.71839157     A.U. after    6 cycles
 SCF Done:  E(RM062X) =  -1199.71839158     A.U. after    6 cycles
 SCF Done:  E(RM062X) =  -1199.71839158     A.U. after    3 cycles
 Optimization completed.
    -- Stationary point found.
 Normal termination of Gaussian 16 at Sat May 24 08:22:21 2025.

 ---------------------------------------------------------------------
 #P Geom=AllCheck Guess=TCheck SCRF=Check GenChk RM062X/def2TZVPP Freq
 ---------------------------------------------------------------------

 Structure from the checkpoint file:  "/tmp/Gau-52324.chk"
 ------------------------------
 Gaussian input prepared by ASE
 ------------------------------
 Charge =  0 Multiplicity = 1

                          Input orientation:
 ---------------------------------------------------------------------
 Center     Atomic      Atomic             Coordinates (Angstroms)
 Number     Number       Type             X           Y           Z
 ---------------------------------------------------------------------
      1          6           0        2.423656    0.064682   -2.585395
      2          6           0        2.455175   -0.558288   -1.235048
      3          9           0       -0.618968    0.621945    0.803483
      4          9           0        2.693454   -1.882292   -1.242488
      5         16           0        1.709844    0.034352    0.069396
      6          8           0        0.113655    0.028006   -0.257555
      7          8           0        1.939163   -0.594549    1.308351
      8          8           0        1.939438    1.563503    0.174247
      9          9           0        2.014689    1.353388   -2.511015
     10          9           0        3.623005    0.060395   -3.157935
     11          9           0        1.594808   -0.560533   -3.420162
     12          1           0        1.693850    2.030918   -0.641493
 ---------------------------------------------------------------------

 SCF Done:  E(RM062X) =  -1199.71839158     A.U. after    1 cycles

 Isotropic polarizability for W=    0.000000       62.32 Bohr**3.
 End of Minotr F.D. properties file   721 does not exist.

                      1                      2                      3
                      A                      A                      A
 Frequencies --     38.4358                50.6811               118.0600
 Red. masses --     17.8430                16.1989                15.5513
 Frc consts  --      0.0155                 0.0245                 0.1277
 IR Inten    --      0.1855                 0.6395                 1.1270

                      4                      5                      6
                      A                      A                      A
 Frequencies --    151.7773               196.2762               212.4540
 Red. masses --     14.8391                 5.1887                 4.1733
 Frc consts  --      0.2014                 0.1178                 0.1110
 IR Inten    --      1.2092                12.5356                25.8831

                      7                      8                      9
                      A                      A                      A
 Frequencies --    228.9531               246.8559               296.5808
 Red. masses --      1.8777                10.0862                13.2609
 Frc consts  --      0.0580                 0.3621                 0.6872
 IR Inten    --     39.0017                 4.0764                 5.6134

                     10                     11                     12
                      A                      A                      A
 Frequencies --    338.4914               342.3128               442.4708
 Red. masses --      9.2106                13.1635                15.4790
 Frc consts  --      0.6218                 0.9088                 1.7855
 IR Inten    --      6.3615                 1.5065                 1.0118

                     13                     14                     15
                      A                      A                      A
 Frequencies --    463.2769               466.2227               512.7292
 Red. masses --     14.1084                 7.4086                16.5047
 Frc consts  --      1.7841                 0.9488                 2.5564
 IR Inten    --     10.6727                19.6878                25.1845

                     16                     17                     18
                      A                      A                      A
 Frequencies --    595.1132               604.8038               640.5826
 Red. masses --     16.0160                17.0467                18.8432
 Frc consts  --      3.3420                 3.6738                 4.5557
 IR Inten    --      7.7566                 1.9245               157.5647

                     19                     20                     21
                      A                      A                      A
 Frequencies --    735.8944               776.6655               902.0763
 Red. masses --     17.1068                17.8458                17.0889
 Frc consts  --      5.4582                 6.3424                 8.1932
 IR Inten    --     26.4349                10.0131               144.0008

                     22                     23                     24
                      A                      A                      A
 Frequencies --    947.8239              1111.2798              1127.8801
 Red. masses --     16.1235                 2.4114                 2.3869
 Frc consts  --      8.5342                 1.7546                 1.7890
 IR Inten    --    160.8588                86.8096               305.9350

                     25                     26                     27
                      A                      A                      A
 Frequencies --   1207.8456              1230.4799              1332.7864
 Red. masses --      6.2707                12.2865                12.9924
 Frc consts  --      5.3900                10.9604                13.5976
 IR Inten    --    158.8174               286.5544                19.2339

                     28                     29                     30
                      A                      A                      A
 Frequencies --   1383.8521              1451.4305              3756.0754
 Red. masses --     12.0698                14.0441                 1.0647
 Frc consts  --     13.6185                17.4316                 8.8500
 IR Inten    --    460.9727               209.0700               227.0675

 - Thermochemistry -
 -------------------
 Temperature   298.150 Kelvin.  Pressure   1.00000 Atm.
 Atom     1 has atomic number  6 and mass  12.00000

 Molecular mass:   199.95666 amu.
 Principal axes and moments of inertia in atomic units:
                           1         2         3
     Eigenvalues --  1099.441362552.660682810.36770
           X           -0.48302  -0.49405   0.72292
           Y            0.10997   0.78485   0.60985
           Z            0.86868  -0.37407   0.32477
 This molecule is an asymmetric top.
 Rotational symmetry number  1.
 Warning -- assumption of classical behavior for rotation
           may cause significant error
 Rotational temperatures (Kelvin)      0.07878     0.03393     0.03082
 Rotational constants (GHZ):           1.64151     0.70700     0.64217
 Zero-point vibrational energy     131051.9 (Joules/Mol)
                                   31.32216 (Kcal/Mol)
 Warning -- explicit consideration of  17 degrees of freedom as
           vibrations may cause significant error
 Vibrational temperatures:     55.30    72.92   169.86   218.37   282.40
          (Kelvin)            305.67   329.41   355.17   426.71   487.01
                              492.51   636.62   666.55   670.79   737.70
                              856.24   870.18   921.66  1058.79  1117.45
                             1297.89  1363.71  1598.88  1622.77  1737.82
                             1770.39  1917.58  1991.05  2088.28  5404.15

 Zero-point correction=                           0.049915 (Hartree/Particle)
 Thermal correction to Energy=                    0.060897
 Thermal correction to Enthalpy=                  0.061841
 Thermal correction to Gibbs Free Energy=         0.011924
 Sum of electronic and zero-point Energies=          -1199.668477
 Sum of electronic and thermal Energies=             -1199.657495
 Sum of electronic and thermal Enthalpies=           -1199.656551
 Sum of electronic and thermal Free Energies=        -1199.706467

                     E (Thermal)             CV                S
                      KCal/Mol        Cal/Mol-Kelvin    Cal/Mol-Kelvin
 Total                   38.213             37.757            105.058
 Electronic               0.000              0.000              0.000
 Translational            0.889              2.981             41.783
 Rotational               0.889              2.981             30.446
 Vibrational             36.436             31.795             32.829
 Vibration     1          0.594              1.982              5.338
 Vibration     2          0.595              1.977              4.791
 Vibration     3          0.608              1.934              3.132
 Vibration     4          0.619              1.901              2.650
 Vibration     5          0.636              1.845              2.168
 Vibration     6          0.643              1.822              2.022
 Vibration     7          0.652              1.797              1.887
 Vibration     8          0.661              1.768              1.753
 Vibration     9          0.690              1.680              1.436
 Vibration    10          0.719              1.599              1.219
 Vibration    11          0.721              1.591              1.201
 Vibration    12          0.802              1.377              0.819
 Vibration    13          0.821              1.332              0.757
 Vibration    14          0.824              1.325              0.748
 Vibration    15          0.868              1.222              0.627
 Vibration    16          0.953              1.042              0.458
 Vibration    17          0.963              1.022              0.441

 Optimization completed.
    -- Stationary point found.
 Normal termination of Gaussian 16 at Sat May 24 08:26:36 2025.
