 Gaussian 16, Revision C.01,
 Gaussian 16:  ES64L-G16RevC.01  3-Jul-2019

 ----------------------------------------------------------------------
 #P M062X/Def2TZVPP Symm(None) scf(xqc) pop(None) opt(NoFreeze,TS,CalcA
 ll,NoEigentest,MaxCycle=999)
 ----------------------------------------------------------------------

 ------------------------------
 Gaussian input prepared by ASE
 ------------------------------
 Symbolic Z-matrix:
 Charge =  0 Multiplicity = 1

 SCF Done:  E(RM062X) =  -1199.65783561     A.U. after   22 cycles
 SCF Done:  E(RM062X) =  -1199.67252331     A.U. after   17 cycles
 SCF Done:  E(RM062X) =  -1199.67406900     A.U. after   17 cycles
 SCF Done:  E(RM062X) =  -1199.67426889     A.U. after   17 cycles
 SCF Done:  E(RM062X) =  -1199.67428094     A.U. after   15 cycles

 Isotropic polarizability for W=    0.000000       69.76 Bohr**3.
 End of Minotr F.D. properties file   721 does not exist.

 Optimization completed.
    -- Stationary point found.

                          Input orientation:
 ---------------------------------------------------------------------
 Center     Atomic      Atomic             Coordinates (Angstroms)
 Number     Number       Type             X           Y           Z
 ---------------------------------------------------------------------
      1          6           0        1.885654   -0.988678   -1.200792
      2          6           0        2.227839    0.005404   -0.116653
      3          9           0       -0.284791    0.458107    0.066707
      4          9           0        2.472552   -0.541226    1.057256
      5         16           0        1.933521    1.655038   -0.080176
      6          8           0        0.519947    1.976223    0.264785
      7          8           0        2.854135    2.323009    0.757476
      8          8           0        2.022952    2.100413   -1.564560
      9          9           0        1.281947   -0.421508   -2.232705
     10          9           0        3.019468   -1.549661   -1.646478
     11          9           0        1.128879   -1.967901   -0.729695
     12          1           0        2.947980    2.220006   -1.829185
 ---------------------------------------------------------------------

 ******    1 imaginary frequencies (negative Signs) ******

                      1                      2                      3
                      A                      A                      A
 Frequencies --   -632.6651                39.0499                68.2700
 Red. masses --     17.9082                14.6394                14.7700
 Frc consts  --      4.2233                 0.0132                 0.0406
 IR Inten    --    730.1592                 0.6853                 0.6386

                      4                      5                      6
                      A                      A                      A
 Frequencies --     91.8516               140.6404               169.1371
 Red. masses --     17.4134                14.7358                 9.0384
 Frc consts  --      0.0866                 0.1717                 0.1523
 IR Inten    --      1.0644                 5.8721                 9.0710

                      7                      8                      9
                      A                      A                      A
 Frequencies --    230.1787               244.9650               279.3070
 Red. masses --      4.6988                16.6016                 2.7991
 Frc consts  --      0.1467                 0.5870                 0.1287
 IR Inten    --     17.4118                 4.6316                51.5402

                     10                     11                     12
                      A                      A                      A
 Frequencies --    301.4660               324.6343               343.8780
 Red. masses --      5.2182                 5.5311                 6.5392
 Frc consts  --      0.2794                 0.3434                 0.4556
 IR Inten    --     11.3232                18.1140                13.9089

                     13                     14                     15
                      A                      A                      A
 Frequencies --    437.7904               461.3055               483.7655
 Red. masses --     11.3619                 7.0776                11.7479
 Frc consts  --      1.2830                 0.8874                 1.6199
 IR Inten    --      3.7833                35.9935                14.3974

                     16                     17                     18
                      A                      A                      A
 Frequencies --    513.1148               596.1705               611.0378
 Red. masses --     14.4891                16.6314                16.6706
 Frc consts  --      2.2476                 3.4827                 3.6672
 IR Inten    --     45.5735                13.6223                14.0573

                     19                     20                     21
                      A                      A                      A
 Frequencies --    633.9676               772.2391               904.4877
 Red. masses --     17.3469                17.4747                16.4863
 Frc consts  --      4.1078                 6.1399                 7.9465
 IR Inten    --    118.5206                10.0075                23.7214

                     22                     23                     24
                      A                      A                      A
 Frequencies --    973.8507              1084.0596              1140.6207
 Red. masses --     16.2584                11.6447                 1.1978
 Frc consts  --      9.0847                 8.0628                 0.9182
 IR Inten    --    249.3777               161.3292                41.2733

                     25                     26                     27
                      A                      A                      A
 Frequencies --   1201.2358              1287.9155              1303.2137
 Red. masses --     13.0379                13.5347                12.7740
 Frc consts  --     11.0845                13.2273                12.7822
 IR Inten    --    229.3394               277.2992               120.8106

                     28                     29                     30
                      A                      A                      A
 Frequencies --   1377.2187              1417.6767              3792.3400
 Red. masses --     12.9730                16.5596                 1.0659
 Frc consts  --     14.4976                19.6090                 9.0316
 IR Inten    --    310.4830               214.2075               237.1789

 - Thermochemistry -
 -------------------
 Temperature   298.150 Kelvin.  Pressure   1.00000 Atm.
 Atom     1 has atomic number  6 and mass  12.00000

 Molecular mass:   199.95666 amu.
 Principal axes and moments of inertia in atomic units:
                           1         2         3
     Eigenvalues --  1219.966212268.271922336.83999
           X           -0.04427   0.99808   0.04335
           Y            0.92992   0.05702  -0.36333
           Z            0.36510  -0.02422   0.93065
 This molecule is an asymmetric top.
 Rotational symmetry number  1.
 Warning -- assumption of classical behavior for rotation
           may cause significant error
 Rotational temperatures (Kelvin)      0.07100     0.03818     0.03706
 Rotational constants (GHZ):           1.47934     0.79565     0.77230
    1 imaginary frequencies ignored.
 Zero-point vibrational energy     126956.0 (Joules/Mol)
                                   30.34322 (Kcal/Mol)
 Warning -- explicit consideration of  17 degrees of freedom as
           vibrations may cause significant error
 Vibrational temperatures:     56.18    98.23   132.15   202.35   243.35
          (Kelvin)            331.18   352.45   401.86   433.74   467.08
                              494.76   629.88   663.72   696.03   738.26
                              857.76   879.15   912.14  1111.08  1301.36
                             1401.15  1559.72  1641.10  1728.31  1853.02
                             1875.03  1981.51  2039.72  5456.33

 Zero-point correction=                           0.048355 (Hartree/Particle)
 Thermal correction to Energy=                    0.059216
 Thermal correction to Enthalpy=                  0.060161
 Thermal correction to Gibbs Free Energy=         0.010556
 Sum of electronic and zero-point Energies=          -1199.625926
 Sum of electronic and thermal Energies=             -1199.615065
 Sum of electronic and thermal Enthalpies=           -1199.614120
 Sum of electronic and thermal Free Energies=        -1199.663725

                     E (Thermal)             CV                S
                      KCal/Mol        Cal/Mol-Kelvin    Cal/Mol-Kelvin
 Total                   37.159             36.921            104.402
 Electronic               0.000              0.000              0.000
 Translational            0.889              2.981             41.783
 Rotational               0.889              2.981             30.248
 Vibrational             35.381             30.959             32.370
 Vibration     1          0.594              1.981              5.307
 Vibration     2          0.598              1.969              4.203
 Vibration     3          0.602              1.955              3.620
 Vibration     4          0.615              1.913              2.795
 Vibration     5          0.625              1.880              2.445
 Vibration     6          0.652              1.795              1.878
 Vibration     7          0.660              1.771              1.767
 Vibration     8          0.680              1.712              1.538
 Vibration     9          0.693              1.671              1.409
 Vibration    10          0.709              1.626              1.287
 Vibration    11          0.723              1.588              1.194
 Vibration    12          0.798              1.388              0.834
 Vibration    13          0.819              1.336              0.762
 Vibration    14          0.840              1.286              0.700
 Vibration    15          0.868              1.221              0.626
 Vibration    16          0.954              1.040              0.456
 Vibration    17          0.970              1.008              0.431

 Normal termination of Gaussian 16 at Sat May 24 08:37:30 2025.
