 Gaussian 16, Revision C.01,
 Gaussian 16:  ES64L-G16RevC.01  3-Jul-2019

 ----------------------------------------------------------------------
 #P M062X/Def2TZVPP Symm(None) scf(xqc) pop(None) freq opt(CalcFC, Tigh
 t)
 ----------------------------------------------------------------------

 ------------------------------
 Gaussian input prepared by ASE
 ------------------------------
 Symbolic Z-matrix:
 Charge =  0 Multiplicity = 1

 SCF Done:  E(RM062X) =  -1199.81778598     A.U. after   15 cycles
 SCF Done:  E(RM062X) =  -1199.82911731     A.U. after   13 cycles
 SCF Done:  E(RM062X) =  -1199.82398222     A.U. after   14 cycles
 SCF Done:  E(RM062X) =  -1199.83095446     A.U. after   13 cycles
 SCF Done:  E(RM062X) =  -1199.80147628     A.U. after   15 cycles
 SCF Done:  E(RM062X) =  -1199.83332040     A.U. after   12 cycles
 SCF Done:  E(RM062X) =  -1199.83653206     A.U. after   14 cycles
 SCF Done:  E(RM062X) =  -1199.83820813     A.U. after   11 cycles
 SCF Done:  E(RM062X) =  -1199.84077524     A.U. after   13 cycles
 SCF Done:  E(RM062X) =  -1199.84135771     A.U. after   12 cycles
 SCF Done:  E(RM062X) =  -1199.84339088     A.U. after   11 cycles
 SCF Done:  E(RM062X) =  -1199.84353176     A.U. after   11 cycles
 SCF Done:  E(RM062X) =  -1199.84354917     A.U. after   10 cycles
 SCF Done:  E(RM062X) =  -1199.84356710     A.U. after    9 cycles
 SCF Done:  E(RM062X) =  -1199.84356807     A.U. after    8 cycles
 SCF Done:  E(RM062X) =  -1199.84356830     A.U. after    6 cycles
 SCF Done:  E(RM062X) =  -1199.84356833     A.U. after    6 cycles
 SCF Done:  E(RM062X) =  -1199.84356833     A.U. after    4 cycles
 SCF Done:  E(RM062X) =  -1199.84356833     A.U. after    3 cycles
 Optimization completed.
    -- Stationary point found.
 Normal termination of Gaussian 16 at Sat May 24 06:23:45 2025.

 ---------------------------------------------------------------------
 #P Geom=AllCheck Guess=TCheck SCRF=Check GenChk RM062X/def2TZVPP Freq
 ---------------------------------------------------------------------

 Structure from the checkpoint file:  "/tmp/Gau-88048.chk"
 ------------------------------
 Gaussian input prepared by ASE
 ------------------------------
 Charge =  0 Multiplicity = 1

                          Input orientation:
 ---------------------------------------------------------------------
 Center     Atomic      Atomic             Coordinates (Angstroms)
 Number     Number       Type             X           Y           Z
 ---------------------------------------------------------------------
      1          6           0        0.213861   -0.189958    1.536081
      2          6           0       -0.114897   -0.069449    0.005140
      3          9           0       -0.725780   -1.101675   -0.516751
      4          9           0       -0.754653    1.024362   -0.325098
      5         16           0        1.811029   -0.026695   -0.121706
      6          8           0        1.605194   -0.140151    1.492186
      7          8           0        3.162760   -0.074933   -0.594035
      8          8           0        1.629101    1.600404   -0.215995
      9          9           0        1.611879   -1.667539   -0.290417
     10          9           0       -0.269346    0.820672    2.238776
     11          9           0       -0.206041   -1.323954    2.066314
     12          1           0        2.504419    1.997857   -0.302086
 ---------------------------------------------------------------------

 SCF Done:  E(RM062X) =  -1199.84356833     A.U. after    1 cycles

 Isotropic polarizability for W=    0.000000       56.21 Bohr**3.
 End of Minotr F.D. properties file   721 does not exist.

                      1                      2                      3
                      A                      A                      A
 Frequencies --     60.4930               105.0918               205.6315
 Red. masses --     13.3517                15.0734                18.7538
 Frc consts  --      0.0288                 0.0981                 0.4672
 IR Inten    --      0.9516                 0.3627                 0.2779

                      4                      5                      6
                      A                      A                      A
 Frequencies --    249.7630               274.6052               284.1887
 Red. masses --     16.9879                16.6537                15.4233
 Frc consts  --      0.6244                 0.7399                 0.7339
 IR Inten    --      0.3136                 2.3976                 2.5338

                      7                      8                      9
                      A                      A                      A
 Frequencies --    304.1015               353.0308               374.9919
 Red. masses --      7.5429                14.3392                 6.5549
 Frc consts  --      0.4110                 1.0529                 0.5431
 IR Inten    --      3.9250                 5.5656                 7.6520

                     10                     11                     12
                      A                      A                      A
 Frequencies --    446.1768               475.7194               500.4393
 Red. masses --      1.7621                11.6332                14.4960
 Frc consts  --      0.2067                 1.5511                 2.1390
 IR Inten    --     27.5329                 1.7471                39.8241

                     13                     14                     15
                      A                      A                      A
 Frequencies --    539.5001               585.4848               604.1216
 Red. masses --      4.0586                15.6405                10.4036
 Frc consts  --      0.6960                 3.1589                 2.2371
 IR Inten    --     80.4025                48.9266                10.3880

                     16                     17                     18
                      A                      A                      A
 Frequencies --    635.8712               642.0168               657.0005
 Red. masses --     16.7838                10.9130                12.0257
 Frc consts  --      3.9983                 2.6503                 3.0584
 IR Inten    --      3.4556                29.6000                28.1875

                     19                     20                     21
                      A                      A                      A
 Frequencies --    742.9509               795.1696               852.9451
 Red. masses --     15.8670                20.3587                16.3194
 Frc consts  --      5.1602                 7.5844                 6.9951
 IR Inten    --      7.2099               406.5082               119.1508

                     22                     23                     24
                      A                      A                      A
 Frequencies --    903.3908              1119.2595              1162.1716
 Red. masses --     13.2105                 2.2613                 2.7752
 Frc consts  --      6.3522                 1.6691                 2.2084
 IR Inten    --    141.6471               115.2937               181.0080

                     25                     26                     27
                      A                      A                      A
 Frequencies --   1262.7019              1306.3598              1324.2095
 Red. masses --     10.2670                13.2327                 9.0847
 Frc consts  --      9.6449                13.3053                 9.3858
 IR Inten    --    188.0118               305.3284               329.4986

                     28                     29                     30
                      A                      A                      A
 Frequencies --   1360.3539              1403.9423              3841.6834
 Red. masses --     11.0062                11.9210                 1.0657
 Frc consts  --     12.0002                13.8440                 9.2669
 IR Inten    --    135.0172               127.2636               160.1258

 - Thermochemistry -
 -------------------
 Temperature   298.150 Kelvin.  Pressure   1.00000 Atm.
 Atom     1 has atomic number  6 and mass  12.00000

 Molecular mass:   199.95666 amu.
 Principal axes and moments of inertia in atomic units:
                           1         2         3
     Eigenvalues --  1255.230901869.458661936.77253
           X            0.84885  -0.09793   0.51948
           Y            0.04561   0.99259   0.11260
           Z           -0.52666  -0.07189   0.84703
 This molecule is an asymmetric top.
 Rotational symmetry number  1.
 Warning -- assumption of classical behavior for rotation
           may cause significant error
 Rotational temperatures (Kelvin)      0.06900     0.04633     0.04472
 Rotational constants (GHZ):           1.43778     0.96538     0.93183
 Zero-point vibrational energy     139803.8 (Joules/Mol)
                                   33.41390 (Kcal/Mol)
 Warning -- explicit consideration of  15 degrees of freedom as
           vibrations may cause significant error
 Vibrational temperatures:     87.04   151.20   295.86   359.35   395.10
          (Kelvin)            408.88   437.53   507.93   539.53   641.95
                              684.45   720.02   776.22   842.38   869.20
                              914.88   923.72   945.28  1068.94  1144.07
                             1227.20  1299.78  1610.36  1672.11  1816.75
                             1879.56  1905.24  1957.25  2019.96  5527.33

 Zero-point correction=                           0.053248 (Hartree/Particle)
 Thermal correction to Energy=                    0.062712
 Thermal correction to Enthalpy=                  0.063656
 Thermal correction to Gibbs Free Energy=         0.018145
 Sum of electronic and zero-point Energies=          -1199.790320
 Sum of electronic and thermal Energies=             -1199.780857
 Sum of electronic and thermal Enthalpies=           -1199.779912
 Sum of electronic and thermal Free Energies=        -1199.825424

                     E (Thermal)             CV                S
                      KCal/Mol        Cal/Mol-Kelvin    Cal/Mol-Kelvin
 Total                   39.352             35.282             95.787
 Electronic               0.000              0.000              0.000
 Translational            0.889              2.981             41.783
 Rotational               0.889              2.981             29.898
 Vibrational             37.575             29.320             24.105
 Vibration     1          0.597              1.973              4.441
 Vibration     2          0.605              1.945              3.358
 Vibration     3          0.640              1.832              2.082
 Vibration     4          0.663              1.763              1.732
 Vibration     5          0.677              1.720              1.567
 Vibration     6          0.683              1.703              1.508
 Vibration     7          0.695              1.666              1.394
 Vibration     8          0.729              1.569              1.153
 Vibration     9          0.746              1.523              1.059
 Vibration    10          0.805              1.369              0.807
 Vibration    11          0.832              1.304              0.722
 Vibration    12          0.856              1.249              0.657
 Vibration    13          0.895              1.163              0.566
 Vibration    14          0.942              1.063              0.475
 Vibration    15          0.963              1.023              0.443

                           ! Non-Optimized Parameters !
 Normal termination of Gaussian 16 at Sat May 24 06:28:37 2025.
