 Gaussian 16, Revision C.01,
 Gaussian 16:  ES64L-G16RevC.01  3-Jul-2019

 ----------------------------------------------------------------------
 #P M062X/Def2TZVPP Symm(None) scf(xqc) pop(None) freq opt(CalcFC, Tigh
 t)
 ----------------------------------------------------------------------

 ------------------------------
 Gaussian input prepared by ASE
 ------------------------------
 Symbolic Z-matrix:
 Charge =  0 Multiplicity = 1

 SCF Done:  E(RM062X) =  -1199.76282607     A.U. after   15 cycles
 SCF Done:  E(RM062X) =  -1199.77004381     A.U. after   14 cycles
 SCF Done:  E(RM062X) =  -1199.76856132     A.U. after   15 cycles
 SCF Done:  E(RM062X) =  -1199.77163097     A.U. after   14 cycles
 SCF Done:  E(RM062X) =  -1199.77216670     A.U. after   14 cycles
 SCF Done:  E(RM062X) =  -1199.77241242     A.U. after   13 cycles
 SCF Done:  E(RM062X) =  -1199.69138670     A.U. after   15 cycles
 SCF Done:  E(RM062X) =  -1199.77390877     A.U. after   15 cycles
 SCF Done:  E(RM062X) =  -1199.77372826     A.U. after   14 cycles
 SCF Done:  E(RM062X) =  -1199.77190819     A.U. after   14 cycles
 SCF Done:  E(RM062X) =  -1199.77507611     A.U. after   13 cycles
 SCF Done:  E(RM062X) =  -1199.77513599     A.U. after   11 cycles
 SCF Done:  E(RM062X) =  -1199.77516061     A.U. after   12 cycles
 SCF Done:  E(RM062X) =  -1199.77516581     A.U. after   10 cycles
 SCF Done:  E(RM062X) =  -1199.77516607     A.U. after    9 cycles
 SCF Done:  E(RM062X) =  -1199.77516609     A.U. after    6 cycles
 SCF Done:  E(RM062X) =  -1199.77516609     A.U. after    5 cycles
 SCF Done:  E(RM062X) =  -1199.77516609     A.U. after    4 cycles
 SCF Done:  E(RM062X) =  -1199.77516609     A.U. after    4 cycles
 Optimization completed.
    -- Stationary point found.
 Normal termination of Gaussian 16 at Sat May 24 06:48:38 2025.

 ---------------------------------------------------------------------
 #P Geom=AllCheck Guess=TCheck SCRF=Check GenChk RM062X/def2TZVPP Freq
 ---------------------------------------------------------------------

 Structure from the checkpoint file:  "/tmp/Gau-237258.chk"
 ------------------------------
 Gaussian input prepared by ASE
 ------------------------------
 Charge =  0 Multiplicity = 1

                          Input orientation:
 ---------------------------------------------------------------------
 Center     Atomic      Atomic             Coordinates (Angstroms)
 Number     Number       Type             X           Y           Z
 ---------------------------------------------------------------------
      1          6           0       -0.735933   -1.214026    0.363350
      2          6           0        0.001134    0.023829   -0.164395
      3          9           0       -0.313768    0.180612   -1.459482
      4          9           0       -0.446114    1.106466    0.512721
      5         16           0        1.931551   -0.101634   -0.107406
      6          8           0        1.970846   -0.515127    1.397822
      7          8           0        3.346239   -0.183571    0.908366
      8          8           0        2.029157    1.469340   -0.316731
      9          9           0       -0.188092   -2.302696   -0.173290
     10          9           0       -0.643256   -1.290271    1.681637
     11          9           0       -2.018422   -1.175410    0.029386
     12          1           0        1.370561    1.954790    0.204485
 ---------------------------------------------------------------------

 SCF Done:  E(RM062X) =  -1199.77516609     A.U. after    1 cycles

 Isotropic polarizability for W=    0.000000       57.98 Bohr**3.
 End of Minotr F.D. properties file   721 does not exist.

                      1                      2                      3
                      A                      A                      A
 Frequencies --     51.5893                72.9203               122.7461
 Red. masses --     15.4198                14.9914                16.5485
 Frc consts  --      0.0242                 0.0470                 0.1469
 IR Inten    --      0.5310                 0.1031                 0.7876

                      4                      5                      6
                      A                      A                      A
 Frequencies --    162.5999               220.4612               229.8257
 Red. masses --     17.0487                14.5848                17.5778
 Frc consts  --      0.2656                 0.4177                 0.5470
 IR Inten    --      2.5869                 2.6665                 2.6173

                      7                      8                      9
                      A                      A                      A
 Frequencies --    256.8138               297.6704               306.5878
 Red. masses --      9.1892                 2.0309                 6.5297
 Frc consts  --      0.3571                 0.1060                 0.3616
 IR Inten    --      7.1434                26.0249                24.1262

                     10                     11                     12
                      A                      A                      A
 Frequencies --    321.2648               378.8332               404.5634
 Red. masses --      3.2754                10.9131                13.1119
 Frc consts  --      0.1992                 0.9228                 1.2644
 IR Inten    --     24.9974                 3.4436                 9.9553

                     13                     14                     15
                      A                      A                      A
 Frequencies --    436.4301               487.7299               503.2624
 Red. masses --      9.1342                14.2327                11.5557
 Frc consts  --      1.0251                 1.9948                 1.7244
 IR Inten    --     12.3167               189.6970                78.8707

                     16                     17                     18
                      A                      A                      A
 Frequencies --    544.9365               605.7683               643.2977
 Red. masses --     17.9084                17.3954                16.2005
 Frc consts  --      3.1333                 3.7610                 3.9501
 IR Inten    --      3.3991                 4.6911                12.6738

                     19                     20                     21
                      A                      A                      A
 Frequencies --    765.4952               861.8521               905.8546
 Red. masses --     16.8067                16.0764                17.8125
 Frc consts  --      5.8025                 7.0357                 8.6118
 IR Inten    --     18.9309                88.2849                92.9230

                     22                     23                     24
                      A                      A                      A
 Frequencies --    996.3341              1073.0036              1173.1276
 Red. masses --     13.3618                15.5231                 3.8862
 Frc consts  --      7.8149                10.5301                 3.1511
 IR Inten    --     61.2727                89.7790               229.1405

                     25                     26                     27
                      A                      A                      A
 Frequencies --   1196.0768              1227.1701              1274.1071
 Red. masses --      2.2965                 3.1987                10.8887
 Frc consts  --      1.9357                 2.8382                10.4145
 IR Inten    --     40.5784               101.7645               234.1942

                     28                     29                     30
                      A                      A                      A
 Frequencies --   1292.0953              1394.6096              3754.8791
 Red. masses --     13.1277                12.5075                 1.0654
 Frc consts  --     12.9130                14.3326                 8.8506
 IR Inten    --    288.8945               132.4664               144.1432

 - Thermochemistry -
 -------------------
 Temperature   298.150 Kelvin.  Pressure   1.00000 Atm.
 Atom     1 has atomic number  6 and mass  12.00000

 Molecular mass:   199.95666 amu.
 Principal axes and moments of inertia in atomic units:
                           1         2         3
     Eigenvalues --  1100.200942233.586672607.70288
           X            0.92797  -0.27388  -0.25271
           Y            0.37002   0.75776   0.53748
           Z            0.04429  -0.59228   0.80452
 This molecule is an asymmetric top.
 Rotational symmetry number  1.
 Warning -- assumption of classical behavior for rotation
           may cause significant error
 Rotational temperatures (Kelvin)      0.07873     0.03878     0.03321
 Rotational constants (GHZ):           1.64037     0.80800     0.69208
 Zero-point vibrational energy     131361.4 (Joules/Mol)
                                   31.39612 (Kcal/Mol)
 Warning -- explicit consideration of  17 degrees of freedom as
           vibrations may cause significant error
 Vibrational temperatures:     74.23   104.92   176.60   233.94   317.19
          (Kelvin)            330.67   369.50   428.28   441.11   462.23
                              545.06   582.08   627.93   701.73   724.08
                              784.04   871.57   925.56  1101.38  1240.01
                             1303.32  1433.50  1543.81  1687.87  1720.89
                             1765.62  1833.16  1859.04  2006.53  5402.43

 Zero-point correction=                           0.050033 (Hartree/Particle)
 Thermal correction to Energy=                    0.060755
 Thermal correction to Enthalpy=                  0.061699
 Thermal correction to Gibbs Free Energy=         0.012995
 Sum of electronic and zero-point Energies=          -1199.725133
 Sum of electronic and thermal Energies=             -1199.714412
 Sum of electronic and thermal Enthalpies=           -1199.713467
 Sum of electronic and thermal Free Energies=        -1199.762171

                     E (Thermal)             CV                S
                      KCal/Mol        Cal/Mol-Kelvin    Cal/Mol-Kelvin
 Total                   38.124             37.531            102.506
 Electronic               0.000              0.000              0.000
 Translational            0.889              2.981             41.783
 Rotational               0.889              2.981             30.239
 Vibrational             36.347             31.569             30.483
 Vibration     1          0.596              1.977              4.756
 Vibration     2          0.599              1.967              4.073
 Vibration     3          0.610              1.930              3.057
 Vibration     4          0.623              1.888              2.519
 Vibration     5          0.647              1.810              1.955
 Vibration     6          0.652              1.795              1.880
 Vibration     7          0.666              1.751              1.683
 Vibration     8          0.691              1.678              1.430
 Vibration     9          0.697              1.661              1.381
 Vibration    10          0.707              1.633              1.304
 Vibration    11          0.749              1.515              1.044
 Vibration    12          0.770              1.460              0.946
 Vibration    13          0.797              1.391              0.838
 Vibration    14          0.844              1.277              0.690
 Vibration    15          0.859              1.243              0.650
 Vibration    16          0.900              1.151              0.555
 Vibration    17          0.964              1.020              0.440

 Optimization completed.
    -- Stationary point found.
 Normal termination of Gaussian 16 at Sat May 24 06:52:49 2025.
