 Gaussian 16, Revision C.01,
 Gaussian 16:  ES64L-G16RevC.01  3-Jul-2019

 ----------------------------------------------------------------------
 #P M062X/Def2TZVPP Symm(None) scf(xqc) pop(None) freq opt(CalcFC, Tigh
 t)
 ----------------------------------------------------------------------

 ------------------------------
 Gaussian input prepared by ASE
 ------------------------------
 Symbolic Z-matrix:
 Charge =  0 Multiplicity = 1

 SCF Done:  E(RM062X) =  -1199.76787118     A.U. after   14 cycles
 SCF Done:  E(RM062X) =  -1199.77353099     A.U. after   14 cycles
 SCF Done:  E(RM062X) =  -1199.77442467     A.U. after   14 cycles
 SCF Done:  E(RM062X) =  -1199.77446492     A.U. after   12 cycles
 SCF Done:  E(RM062X) =  -1199.77446704     A.U. after   10 cycles
 SCF Done:  E(RM062X) =  -1199.77446744     A.U. after    9 cycles
 SCF Done:  E(RM062X) =  -1199.77446760     A.U. after   10 cycles
 SCF Done:  E(RM062X) =  -1199.77446761     A.U. after    6 cycles
 SCF Done:  E(RM062X) =  -1199.77446761     A.U. after    4 cycles
 Optimization completed.
    -- Stationary point found.
 Normal termination of Gaussian 16 at Sat May 24 06:34:45 2025.

 ---------------------------------------------------------------------
 #P Geom=AllCheck Guess=TCheck SCRF=Check GenChk RM062X/def2TZVPP Freq
 ---------------------------------------------------------------------

 Structure from the checkpoint file:  "/tmp/Gau-237256.chk"
 ------------------------------
 Gaussian input prepared by ASE
 ------------------------------
 Charge =  0 Multiplicity = 1

                          Input orientation:
 ---------------------------------------------------------------------
 Center     Atomic      Atomic             Coordinates (Angstroms)
 Number     Number       Type             X           Y           Z
 ---------------------------------------------------------------------
      1          6           0       -0.750847    0.333331   -1.230863
      2          6           0       -0.035912    0.067004    0.099925
      3          9           0       -0.404985    1.032832    0.974965
      4          9           0       -0.456294   -1.113414    0.568093
      5         16           0        1.895515   -0.023341   -0.053715
      6          8           0        2.019614   -0.670615    1.366565
      7          8           0        3.358916   -0.240484    0.859917
      8          8           0        1.992999    1.562029   -0.038730
      9          9           0       -0.423951    1.533948   -1.697463
     10          9           0       -0.382319   -0.583995   -2.119381
     11          9           0       -2.066213    0.280559   -1.082232
     12          1           0        1.362684    1.967405    0.576495
 ---------------------------------------------------------------------

 SCF Done:  E(RM062X) =  -1199.77446761     A.U. after    1 cycles

 Isotropic polarizability for W=    0.000000       57.98 Bohr**3.
 End of Minotr F.D. properties file   721 does not exist.

                      1                      2                      3
                      A                      A                      A
 Frequencies --     33.5691                67.4425               112.6751
 Red. masses --     13.6599                16.8408                17.1636
 Frc consts  --      0.0091                 0.0451                 0.1284
 IR Inten    --      0.6589                 0.4522                 1.9085

                      4                      5                      6
                      A                      A                      A
 Frequencies --    168.7293               198.9716               229.7424
 Red. masses --     16.1933                10.8342                14.7840
 Frc consts  --      0.2716                 0.2527                 0.4598
 IR Inten    --      0.8539                 7.8295                 2.5179

                      7                      8                      9
                      A                      A                      A
 Frequencies --    264.2991               282.0770               323.9676
 Red. masses --     15.6549                 7.9788                12.2286
 Frc consts  --      0.6443                 0.3740                 0.7562
 IR Inten    --      0.5435                 0.9928                 5.6066

                     10                     11                     12
                      A                      A                      A
 Frequencies --    330.1530               376.5167               410.2213
 Red. masses --      1.3763                 9.9220                11.3788
 Frc consts  --      0.0884                 0.8287                 1.1282
 IR Inten    --     75.4027                 2.5875                11.1869

                     13                     14                     15
                      A                      A                      A
 Frequencies --    444.8639               483.2201               502.3566
 Red. masses --      9.1953                13.0894                11.4381
 Frc consts  --      1.0722                 1.8008                 1.7007
 IR Inten    --      8.2232               137.0573               135.3318

                     16                     17                     18
                      A                      A                      A
 Frequencies --    544.9002               606.6259               641.3972
 Red. masses --     17.1987                17.0461                16.9141
 Frc consts  --      3.0087                 3.6959                 4.0997
 IR Inten    --     16.7524                 4.8278                23.5819

                     19                     20                     21
                      A                      A                      A
 Frequencies --    764.3135               858.3607               905.8582
 Red. masses --     16.7007                16.1052                17.8430
 Frc consts  --      5.7482                 6.9913                 8.6266
 IR Inten    --     17.7996                80.5170                97.8433

                     22                     23                     24
                      A                      A                      A
 Frequencies --    988.1502              1075.6455              1169.1332
 Red. masses --     13.2143                16.7026                 4.6948
 Frc consts  --      7.6022                11.3860                 3.7809
 IR Inten    --     62.6555                51.1853               157.5589

                     25                     26                     27
                      A                      A                      A
 Frequencies --   1200.1351              1241.6583              1279.9834
 Red. masses --      1.6189                 5.4447                12.5224
 Frc consts  --      1.3739                 4.9457                12.0878
 IR Inten    --    162.9946                49.0347               303.1522

                     28                     29                     30
                      A                      A                      A
 Frequencies --   1283.5171              1391.6249              3761.7903
 Red. masses --     12.0822                12.4606                 1.0655
 Frc consts  --     11.7274                14.2178                 8.8840
 IR Inten    --    212.1476               141.5821               144.4622

 - Thermochemistry -
 -------------------
 Temperature   298.150 Kelvin.  Pressure   1.00000 Atm.
 Atom     1 has atomic number  6 and mass  12.00000

 Molecular mass:   199.95666 amu.
 Principal axes and moments of inertia in atomic units:
                           1         2         3
     Eigenvalues --  1002.281332474.409962642.26817
           X            0.87691   0.40311  -0.26178
           Y           -0.08872   0.67103   0.73611
           Z            0.47240  -0.62227   0.62419
 This molecule is an asymmetric top.
 Rotational symmetry number  1.
 Warning -- assumption of classical behavior for rotation
           may cause significant error
 Rotational temperatures (Kelvin)      0.08642     0.03500     0.03278
 Rotational constants (GHZ):           1.80063     0.72936     0.68303
 Zero-point vibrational energy     131241.7 (Joules/Mol)
                                   31.36752 (Kcal/Mol)
 Warning -- explicit consideration of  17 degrees of freedom as
           vibrations may cause significant error
 Vibrational temperatures:     48.30    97.03   162.11   242.76   286.28
          (Kelvin)            330.55   380.27   405.85   466.12   475.02
                              541.72   590.22   640.06   695.25   722.78
                              783.99   872.80   922.83  1099.68  1234.99
                             1303.33  1421.73  1547.61  1682.12  1726.73
                             1786.47  1841.61  1846.69  2002.24  5412.38

 Zero-point correction=                           0.049987 (Hartree/Particle)
 Thermal correction to Energy=                    0.060774
 Thermal correction to Enthalpy=                  0.061718
 Thermal correction to Gibbs Free Energy=         0.012444
 Sum of electronic and zero-point Energies=          -1199.724480
 Sum of electronic and thermal Energies=             -1199.713694
 Sum of electronic and thermal Enthalpies=           -1199.712750
 Sum of electronic and thermal Free Energies=        -1199.762023

                     E (Thermal)             CV                S
                      KCal/Mol        Cal/Mol-Kelvin    Cal/Mol-Kelvin
 Total                   38.136             37.533            103.705
 Electronic               0.000              0.000              0.000
 Translational            0.889              2.981             41.783
 Rotational               0.889              2.981             30.261
 Vibrational             36.359             31.572             31.660
 Vibration     1          0.594              1.983              5.606
 Vibration     2          0.598              1.970              4.227
 Vibration     3          0.607              1.939              3.222
 Vibration     4          0.625              1.881              2.450
 Vibration     5          0.637              1.841              2.143
 Vibration     6          0.652              1.796              1.881
 Vibration     7          0.671              1.738              1.633
 Vibration     8          0.681              1.707              1.521
 Vibration     9          0.709              1.628              1.290
 Vibration    10          0.713              1.615              1.259
 Vibration    11          0.747              1.520              1.053
 Vibration    12          0.774              1.448              0.926
 Vibration    13          0.804              1.372              0.811
 Vibration    14          0.839              1.287              0.701
 Vibration    15          0.858              1.245              0.652
 Vibration    16          0.900              1.151              0.555
 Vibration    17          0.965              1.018              0.438

 Optimization completed.
    -- Stationary point found.
 Normal termination of Gaussian 16 at Sat May 24 06:39:24 2025.
