 Gaussian 16, Revision C.01,
 Gaussian 16:  ES64L-G16RevC.01  3-Jul-2019

 ----------------------------------------------------------------------
 #P M062X/Def2TZVPP Symm(None) scf(xqc) pop(None) freq opt(CalcFC, Tigh
 t)
 ----------------------------------------------------------------------

 ------------------------------
 Gaussian input prepared by ASE
 ------------------------------
 Symbolic Z-matrix:
 Charge =  0 Multiplicity = 1

 SCF Done:  E(RM062X) =  -1199.76597760     A.U. after   14 cycles
 SCF Done:  E(RM062X) =  -1199.77026393     A.U. after   14 cycles
 SCF Done:  E(RM062X) =  -1199.72673570     A.U. after   15 cycles
 SCF Done:  E(RM062X) =  -1199.77141911     A.U. after   15 cycles
 SCF Done:  E(RM062X) =  -1199.77224442     A.U. after   14 cycles
 SCF Done:  E(RM062X) =  -1199.77269279     A.U. after   14 cycles
 SCF Done:  E(RM062X) =  -1199.77282547     A.U. after   12 cycles
 SCF Done:  E(RM062X) =  -1199.77284535     A.U. after   13 cycles
 SCF Done:  E(RM062X) =  -1199.77284700     A.U. after   10 cycles
 SCF Done:  E(RM062X) =  -1199.77284796     A.U. after   10 cycles
 SCF Done:  E(RM062X) =  -1199.77368683     A.U. after   12 cycles
 SCF Done:  E(RM062X) =  -1199.77374578     A.U. after   12 cycles
 SCF Done:  E(RM062X) =  -1199.77373945     A.U. after   12 cycles
 SCF Done:  E(RM062X) =  -1199.77375722     A.U. after   12 cycles
 SCF Done:  E(RM062X) =  -1199.77376282     A.U. after   10 cycles
 SCF Done:  E(RM062X) =  -1199.77376303     A.U. after    8 cycles
 SCF Done:  E(RM062X) =  -1199.77376305     A.U. after    7 cycles
 SCF Done:  E(RM062X) =  -1199.77376305     A.U. after    5 cycles
 SCF Done:  E(RM062X) =  -1199.77376305     A.U. after    3 cycles
 Optimization completed.
    -- Stationary point found.
 Normal termination of Gaussian 16 at Sat May 24 06:52:47 2025.

 ---------------------------------------------------------------------
 #P Geom=AllCheck Guess=TCheck SCRF=Check GenChk RM062X/def2TZVPP Freq
 ---------------------------------------------------------------------

 Structure from the checkpoint file:  "/tmp/Gau-134734.chk"
 ------------------------------
 Gaussian input prepared by ASE
 ------------------------------
 Charge =  0 Multiplicity = 1

                          Input orientation:
 ---------------------------------------------------------------------
 Center     Atomic      Atomic             Coordinates (Angstroms)
 Number     Number       Type             X           Y           Z
 ---------------------------------------------------------------------
      1          6           0       -0.765056    0.880550    0.920734
      2          6           0       -0.016305   -0.095693   -0.000050
      3          9           0       -0.357472   -1.343547    0.364414
      4          9           0       -0.433671    0.111668   -1.259232
      5         16           0        1.911559   -0.088086   -0.034085
      6          8           0        2.044253   -0.084202    1.521626
      7          8           0        3.388326    0.088039    0.885539
      8          8           0        1.990571    1.363278   -0.671620
      9          9           0       -0.564651    0.582763    2.190834
     10          9           0       -0.314064    2.131842    0.705839
     11          9           0       -2.064267    0.870622    0.674984
     12          1           0        1.484679    2.025546   -0.177655
 ---------------------------------------------------------------------

 SCF Done:  E(RM062X) =  -1199.77376305     A.U. after    1 cycles

 Isotropic polarizability for W=    0.000000       58.10 Bohr**3.
 End of Minotr F.D. properties file   721 does not exist.

                      1                      2                      3
                      A                      A                      A
 Frequencies --     45.4141                84.5088               131.1990
 Red. masses --     15.9195                14.5606                13.9587
 Frc consts  --      0.0193                 0.0613                 0.1416
 IR Inten    --      0.5912                 0.9335                 0.4765

                      4                      5                      6
                      A                      A                      A
 Frequencies --    180.4184               199.8307               209.5136
 Red. masses --     12.3082                13.0799                 1.9074
 Frc consts  --      0.2361                 0.3077                 0.0493
 IR Inten    --      3.9469                 4.5256                53.5395

                      7                      8                      9
                      A                      A                      A
 Frequencies --    239.9486               279.0548               280.2301
 Red. masses --      2.6509                 9.5775                11.3788
 Frc consts  --      0.0899                 0.4394                 0.5265
 IR Inten    --     28.6552                15.2824                 4.1982

                     10                     11                     12
                      A                      A                      A
 Frequencies --    326.3868               363.8588               415.6792
 Red. masses --     15.0606                16.0026                12.8019
 Frc consts  --      0.9453                 1.2483                 1.3033
 IR Inten    --      3.1794                 2.4633                10.5734

                     13                     14                     15
                      A                      A                      A
 Frequencies --    439.0673               463.6960               489.0360
 Red. masses --     11.0575                16.1065                16.2865
 Frc consts  --      1.2559                 2.0404                 2.2949
 IR Inten    --     27.4777                26.3229               219.3096

                     16                     17                     18
                      A                      A                      A
 Frequencies --    543.2501               601.8718               646.8114
 Red. masses --     17.9007                17.6656                15.7227
 Frc consts  --      3.1126                 3.7704                 3.8755
 IR Inten    --      5.2789                 2.5227                 2.6453

                     19                     20                     21
                      A                      A                      A
 Frequencies --    764.8943               860.4411               906.7332
 Red. masses --     16.8133                14.2839                17.6482
 Frc consts  --      5.7957                 6.2307                 8.5489
 IR Inten    --     13.3441                90.4213                77.4995

                     22                     23                     24
                      A                      A                      A
 Frequencies --   1008.8157              1070.6026              1163.6690
 Red. masses --     12.2204                13.3865                 2.0074
 Frc consts  --      7.3276                 9.0401                 1.6016
 IR Inten    --     38.1392                89.0200               242.6206

                     25                     26                     27
                      A                      A                      A
 Frequencies --   1190.8566              1231.5158              1245.9970
 Red. masses --      3.3820                 9.6989                 5.7770
 Frc consts  --      2.8258                 8.6667                 5.2843
 IR Inten    --     87.3860               108.0537               133.3040

                     28                     29                     30
                      A                      A                      A
 Frequencies --   1303.5709              1383.0469              3778.4425
 Red. masses --     12.9205                12.5355                 1.0655
 Frc consts  --     12.9360                14.1275                 8.9623
 IR Inten    --    279.4670               197.0219               194.3323

 - Thermochemistry -
 -------------------
 Temperature   298.150 Kelvin.  Pressure   1.00000 Atm.
 Atom     1 has atomic number  6 and mass  12.00000

 Molecular mass:   199.95666 amu.
 Principal axes and moments of inertia in atomic units:
                           1         2         3
     Eigenvalues --  1135.499062283.240712372.67141
           X            0.98609   0.13233   0.10058
           Y           -0.14390   0.37672   0.91508
           Z           -0.08320   0.91683  -0.39052
 This molecule is an asymmetric top.
 Rotational symmetry number  1.
 Warning -- assumption of classical behavior for rotation
           may cause significant error
 Rotational temperatures (Kelvin)      0.07628     0.03793     0.03650
 Rotational constants (GHZ):           1.58938     0.79043     0.76064
 Zero-point vibrational energy     130682.2 (Joules/Mol)
                                   31.23380 (Kcal/Mol)
 Warning -- explicit consideration of  17 degrees of freedom as
           vibrations may cause significant error
 Vibrational temperatures:     65.34   121.59   188.77   259.58   287.51
          (Kelvin)            301.44   345.23   401.50   403.19   469.60
                              523.51   598.07   631.72   667.16   703.61
                              781.62   865.96   930.62  1100.51  1237.98
                             1304.59  1451.46  1540.36  1674.26  1713.38
                             1771.88  1792.71  1875.55  1989.90  5436.34

 Zero-point correction=                           0.049774 (Hartree/Particle)
 Thermal correction to Energy=                    0.060613
 Thermal correction to Enthalpy=                  0.061557
 Thermal correction to Gibbs Free Energy=         0.012652
 Sum of electronic and zero-point Energies=          -1199.723989
 Sum of electronic and thermal Energies=             -1199.713150
 Sum of electronic and thermal Enthalpies=           -1199.712206
 Sum of electronic and thermal Free Energies=        -1199.761111

                     E (Thermal)             CV                S
                      KCal/Mol        Cal/Mol-Kelvin    Cal/Mol-Kelvin
 Total                   38.035             37.762            102.930
 Electronic               0.000              0.000              0.000
 Translational            0.889              2.981             41.783
 Rotational               0.889              2.981             30.199
 Vibrational             36.258             31.800             30.948
 Vibration     1          0.595              1.979              5.008
 Vibration     2          0.601              1.960              3.783
 Vibration     3          0.612              1.922              2.928
 Vibration     4          0.629              1.866              2.324
 Vibration     5          0.638              1.840              2.135
 Vibration     6          0.642              1.826              2.048
 Vibration     7          0.657              1.779              1.803
 Vibration     8          0.679              1.712              1.539
 Vibration     9          0.680              1.710              1.532
 Vibration    10          0.710              1.623              1.278
 Vibration    11          0.737              1.547              1.106
 Vibration    12          0.779              1.436              0.907
 Vibration    13          0.799              1.385              0.830
 Vibration    14          0.821              1.331              0.755
 Vibration    15          0.845              1.274              0.686
 Vibration    16          0.898              1.154              0.558
 Vibration    17          0.960              1.028              0.446

 Optimization completed.
    -- Stationary point found.
 Normal termination of Gaussian 16 at Sat May 24 06:57:38 2025.
