 Gaussian 16, Revision C.01,
 Gaussian 16:  ES64L-G16RevC.01  3-Jul-2019

 ----------------------------------------------------------------------
 #P M062X/Def2TZVPP Symm(None) scf(xqc) pop(None) freq opt(CalcFC, Tigh
 t)
 ----------------------------------------------------------------------

 ------------------------------
 Gaussian input prepared by ASE
 ------------------------------
 Symbolic Z-matrix:
 Charge =  0 Multiplicity = 1

 SCF Done:  E(RM062X) =  -1199.77158239     A.U. after   14 cycles
 SCF Done:  E(RM062X) =  -1199.77731603     A.U. after   14 cycles
 SCF Done:  E(RM062X) =  -1199.77810518     A.U. after   14 cycles
 SCF Done:  E(RM062X) =  -1199.77841570     A.U. after   14 cycles
 SCF Done:  E(RM062X) =  -1199.77863860     A.U. after   14 cycles
 SCF Done:  E(RM062X) =  -1199.77864318     A.U. after   12 cycles
 SCF Done:  E(RM062X) =  -1199.77865064     A.U. after   12 cycles
 SCF Done:  E(RM062X) =  -1199.77865208     A.U. after   10 cycles
 SCF Done:  E(RM062X) =  -1199.77865228     A.U. after   10 cycles
 SCF Done:  E(RM062X) =  -1199.77865228     A.U. after    7 cycles
 SCF Done:  E(RM062X) =  -1199.77865229     A.U. after    4 cycles
 Optimization completed.
    -- Stationary point found.
 Normal termination of Gaussian 16 at Sat May 24 06:39:45 2025.

 ---------------------------------------------------------------------
 #P Geom=AllCheck Guess=TCheck SCRF=Check GenChk RM062X/def2TZVPP Freq
 ---------------------------------------------------------------------

 Structure from the checkpoint file:  "/tmp/Gau-237257.chk"
 ------------------------------
 Gaussian input prepared by ASE
 ------------------------------
 Charge =  0 Multiplicity = 1

                          Input orientation:
 ---------------------------------------------------------------------
 Center     Atomic      Atomic             Coordinates (Angstroms)
 Number     Number       Type             X           Y           Z
 ---------------------------------------------------------------------
      1          6           0       -0.722224    0.415162   -1.209922
      2          6           0       -0.053662    0.051314    0.128394
      3          9           0       -0.417650    0.937651    1.055948
      4          9           0       -0.495848   -1.167455    0.490140
      5         16           0        1.839858   -0.166990    0.035561
      6          8           0        1.999875   -0.377651    1.572920
      7          8           0        3.350017   -0.132872    0.981636
      8          8           0        1.948301    1.383005   -0.329640
      9          9           0       -0.580701    1.699805   -1.487457
     10          9           0       -0.156631   -0.299904   -2.184947
     11          9           0       -2.016006    0.129960   -1.173962
     12          1           0        2.877281    1.646092   -0.275283
 ---------------------------------------------------------------------

 SCF Done:  E(RM062X) =  -1199.77865229     A.U. after    1 cycles

 Isotropic polarizability for W=    0.000000       58.20 Bohr**3.
 End of Minotr F.D. properties file   721 does not exist.

                      1                      2                      3
                      A                      A                      A
 Frequencies --     36.8567                68.9604               119.8106
 Red. masses --     12.2838                16.4727                15.5590
 Frc consts  --      0.0098                 0.0462                 0.1316
 IR Inten    --      1.2663                 0.4834                 2.0251

                      4                      5                      6
                      A                      A                      A
 Frequencies --    171.2918               208.5617               230.3448
 Red. masses --     13.0552                15.2069                18.5687
 Frc consts  --      0.2257                 0.3897                 0.5805
 IR Inten    --      0.7852                 2.1320                 0.8388

                      7                      8                      9
                      A                      A                      A
 Frequencies --    258.9434               290.9919               321.5696
 Red. masses --      8.9328                15.8781                11.7427
 Frc consts  --      0.3529                 0.7922                 0.7154
 IR Inten    --      8.1327                 2.7708                 0.6696

                     10                     11                     12
                      A                      A                      A
 Frequencies --    372.0727               375.7710               404.2526
 Red. masses --      1.8321                16.4908                 9.5363
 Frc consts  --      0.1494                 1.3720                 0.9182
 IR Inten    --     61.3164                 0.3967                43.9319

                     13                     14                     15
                      A                      A                      A
 Frequencies --    444.2098               483.7564               506.6446
 Red. masses --     13.1583                 2.6684                17.0095
 Frc consts  --      1.5298                 0.3679                 2.5725
 IR Inten    --    178.8764                64.4394                30.6653

                     16                     17                     18
                      A                      A                      A
 Frequencies --    548.3807               607.0529               645.9429
 Red. masses --     17.3204                17.3503                17.2750
 Frc consts  --      3.0688                 3.7671                 4.2467
 IR Inten    --      4.3975                 2.3545                21.6430

                     19                     20                     21
                      A                      A                      A
 Frequencies --    768.7744               872.8021               906.9423
 Red. masses --     16.8424                17.4590                17.0891
 Frc consts  --      5.8648                 7.8361                 8.2819
 IR Inten    --     16.8601                63.0063                77.7870

                     22                     23                     24
                      A                      A                      A
 Frequencies --    995.7742              1068.7522              1178.2413
 Red. masses --     12.4708                12.0983                 1.4082
 Frc consts  --      7.2856                 8.1420                 1.1518
 IR Inten    --     81.4967                32.5688               123.4733

                     25                     26                     27
                      A                      A                      A
 Frequencies --   1189.2189              1256.6192              1268.0866
 Red. masses --      7.9038                 8.0046                10.4869
 Frc consts  --      6.5858                 7.4472                 9.9356
 IR Inten    --    225.4960               202.7614               116.6624

                     28                     29                     30
                      A                      A                      A
 Frequencies --   1295.3580              1389.0924              3816.7684
 Red. masses --     13.0108                12.6094                 1.0651
 Frc consts  --     12.8628                14.3353                 9.1414
 IR Inten    --    283.7376               147.0901               175.8660

 - Thermochemistry -
 -------------------
 Temperature   298.150 Kelvin.  Pressure   1.00000 Atm.
 Atom     1 has atomic number  6 and mass  12.00000

 Molecular mass:   199.95666 amu.
 Principal axes and moments of inertia in atomic units:
                           1         2         3
     Eigenvalues --   988.792662429.847152661.97207
           X            0.86407  -0.46195  -0.19996
           Y           -0.10051  -0.54757   0.83070
           Z            0.49324   0.69769   0.51957
 This molecule is an asymmetric top.
 Rotational symmetry number  1.
 Warning -- assumption of classical behavior for rotation
           may cause significant error
 Rotational temperatures (Kelvin)      0.08760     0.03565     0.03254
 Rotational constants (GHZ):           1.82520     0.74274     0.67797
 Zero-point vibrational energy     132198.4 (Joules/Mol)
                                   31.59617 (Kcal/Mol)
 Warning -- explicit consideration of  17 degrees of freedom as
           vibrations may cause significant error
 Vibrational temperatures:     53.03    99.22   172.38   246.45   300.07
          (Kelvin)            331.41   372.56   418.67   462.67   535.33
                              540.65   581.63   639.12   696.02   728.95
                              789.00   873.41   929.37  1106.09  1255.77
                             1304.89  1432.70  1537.70  1695.23  1711.02
                             1807.99  1824.49  1863.73  1998.59  5491.48

 Zero-point correction=                           0.050352 (Hartree/Particle)
 Thermal correction to Energy=                    0.061040
 Thermal correction to Enthalpy=                  0.061984
 Thermal correction to Gibbs Free Energy=         0.013044
 Sum of electronic and zero-point Energies=          -1199.728301
 Sum of electronic and thermal Energies=             -1199.717612
 Sum of electronic and thermal Enthalpies=           -1199.716668
 Sum of electronic and thermal Free Energies=        -1199.765609

                     E (Thermal)             CV                S
                      KCal/Mol        Cal/Mol-Kelvin    Cal/Mol-Kelvin
 Total                   38.303             37.368            103.004
 Electronic               0.000              0.000              0.000
 Translational            0.889              2.981             41.783
 Rotational               0.889              2.981             30.237
 Vibrational             36.526             31.406             30.983
 Vibration     1          0.594              1.982              5.421
 Vibration     2          0.598              1.969              4.183
 Vibration     3          0.609              1.933              3.103
 Vibration     4          0.626              1.878              2.421
 Vibration     5          0.642              1.828              2.056
 Vibration     6          0.652              1.795              1.876
 Vibration     7          0.668              1.748              1.669
 Vibration     8          0.687              1.691              1.468
 Vibration     9          0.707              1.632              1.302
 Vibration    10          0.744              1.530              1.071
 Vibration    11          0.747              1.522              1.056
 Vibration    12          0.769              1.461              0.947
 Vibration    13          0.804              1.374              0.813
 Vibration    14          0.840              1.286              0.700
 Vibration    15          0.862              1.235              0.642
 Vibration    16          0.904              1.143              0.548
 Vibration    17          0.966              1.017              0.438

 Optimization completed.
    -- Stationary point found.
 Normal termination of Gaussian 16 at Sat May 24 06:44:30 2025.
