 Gaussian 16, Revision C.01,
 Gaussian 16:  ES64L-G16RevC.01  3-Jul-2019

 ----------------------------------------------------------------------
 #P M062X/Def2TZVPP Symm(None) scf(xqc) pop(None) freq opt(CalcFC, Tigh
 t)
 ----------------------------------------------------------------------

 ------------------------------
 Gaussian input prepared by ASE
 ------------------------------
 Symbolic Z-matrix:
 Charge =  0 Multiplicity = 1

 SCF Done:  E(RM062X) =  -1199.82893383     A.U. after   14 cycles
 SCF Done:  E(RM062X) =  -1199.83953471     A.U. after   13 cycles
 SCF Done:  E(RM062X) =  -1199.84117677     A.U. after   12 cycles
 SCF Done:  E(RM062X) =  -1199.83880000     A.U. after   14 cycles
 SCF Done:  E(RM062X) =  -1199.84223943     A.U. after   13 cycles
 SCF Done:  E(RM062X) =  -1199.84257954     A.U. after   11 cycles
 SCF Done:  E(RM062X) =  -1199.83975846     A.U. after   13 cycles
 SCF Done:  E(RM062X) =  -1199.84252716     A.U. after   13 cycles
 SCF Done:  E(RM062X) =  -1199.84282403     A.U. after    9 cycles
 SCF Done:  E(RM062X) =  -1199.84224085     A.U. after   13 cycles
 SCF Done:  E(RM062X) =  -1199.84345292     A.U. after   11 cycles
 SCF Done:  E(RM062X) =  -1199.84349573     A.U. after   11 cycles
 SCF Done:  E(RM062X) =  -1199.84354713     A.U. after   10 cycles
 SCF Done:  E(RM062X) =  -1199.84356815     A.U. after   10 cycles
 SCF Done:  E(RM062X) =  -1199.84356941     A.U. after    8 cycles
 SCF Done:  E(RM062X) =  -1199.84356954     A.U. after    7 cycles
 SCF Done:  E(RM062X) =  -1199.84356957     A.U. after    5 cycles
 SCF Done:  E(RM062X) =  -1199.84356957     A.U. after    5 cycles
 SCF Done:  E(RM062X) =  -1199.84356957     A.U. after    3 cycles
 Optimization completed.
    -- Stationary point found.
 Normal termination of Gaussian 16 at Sat May 24 06:19:56 2025.

 ---------------------------------------------------------------------
 #P Geom=AllCheck Guess=TCheck SCRF=Check GenChk RM062X/def2TZVPP Freq
 ---------------------------------------------------------------------

 Structure from the checkpoint file:  "/tmp/Gau-279941.chk"
 ------------------------------
 Gaussian input prepared by ASE
 ------------------------------
 Charge =  0 Multiplicity = 1

                          Input orientation:
 ---------------------------------------------------------------------
 Center     Atomic      Atomic             Coordinates (Angstroms)
 Number     Number       Type             X           Y           Z
 ---------------------------------------------------------------------
      1          6           0        0.231117   -0.207421    1.537076
      2          6           0        0.021957    0.040229    0.000241
      3          9           0       -0.640889   -0.894449   -0.630519
      4          9           0       -0.492664    1.208196   -0.292642
      5         16           0        1.947837   -0.089523   -0.000464
      6          8           0        1.621210   -0.281687    1.585867
      7          8           0        3.318820   -0.235804   -0.389942
      8          8           0        1.919964    1.550194    0.004705
      9          9           0        1.614448   -1.691647   -0.289968
     10          9           0       -0.210844    0.795948    2.276335
     11          9           0       -0.321490   -1.330033    1.958729
     12          1           0        2.831314    1.867960    0.001269
 ---------------------------------------------------------------------

 SCF Done:  E(RM062X) =  -1199.84356957     A.U. after    1 cycles

 Isotropic polarizability for W=    0.000000       56.20 Bohr**3.
 End of Minotr F.D. properties file   721 does not exist.

                      1                      2                      3
                      A                      A                      A
 Frequencies --     61.0335               104.5141               205.4350
 Red. masses --     13.4608                15.0817                18.7487
 Frc consts  --      0.0295                 0.0971                 0.4662
 IR Inten    --      0.9517                 0.3899                 0.2751

                      4                      5                      6
                      A                      A                      A
 Frequencies --    250.0565               274.3981               284.5460
 Red. masses --     17.0012                16.7412                15.3353
 Frc consts  --      0.6263                 0.7427                 0.7316
 IR Inten    --      0.3167                 2.4292                 2.5375

                      7                      8                      9
                      A                      A                      A
 Frequencies --    304.3815               352.6111               375.7343
 Red. masses --      7.8530                14.3380                 6.9631
 Frc consts  --      0.4287                 1.0503                 0.5792
 IR Inten    --      3.5596                 5.4942                 6.9697

                     10                     11                     12
                      A                      A                      A
 Frequencies --    449.6396               475.8029               500.8067
 Red. masses --      1.7859                10.9889                14.3462
 Frc consts  --      0.2127                 1.4657                 2.1200
 IR Inten    --     26.2309                 1.7949                39.9654

                     13                     14                     15
                      A                      A                      A
 Frequencies --    540.6788               585.4712               604.0356
 Red. masses --      3.8364                15.5912                10.3547
 Frc consts  --      0.6608                 3.1488                 2.2259
 IR Inten    --     81.7230                49.8723                10.2504

                     16                     17                     18
                      A                      A                      A
 Frequencies --    635.4109               641.9525               656.8249
 Red. masses --     16.6817                11.0817                11.8260
 Frc consts  --      3.9682                 2.6907                 3.0060
 IR Inten    --      3.7818                29.2649                28.4951

                     19                     20                     21
                      A                      A                      A
 Frequencies --    742.9031               795.8603               852.7419
 Red. masses --     15.8681                20.2958                16.3159
 Frc consts  --      5.1599                 7.5741                 6.9903
 IR Inten    --      7.1977               405.9825               119.1478

                     22                     23                     24
                      A                      A                      A
 Frequencies --    903.4078              1120.0800              1162.8968
 Red. masses --     13.2058                 2.3231                 2.7087
 Frc consts  --      6.3501                 1.7172                 2.1582
 IR Inten    --    141.0491               118.7046               177.5986

                     25                     26                     27
                      A                      A                      A
 Frequencies --   1262.4855              1306.0504              1322.4891
 Red. masses --     10.1065                13.2281                 8.8750
 Frc consts  --      9.4908                13.2943                 9.1454
 IR Inten    --    189.3871               303.6380               327.2757

                     28                     29                     30
                      A                      A                      A
 Frequencies --   1360.3591              1402.9061              3840.5340
 Red. masses --     11.0409                11.9042                 1.0657
 Frc consts  --     12.0382                13.8041                 9.2613
 IR Inten    --    135.1614               130.9437               160.2614

 - Thermochemistry -
 -------------------
 Temperature   298.150 Kelvin.  Pressure   1.00000 Atm.
 Atom     1 has atomic number  6 and mass  12.00000

 Molecular mass:   199.95666 amu.
 Principal axes and moments of inertia in atomic units:
                           1         2         3
     Eigenvalues --  1255.253851868.929151936.80443
           X            0.88408  -0.00885   0.46725
           Y           -0.00036   0.99981   0.01961
           Z           -0.46734  -0.01751   0.88391
 This molecule is an asymmetric top.
 Rotational symmetry number  1.
 Warning -- assumption of classical behavior for rotation
           may cause significant error
 Rotational temperatures (Kelvin)      0.06900     0.04634     0.04472
 Rotational constants (GHZ):           1.43775     0.96566     0.93181
 Zero-point vibrational energy     139819.8 (Joules/Mol)
                                   33.41774 (Kcal/Mol)
 Warning -- explicit consideration of  15 degrees of freedom as
           vibrations may cause significant error
 Vibrational temperatures:     87.81   150.37   295.58   359.78   394.80
          (Kelvin)            409.40   437.94   507.33   540.60   646.93
                              684.57   720.55   777.92   842.36   869.07
                              914.21   923.63   945.02  1068.87  1145.07
                             1226.91  1299.80  1611.55  1673.15  1816.44
                             1879.12  1902.77  1957.25  2018.47  5525.67

 Zero-point correction=                           0.053255 (Hartree/Particle)
 Thermal correction to Energy=                    0.062713
 Thermal correction to Enthalpy=                  0.063657
 Thermal correction to Gibbs Free Energy=         0.018158
 Sum of electronic and zero-point Energies=          -1199.790315
 Sum of electronic and thermal Energies=             -1199.780856
 Sum of electronic and thermal Enthalpies=           -1199.779912
 Sum of electronic and thermal Free Energies=        -1199.825412

                     E (Thermal)             CV                S
                      KCal/Mol        Cal/Mol-Kelvin    Cal/Mol-Kelvin
 Total                   39.353             35.270             95.762
 Electronic               0.000              0.000              0.000
 Translational            0.889              2.981             41.783
 Rotational               0.889              2.981             29.898
 Vibrational             37.576             29.309             24.081
 Vibration     1          0.597              1.973              4.423
 Vibration     2          0.605              1.946              3.368
 Vibration     3          0.640              1.832              2.084
 Vibration     4          0.663              1.763              1.730
 Vibration     5          0.677              1.721              1.568
 Vibration     6          0.683              1.702              1.506
 Vibration     7          0.695              1.665              1.393
 Vibration     8          0.729              1.570              1.155
 Vibration     9          0.747              1.522              1.056
 Vibration    10          0.809              1.362              0.797
 Vibration    11          0.832              1.304              0.721
 Vibration    12          0.856              1.248              0.656
 Vibration    13          0.896              1.160              0.564
 Vibration    14          0.942              1.063              0.475
 Vibration    15          0.963              1.023              0.443

 Optimization completed.
    -- Stationary point found.
 Normal termination of Gaussian 16 at Sat May 24 06:24:51 2025.
