 Gaussian 16, Revision C.01,
 Gaussian 16:  ES64L-G16RevC.01  3-Jul-2019

 ----------------------------------------------------------------------
 #P M062X/Def2TZVPP Symm(None) scf(xqc) pop(None) freq opt(CalcFC, Tigh
 t)
 ----------------------------------------------------------------------

 ------------------------------
 Gaussian input prepared by ASE
 ------------------------------
 Symbolic Z-matrix:
 Charge =  0 Multiplicity = 1

 SCF Done:  E(RM062X) =  -1199.77841948     A.U. after   15 cycles
 SCF Done:  E(RM062X) =  -1199.77872073     A.U. after   13 cycles
 SCF Done:  E(RM062X) =  -1199.77872467     A.U. after   12 cycles
 SCF Done:  E(RM062X) =  -1199.77872485     A.U. after   10 cycles
 SCF Done:  E(RM062X) =  -1199.77872485     A.U. after    4 cycles
 Optimization completed.
    -- Stationary point found.
 Normal termination of Gaussian 16 at Sat May 24 06:31:23 2025.

 ---------------------------------------------------------------------
 #P Geom=AllCheck Guess=TCheck SCRF=Check GenChk RM062X/def2TZVPP Freq
 ---------------------------------------------------------------------

 Structure from the checkpoint file:  "/tmp/Gau-229085.chk"
 ------------------------------
 Gaussian input prepared by ASE
 ------------------------------
 Charge =  0 Multiplicity = 1

                          Input orientation:
 ---------------------------------------------------------------------
 Center     Atomic      Atomic             Coordinates (Angstroms)
 Number     Number       Type             X           Y           Z
 ---------------------------------------------------------------------
      1          6           0       -0.775962    0.954457    0.923219
      2          6           0        0.004980   -0.000988   -0.001243
      3          9           0       -0.341784   -1.260572    0.311782
      4          9           0       -0.361370    0.240521   -1.270097
      5         16           0        1.907213   -0.020722    0.003114
      6          8           0        2.085345   -0.556784    1.455596
      7          8           0        3.411357   -0.090496    0.949356
      8          8           0        1.894179    1.575533   -0.002230
      9          9           0       -0.280338    0.907843    2.152974
     10          9           0       -0.722191    2.199765    0.479640
     11          9           0       -2.051244    0.582499    0.967141
     12          1           0        2.802424    1.888194    0.109539
 ---------------------------------------------------------------------

 SCF Done:  E(RM062X) =  -1199.77872485     A.U. after    1 cycles

 Isotropic polarizability for W=    0.000000       58.19 Bohr**3.
 End of Minotr F.D. properties file   721 does not exist.

                      1                      2                      3
                      A                      A                      A
 Frequencies --     37.6298                77.2483               126.8486
 Red. masses --     12.9849                15.6306                13.9656
 Frc consts  --      0.0108                 0.0550                 0.1324
 IR Inten    --      0.6941                 0.9797                 0.1660

                      4                      5                      6
                      A                      A                      A
 Frequencies --    167.5065               211.1850               227.8226
 Red. masses --     14.5547                11.4210                17.9879
 Frc consts  --      0.2406                 0.3001                 0.5501
 IR Inten    --      3.1389                 4.9928                 1.4885

                      7                      8                      9
                      A                      A                      A
 Frequencies --    273.5062               291.5645               326.6400
 Red. masses --     10.8634                15.8456                12.4116
 Frc consts  --      0.4788                 0.7936                 0.7802
 IR Inten    --      1.6355                 0.9774                 1.0779

                     10                     11                     12
                      A                      A                      A
 Frequencies --    358.4909               376.8551               423.4970
 Red. masses --      5.3929                 2.0159                15.0938
 Frc consts  --      0.4083                 0.1687                 1.5950
 IR Inten    --     11.4680                67.5336                43.2877

                     13                     14                     15
                      A                      A                      A
 Frequencies --    450.1683               458.7061               490.0394
 Red. masses --     15.0632                 8.2450                 3.4807
 Frc consts  --      1.7985                 1.0221                 0.4925
 IR Inten    --     51.3814               149.5119                48.9960

                     16                     17                     18
                      A                      A                      A
 Frequencies --    547.3971               603.4273               650.1454
 Red. masses --     17.7667                17.6422                16.4155
 Frc consts  --      3.1366                 3.7849                 4.0881
 IR Inten    --      3.8430                 1.8786                 4.1439

                     19                     20                     21
                      A                      A                      A
 Frequencies --    771.6947               874.6507               906.8745
 Red. masses --     16.8666                17.4885                17.2125
 Frc consts  --      5.9179                 7.8827                 8.3404
 IR Inten    --     14.0914                65.8244                64.1877

                     22                     23                     24
                      A                      A                      A
 Frequencies --   1021.4763              1067.2722              1185.7459
 Red. masses --      9.4912                14.1271                 4.3672
 Frc consts  --      5.8348                 9.4810                 3.6178
 IR Inten    --     58.3769                67.9958               100.4443

                     25                     26                     27
                      A                      A                      A
 Frequencies --   1194.2932              1229.6349              1272.5283
 Red. masses --      1.6503                 7.7573                12.4288
 Frc consts  --      1.3869                 6.9105                11.8581
 IR Inten    --    219.2499                87.3019               234.6940

                     28                     29                     30
                      A                      A                      A
 Frequencies --   1294.9112              1376.9897              3818.3706
 Red. masses --     13.1442                12.1635                 1.0651
 Frc consts  --     12.9856                13.5885                 9.1496
 IR Inten    --    278.6641               188.8141               175.0486

 - Thermochemistry -
 -------------------
 Temperature   298.150 Kelvin.  Pressure   1.00000 Atm.
 Atom     1 has atomic number  6 and mass  12.00000

 Molecular mass:   199.95666 amu.
 Principal axes and moments of inertia in atomic units:
                           1         2         3
     Eigenvalues --  1105.796462317.519772394.12878
           X            0.97687   0.18979  -0.09849
           Y           -0.21200   0.79961  -0.56186
           Z           -0.02788   0.56974   0.82135
 This molecule is an asymmetric top.
 Rotational symmetry number  1.
 Warning -- assumption of classical behavior for rotation
           may cause significant error
 Rotational temperatures (Kelvin)      0.07833     0.03737     0.03618
 Rotational constants (GHZ):           1.63207     0.77874     0.75382
 Zero-point vibrational energy     132265.8 (Joules/Mol)
                                   31.61229 (Kcal/Mol)
 Warning -- explicit consideration of  17 degrees of freedom as
           vibrations may cause significant error
 Vibrational temperatures:     54.14   111.14   182.51   241.00   303.85
          (Kelvin)            327.79   393.51   419.50   469.96   515.79
                              542.21   609.32   647.69   659.98   705.06
                              787.58   868.20   935.41  1110.30  1258.43
                             1304.79  1469.68  1535.57  1706.02  1718.32
                             1769.17  1830.88  1863.09  1981.18  5493.78

 Zero-point correction=                           0.050377 (Hartree/Particle)
 Thermal correction to Energy=                    0.061033
 Thermal correction to Enthalpy=                  0.061977
 Thermal correction to Gibbs Free Energy=         0.013241
 Sum of electronic and zero-point Energies=          -1199.728347
 Sum of electronic and thermal Energies=             -1199.717692
 Sum of electronic and thermal Enthalpies=           -1199.716747
 Sum of electronic and thermal Free Energies=        -1199.765484

                     E (Thermal)             CV                S
                      KCal/Mol        Cal/Mol-Kelvin    Cal/Mol-Kelvin
 Total                   38.299             37.365            102.574
 Electronic               0.000              0.000              0.000
 Translational            0.889              2.981             41.783
 Rotational               0.889              2.981             30.196
 Vibrational             36.522             31.404             30.595
 Vibration     1          0.594              1.982              5.380
 Vibration     2          0.599              1.964              3.960
 Vibration     3          0.611              1.926              2.993
 Vibration     4          0.624              1.882              2.463
 Vibration     5          0.643              1.824              2.033
 Vibration     6          0.651              1.799              1.896
 Vibration     7          0.676              1.722              1.574
 Vibration     8          0.687              1.689              1.465
 Vibration     9          0.710              1.622              1.277
 Vibration    10          0.733              1.558              1.129
 Vibration    11          0.747              1.519              1.052
 Vibration    12          0.786              1.419              0.880
 Vibration    13          0.809              1.361              0.795
 Vibration    14          0.817              1.342              0.770
 Vibration    15          0.846              1.272              0.683
 Vibration    16          0.903              1.145              0.550
 Vibration    17          0.962              1.025              0.444

 Optimization completed.
    -- Stationary point found.
 Normal termination of Gaussian 16 at Sat May 24 06:36:13 2025.
