 Gaussian 16, Revision C.01,
 Gaussian 16:  ES64L-G16RevC.01  3-Jul-2019

 ----------------------------------------------------------------------
 #P M062X/Def2TZVPP Symm(None) scf(xqc) pop(None) freq opt(CalcFC, Tigh
 t)
 ----------------------------------------------------------------------

 ------------------------------
 Gaussian input prepared by ASE
 ------------------------------
 Symbolic Z-matrix:
 Charge =  0 Multiplicity = 1

 SCF Done:  E(RM062X) =  -1199.77206820     A.U. after   14 cycles
 SCF Done:  E(RM062X) =  -1199.77772509     A.U. after   14 cycles
 SCF Done:  E(RM062X) =  -1199.77800176     A.U. after   14 cycles
 SCF Done:  E(RM062X) =  -1199.77803501     A.U. after   13 cycles
 SCF Done:  E(RM062X) =  -1199.77803628     A.U. after   10 cycles
 SCF Done:  E(RM062X) =  -1199.77803656     A.U. after    9 cycles
 SCF Done:  E(RM062X) =  -1199.77803656     A.U. after    6 cycles
 SCF Done:  E(RM062X) =  -1199.77803656     A.U. after    4 cycles
 Optimization completed.
    -- Stationary point found.
 Normal termination of Gaussian 16 at Sat May 24 06:34:49 2025.

 ---------------------------------------------------------------------
 #P Geom=AllCheck Guess=TCheck SCRF=Check GenChk RM062X/def2TZVPP Freq
 ---------------------------------------------------------------------

 Structure from the checkpoint file:  "/tmp/Gau-119834.chk"
 ------------------------------
 Gaussian input prepared by ASE
 ------------------------------
 Charge =  0 Multiplicity = 1

                          Input orientation:
 ---------------------------------------------------------------------
 Center     Atomic      Atomic             Coordinates (Angstroms)
 Number     Number       Type             X           Y           Z
 ---------------------------------------------------------------------
      1          6           0       -0.736212   -1.240721    0.346174
      2          6           0       -0.031275    0.086092    0.019875
      3          9           0       -0.352703    0.423398   -1.241183
      4          9           0       -0.479922    1.023649    0.854461
      5         16           0        1.874757   -0.086138    0.037989
      6          8           0        1.993676   -0.506260    1.532836
      7          8           0        3.355323   -0.135982    1.038471
      8          8           0        1.925763    1.502376   -0.095346
      9          9           0       -0.199936   -2.214078   -0.389903
     10          9           0       -0.589276   -1.545266    1.626673
     11          9           0       -2.029191   -1.162589    0.070836
     12          1           0        2.841604    1.784289    0.033046
 ---------------------------------------------------------------------

 SCF Done:  E(RM062X) =  -1199.77803656     A.U. after    1 cycles

 Isotropic polarizability for W=    0.000000       58.16 Bohr**3.
 End of Minotr F.D. properties file   721 does not exist.

                      1                      2                      3
                      A                      A                      A
 Frequencies --     38.9508                71.4628               115.7578
 Red. masses --     15.4262                14.3049                15.5525
 Frc consts  --      0.0138                 0.0430                 0.1228
 IR Inten    --      1.1034                 0.9400                 0.2055

                      4                      5                      6
                      A                      A                      A
 Frequencies --    160.8388               223.4114               231.0395
 Red. masses --     15.2513                15.2518                 9.9492
 Frc consts  --      0.2325                 0.4485                 0.3129
 IR Inten    --      1.7528                 1.1991                 0.7192

                      7                      8                      9
                      A                      A                      A
 Frequencies --    255.5286               298.0181               311.5591
 Red. masses --      9.6642                15.5005                12.8538
 Frc consts  --      0.3718                 0.8111                 0.7351
 IR Inten    --      8.4104                 6.5613                 3.5358

                     10                     11                     12
                      A                      A                      A
 Frequencies --    339.7091               374.6184               402.9676
 Red. masses --      1.4719                17.4419                13.7773
 Frc consts  --      0.1001                 1.4422                 1.3181
 IR Inten    --     88.5623                 2.4966                56.2953

                     13                     14                     15
                      A                      A                      A
 Frequencies --    435.7032               466.1615               503.9836
 Red. masses --     16.3029                 3.6092                17.9370
 Frc consts  --      1.8235                 0.4621                 2.6843
 IR Inten    --    143.7015                58.6714                29.0789

                     16                     17                     18
                      A                      A                      A
 Frequencies --    546.2365               606.7775               647.9548
 Red. masses --     17.7021                17.8648                16.0739
 Frc consts  --      3.1120                 3.8753                 3.9761
 IR Inten    --      3.3127                 3.1910                22.9538

                     19                     20                     21
                      A                      A                      A
 Frequencies --    768.6339               874.6952               909.6307
 Red. masses --     16.9739                17.4873                17.0750
 Frc consts  --      5.9084                 7.8829                 8.3242
 IR Inten    --     14.4042                82.4534                63.6401

                     22                     23                     24
                      A                      A                      A
 Frequencies --    996.7139              1068.1235              1171.3655
 Red. masses --     13.4214                14.6502                 1.5913
 Frc consts  --      7.8558                 9.8478                 1.2865
 IR Inten    --     67.7048                71.4099               248.5424

                     25                     26                     27
                      A                      A                      A
 Frequencies --   1200.3290              1254.3124              1272.9447
 Red. masses --      3.7585                10.9516                12.2487
 Frc consts  --      3.1905                10.1517                11.6939
 IR Inten    --     36.1863               144.4627               204.5315

                     28                     29                     30
                      A                      A                      A
 Frequencies --   1294.4886              1399.0457              3823.4289
 Red. masses --     12.4550                11.4928                 1.0651
 Frc consts  --     12.2967                13.2538                 9.1740
 IR Inten    --    301.8729               126.5876               184.7847

 - Thermochemistry -
 -------------------
 Temperature   298.150 Kelvin.  Pressure   1.00000 Atm.
 Atom     1 has atomic number  6 and mass  12.00000

 Molecular mass:   199.95666 amu.
 Principal axes and moments of inertia in atomic units:
                           1         2         3
     Eigenvalues --  1086.172792251.265302607.58599
           X            0.92159  -0.27745  -0.27147
           Y            0.37720   0.80520   0.45758
           Z            0.09163  -0.52410   0.84671
 This molecule is an asymmetric top.
 Rotational symmetry number  1.
 Warning -- assumption of classical behavior for rotation
           may cause significant error
 Rotational temperatures (Kelvin)      0.07974     0.03847     0.03322
 Rotational constants (GHZ):           1.66156     0.80166     0.69211
 Zero-point vibrational energy     131974.4 (Joules/Mol)
                                   31.54263 (Kcal/Mol)
 Warning -- explicit consideration of  17 degrees of freedom as
           vibrations may cause significant error
 Vibrational temperatures:     56.04   102.82   166.55   231.41   321.44
          (Kelvin)            332.41   367.65   428.78   448.26   488.77
                              538.99   579.78   626.88   670.70   725.12
                              785.91   873.02   932.26  1105.89  1258.49
                             1308.76  1434.05  1536.79  1685.33  1727.01
                             1804.68  1831.48  1862.48  2012.91  5501.06

 Zero-point correction=                           0.050266 (Hartree/Particle)
 Thermal correction to Energy=                    0.061014
 Thermal correction to Enthalpy=                  0.061959
 Thermal correction to Gibbs Free Energy=         0.012953
 Sum of electronic and zero-point Energies=          -1199.727770
 Sum of electronic and thermal Energies=             -1199.717022
 Sum of electronic and thermal Enthalpies=           -1199.716078
 Sum of electronic and thermal Free Energies=        -1199.765084

                     E (Thermal)             CV                S
                      KCal/Mol        Cal/Mol-Kelvin    Cal/Mol-Kelvin
 Total                   38.287             37.494            103.142
 Electronic               0.000              0.000              0.000
 Translational            0.889              2.981             41.783
 Rotational               0.889              2.981             30.234
 Vibrational             36.510             31.533             31.124
 Vibration     1          0.594              1.981              5.312
 Vibration     2          0.598              1.968              4.113
 Vibration     3          0.608              1.936              3.170
 Vibration     4          0.622              1.890              2.540
 Vibration     5          0.649              1.805              1.931
 Vibration     6          0.653              1.794              1.871
 Vibration     7          0.666              1.753              1.692
 Vibration     8          0.691              1.677              1.428
 Vibration     9          0.700              1.652              1.354
 Vibration    10          0.720              1.596              1.214
 Vibration    11          0.746              1.524              1.061
 Vibration    12          0.768              1.464              0.952
 Vibration    13          0.796              1.392              0.840
 Vibration    14          0.824              1.325              0.748
 Vibration    15          0.859              1.241              0.648
 Vibration    16          0.901              1.148              0.552
 Vibration    17          0.965              1.017              0.438

 Optimization completed.
    -- Stationary point found.
 Normal termination of Gaussian 16 at Sat May 24 06:39:47 2025.
