 Gaussian 16, Revision C.01,
 Gaussian 16:  ES64L-G16RevC.01  3-Jul-2019

 ----------------------------------------------------------------------
 #P M062X/Def2TZVPP Symm(None) scf(xqc) pop(None) freq opt(CalcFC, Tigh
 t)
 ----------------------------------------------------------------------

 ------------------------------
 Gaussian input prepared by ASE
 ------------------------------
 Symbolic Z-matrix:
 Charge =  0 Multiplicity = 1

 SCF Done:  E(RM062X) =  -1199.75921020     A.U. after   14 cycles
 SCF Done:  E(RM062X) =  -1199.76920378     A.U. after   15 cycles
 SCF Done:  E(RM062X) =  -1199.76905340     A.U. after   14 cycles
 SCF Done:  E(RM062X) =  -1199.77148356     A.U. after   14 cycles
 SCF Done:  E(RM062X) =  -1199.77247450     A.U. after   15 cycles
 SCF Done:  E(RM062X) =  -1199.77350573     A.U. after   14 cycles
 SCF Done:  E(RM062X) =  -1199.77420159     A.U. after   14 cycles
 SCF Done:  E(RM062X) =  -1199.77442185     A.U. after   13 cycles
 SCF Done:  E(RM062X) =  -1199.77442845     A.U. after   12 cycles
 SCF Done:  E(RM062X) =  -1199.77441993     A.U. after   12 cycles
 SCF Done:  E(RM062X) =  -1199.77446521     A.U. after   12 cycles
 SCF Done:  E(RM062X) =  -1199.77446588     A.U. after   10 cycles
 SCF Done:  E(RM062X) =  -1199.77446622     A.U. after   10 cycles
 SCF Done:  E(RM062X) =  -1199.77446628     A.U. after    9 cycles
 SCF Done:  E(RM062X) =  -1199.77446629     A.U. after    7 cycles
 SCF Done:  E(RM062X) =  -1199.77446630     A.U. after    5 cycles
 SCF Done:  E(RM062X) =  -1199.77446630     A.U. after    4 cycles
 Optimization completed.
    -- Stationary point found.
 Normal termination of Gaussian 16 at Sat May 24 06:41:33 2025.

 ---------------------------------------------------------------------
 #P Geom=AllCheck Guess=TCheck SCRF=Check GenChk RM062X/def2TZVPP Freq
 ---------------------------------------------------------------------

 Structure from the checkpoint file:  "/tmp/Gau-237255.chk"
 ------------------------------
 Gaussian input prepared by ASE
 ------------------------------
 Charge =  0 Multiplicity = 1

                          Input orientation:
 ---------------------------------------------------------------------
 Center     Atomic      Atomic             Coordinates (Angstroms)
 Number     Number       Type             X           Y           Z
 ---------------------------------------------------------------------
      1          6           0       -0.765078    0.254391   -1.321595
      2          6           0       -0.024056    0.126564    0.015436
      3          9           0       -0.323905    1.213126    0.766591
      4          9           0       -0.482442   -0.962609    0.642083
      5         16           0        1.895978   -0.074192   -0.171103
      6          8           0        2.033915   -0.539085    1.317613
      7          8           0        3.375095   -0.241129    0.727774
      8          8           0        2.063120    1.493556   -0.363925
      9          9           0       -0.395169    1.366102   -1.948858
     10          9           0       -0.467634   -0.787919   -2.090837
     11          9           0       -2.076422    0.289077   -1.136550
     12          1           0        1.470498    2.003767    0.209293
 ---------------------------------------------------------------------

 SCF Done:  E(RM062X) =  -1199.77446630     A.U. after    1 cycles

 Isotropic polarizability for W=    0.000000       57.99 Bohr**3.
 End of Minotr F.D. properties file   721 does not exist.

                      1                      2                      3
                      A                      A                      A
 Frequencies --     30.9368                66.0247               114.4525
 Red. masses --     13.7247                16.8801                17.4762
 Frc consts  --      0.0077                 0.0434                 0.1349
 IR Inten    --      0.6269                 0.4769                 1.7143

                      4                      5                      6
                      A                      A                      A
 Frequencies --    170.3422               199.9126               230.4741
 Red. masses --     16.2450                11.7064                15.6346
 Frc consts  --      0.2777                 0.2756                 0.4893
 IR Inten    --      0.8781                 7.3885                 1.7693

                      7                      8                      9
                      A                      A                      A
 Frequencies --    263.8291               282.2531               323.9197
 Red. masses --     16.2890                10.3295                14.7436
 Frc consts  --      0.6680                 0.4849                 0.9114
 IR Inten    --      0.8754                 0.6439                 8.2924

                     10                     11                     12
                      A                      A                      A
 Frequencies --    343.3974               377.2966               410.4025
 Red. masses --      1.3944                 6.8467                10.6096
 Frc consts  --      0.0969                 0.5742                 1.0529
 IR Inten    --     66.9678                 4.6898                12.2248

                     13                     14                     15
                      A                      A                      A
 Frequencies --    445.4741               483.9999               502.5435
 Red. masses --      8.3274                12.2168                11.3532
 Frc consts  --      0.9737                 1.6862                 1.6893
 IR Inten    --      7.9563               131.1794               144.9199

                     16                     17                     18
                      A                      A                      A
 Frequencies --    544.5044               606.5511               641.1862
 Red. masses --     17.0676                17.0261                16.9018
 Frc consts  --      2.9814                 3.6906                 4.0940
 IR Inten    --     17.8262                 4.8838                23.4833

                     19                     20                     21
                      A                      A                      A
 Frequencies --    764.3429               858.8825               906.0112
 Red. masses --     16.6949                15.9229                17.8300
 Frc consts  --      5.7466                 6.9205                 8.6232
 IR Inten    --     17.8434                81.9544                96.5803

                     22                     23                     24
                      A                      A                      A
 Frequencies --    987.8003              1077.1369              1167.2431
 Red. masses --     13.1717                16.5469                 3.6895
 Frc consts  --      7.5723                11.3112                 2.9617
 IR Inten    --     62.2922                52.0271               153.1012

                     25                     26                     27
                      A                      A                      A
 Frequencies --   1195.2920              1241.4414              1279.2594
 Red. masses --      1.7065                 6.4736                12.8449
 Frc consts  --      1.4365                 5.8782                12.3851
 IR Inten    --    154.3537                60.1970               304.4653

                     28                     29                     30
                      A                      A                      A
 Frequencies --   1283.4220              1390.5104              3765.7851
 Red. masses --     12.0248                12.4720                 1.0656
 Frc consts  --     11.6699                14.2081                 8.9030
 IR Inten    --    210.7998               142.2612               144.7274

 - Thermochemistry -
 -------------------
 Temperature   298.150 Kelvin.  Pressure   1.00000 Atm.
 Atom     1 has atomic number  6 and mass  12.00000

 Molecular mass:   199.95666 amu.
 Principal axes and moments of inertia in atomic units:
                           1         2         3
     Eigenvalues --  1002.319792473.847902641.86106
           X            0.88570  -0.41387  -0.21033
           Y           -0.06910  -0.56553   0.82183
           Z            0.45908   0.71336   0.52949
 This molecule is an asymmetric top.
 Rotational symmetry number  1.
 Warning -- assumption of classical behavior for rotation
           may cause significant error
 Rotational temperatures (Kelvin)      0.08641     0.03501     0.03279
 Rotational constants (GHZ):           1.80056     0.72953     0.68313
 Zero-point vibrational energy     131317.8 (Joules/Mol)
                                   31.38572 (Kcal/Mol)
 Warning -- explicit consideration of  17 degrees of freedom as
           vibrations may cause significant error
 Vibrational temperatures:     44.51    94.99   164.67   245.08   287.63
          (Kelvin)            331.60   379.59   406.10   466.05   494.07
                              542.85   590.48   640.94   696.37   723.05
                              783.42   872.69   922.52  1099.72  1235.74
                             1303.55  1421.22  1549.76  1679.40  1719.76
                             1786.16  1840.57  1846.56  2000.63  5418.12

 Zero-point correction=                           0.050016 (Hartree/Particle)
 Thermal correction to Energy=                    0.060787
 Thermal correction to Enthalpy=                  0.061731
 Thermal correction to Gibbs Free Energy=         0.012422
 Sum of electronic and zero-point Energies=          -1199.724450
 Sum of electronic and thermal Energies=             -1199.713680
 Sum of electronic and thermal Enthalpies=           -1199.712736
 Sum of electronic and thermal Free Energies=        -1199.762044

                     E (Thermal)             CV                S
                      KCal/Mol        Cal/Mol-Kelvin    Cal/Mol-Kelvin
 Total                   38.144             37.502            103.779
 Electronic               0.000              0.000              0.000
 Translational            0.889              2.981             41.783
 Rotational               0.889              2.981             30.261
 Vibrational             36.367             31.541             31.734
 Vibration     1          0.594              1.984              5.768
 Vibration     2          0.597              1.970              4.269
 Vibration     3          0.607              1.937              3.192
 Vibration     4          0.625              1.879              2.432
 Vibration     5          0.638              1.840              2.134
 Vibration     6          0.652              1.794              1.875
 Vibration     7          0.670              1.739              1.636
 Vibration     8          0.681              1.707              1.520
 Vibration     9          0.708              1.628              1.290
 Vibration    10          0.722              1.589              1.196
 Vibration    11          0.748              1.519              1.050
 Vibration    12          0.775              1.448              0.925
 Vibration    13          0.805              1.371              0.810
 Vibration    14          0.840              1.286              0.699
 Vibration    15          0.858              1.244              0.652
 Vibration    16          0.900              1.152              0.556
 Vibration    17          0.965              1.018              0.439

 Optimization completed.
    -- Stationary point found.
 Normal termination of Gaussian 16 at Sat May 24 06:45:32 2025.
