 Gaussian 16, Revision C.01,
 Gaussian 16:  ES64L-G16RevC.01  3-Jul-2019

 ----------------------------------------------------------------------
 #P M062X/Def2TZVPP Symm(None) scf(xqc) pop(None) freq opt(CalcFC, Tigh
 t)
 ----------------------------------------------------------------------

 ------------------------------
 Gaussian input prepared by ASE
 ------------------------------
 Symbolic Z-matrix:
 Charge =  0 Multiplicity = 1

 SCF Done:  E(RM062X) =  -1199.81850670     A.U. after   14 cycles
 SCF Done:  E(RM062X) =  -1199.83100813     A.U. after   13 cycles
 SCF Done:  E(RM062X) =  -1199.81139144     A.U. after   14 cycles
 SCF Done:  E(RM062X) =  -1199.83142009     A.U. after   13 cycles
 SCF Done:  E(RM062X) =  -1199.81784748     A.U. after   13 cycles
 SCF Done:  E(RM062X) =  -1199.83466952     A.U. after   12 cycles
 SCF Done:  E(RM062X) =  -1199.83477484     A.U. after   11 cycles
 SCF Done:  E(RM062X) =  -1199.83480136     A.U. after   10 cycles
 SCF Done:  E(RM062X) =  -1199.83481724     A.U. after    9 cycles
 SCF Done:  E(RM062X) =  -1199.83482495     A.U. after    8 cycles
 SCF Done:  E(RM062X) =  -1199.83482705     A.U. after    7 cycles
 SCF Done:  E(RM062X) =  -1199.83483130     A.U. after    8 cycles
 SCF Done:  E(RM062X) =  -1199.83483621     A.U. after    9 cycles
 SCF Done:  E(RM062X) =  -1199.83483762     A.U. after    9 cycles
 SCF Done:  E(RM062X) =  -1199.83483764     A.U. after    6 cycles
 SCF Done:  E(RM062X) =  -1199.83483764     A.U. after    5 cycles
 SCF Done:  E(RM062X) =  -1199.83483764     A.U. after    3 cycles
 Optimization completed.
    -- Stationary point found.
 Normal termination of Gaussian 16 at Sat May 24 06:16:49 2025.

 ---------------------------------------------------------------------
 #P Geom=AllCheck Guess=TCheck SCRF=Check GenChk RM062X/def2TZVPP Freq
 ---------------------------------------------------------------------

 Structure from the checkpoint file:  "/tmp/Gau-279942.chk"
 ------------------------------
 Gaussian input prepared by ASE
 ------------------------------
 Charge =  0 Multiplicity = 1

                          Input orientation:
 ---------------------------------------------------------------------
 Center     Atomic      Atomic             Coordinates (Angstroms)
 Number     Number       Type             X           Y           Z
 ---------------------------------------------------------------------
      1          6           0        0.224243   -0.250186    1.543245
      2          6           0        0.043549    0.030227    0.004207
      3          9           0       -0.630238   -0.848814   -0.682918
      4          9           0       -0.441421    1.237259   -0.234797
      5         16           0        1.943506   -0.060771    0.026422
      6          8           0        1.612479   -0.207181    1.638752
      7          8           0        3.209505   -0.247781   -0.595388
      8          8           0        2.095136    1.567973    0.103304
      9          9           0        1.578137   -1.698967   -0.093822
     10          9           0       -0.305420    0.722632    2.280296
     11          9           0       -0.274534   -1.401829    1.936902
     12          1           0        1.419003    2.005833    0.633926
 ---------------------------------------------------------------------

 SCF Done:  E(RM062X) =  -1199.83483764     A.U. after    1 cycles

 Isotropic polarizability for W=    0.000000       55.71 Bohr**3.
 End of Minotr F.D. properties file   721 does not exist.

                      1                      2                      3
                      A                      A                      A
 Frequencies --     74.9721                88.3526               205.7347
 Red. masses --      7.1967                 9.3026                18.4254
 Frc consts  --      0.0238                 0.0428                 0.4595
 IR Inten    --      6.8071                 6.2671                 0.0848

                      4                      5                      6
                      A                      A                      A
 Frequencies --    253.5633               273.2683               281.6640
 Red. masses --     14.3635                15.4366                15.1617
 Frc consts  --      0.5441                 0.6792                 0.7087
 IR Inten    --      1.1127                 3.5661                 3.1750

                      7                      8                      9
                      A                      A                      A
 Frequencies --    319.8872               346.5148               373.7371
 Red. masses --     11.3249                 8.7271                 1.9811
 Frc consts  --      0.6828                 0.6174                 0.1630
 IR Inten    --      2.2165                 1.1718                56.8389

                     10                     11                     12
                      A                      A                      A
 Frequencies --    407.4404               486.9050               519.5231
 Red. masses --      3.8837                13.1896                19.1311
 Frc consts  --      0.3799                 1.8423                 3.0423
 IR Inten    --     19.6774                19.9548                39.3315

                     13                     14                     15
                      A                      A                      A
 Frequencies --    523.1383               564.2992               609.2393
 Red. masses --      8.7669                15.7896                12.4047
 Frc consts  --      1.4136                 2.9624                 2.7128
 IR Inten    --     48.8661                46.2172                 5.6396

                     16                     17                     18
                      A                      A                      A
 Frequencies --    633.7932               639.3619               657.0215
 Red. masses --     15.9436                16.2157                13.7018
 Frc consts  --      3.7734                 3.9055                 3.4849
 IR Inten    --      7.5753                 9.7196                21.4018

                     19                     20                     21
                      A                      A                      A
 Frequencies --    736.7241               784.4336               830.6621
 Red. masses --     16.2100                16.1072                16.8121
 Frc consts  --      5.1837                 5.8396                 6.8347
 IR Inten    --      3.4906               350.4723                96.7640

                     22                     23                     24
                      A                      A                      A
 Frequencies --    908.1220              1131.1957              1175.3533
 Red. masses --     13.1880                13.3234                 1.2115
 Frc consts  --      6.4079                10.0448                 0.9861
 IR Inten    --     93.9002               228.5116               198.5191

                     25                     26                     27
                      A                      A                      A
 Frequencies --   1249.3051              1301.5154              1332.5138
 Red. masses --     12.2722                10.7853                12.5583
 Frc consts  --     11.2852                10.7642                13.1378
 IR Inten    --    171.3997               321.1687               253.8686

                     28                     29                     30
                      A                      A                      A
 Frequencies --   1363.1278              1412.2566              3840.9772
 Red. masses --     14.0447                12.0817                 1.0664
 Frc consts  --     15.3757                14.1972                 9.2694
 IR Inten    --    126.7200               107.3018                75.9285

 - Thermochemistry -
 -------------------
 Temperature   298.150 Kelvin.  Pressure   1.00000 Atm.
 Atom     1 has atomic number  6 and mass  12.00000

 Molecular mass:   199.95666 amu.
 Principal axes and moments of inertia in atomic units:
                           1         2         3
     Eigenvalues --  1251.796531841.146031932.76049
           X            0.86976  -0.06258   0.48950
           Y            0.03826   0.99749   0.05954
           Z           -0.49200  -0.03306   0.86997
 This molecule is an asymmetric top.
 Rotational symmetry number  1.
 Warning -- assumption of classical behavior for rotation
           may cause significant error
 Rotational temperatures (Kelvin)      0.06919     0.04704     0.04481
 Rotational constants (GHZ):           1.44172     0.98023     0.93376
 Zero-point vibrational energy     139512.1 (Joules/Mol)
                                   33.34419 (Kcal/Mol)
 Warning -- explicit consideration of  15 degrees of freedom as
           vibrations may cause significant error
 Vibrational temperatures:    107.87   127.12   296.01   364.82   393.17
          (Kelvin)            405.25   460.25   498.56   537.72   586.22
                              700.55   747.48   752.68   811.90   876.56
                              911.89   919.90   945.31  1059.98  1128.62
                             1195.14  1306.58  1627.54  1691.07  1797.47
                             1872.59  1917.19  1961.24  2031.92  5526.31

 Zero-point correction=                           0.053137 (Hartree/Particle)
 Thermal correction to Energy=                    0.062637
 Thermal correction to Enthalpy=                  0.063581
 Thermal correction to Gibbs Free Energy=         0.018072
 Sum of electronic and zero-point Energies=          -1199.781700
 Sum of electronic and thermal Energies=             -1199.772201
 Sum of electronic and thermal Enthalpies=           -1199.771257
 Sum of electronic and thermal Free Energies=        -1199.816765

                     E (Thermal)             CV                S
                      KCal/Mol        Cal/Mol-Kelvin    Cal/Mol-Kelvin
 Total                   39.305             35.411             95.781
 Electronic               0.000              0.000              0.000
 Translational            0.889              2.981             41.783
 Rotational               0.889              2.981             29.878
 Vibrational             37.528             29.450             24.119
 Vibration     1          0.599              1.966              4.018
 Vibration     2          0.601              1.957              3.696
 Vibration     3          0.640              1.832              2.081
 Vibration     4          0.665              1.757              1.706
 Vibration     5          0.676              1.723              1.575
 Vibration     6          0.681              1.708              1.524
 Vibration     7          0.706              1.636              1.311
 Vibration     8          0.725              1.582              1.182
 Vibration     9          0.745              1.526              1.064
 Vibration    10          0.772              1.454              0.936
 Vibration    11          0.843              1.279              0.692
 Vibration    12          0.875              1.207              0.611
 Vibration    13          0.878              1.199              0.603
 Vibration    14          0.920              1.109              0.515
 Vibration    15          0.968              1.012              0.434

 Optimization completed.
    -- Stationary point found.
 Normal termination of Gaussian 16 at Sat May 24 06:21:38 2025.
