 Gaussian 16, Revision C.01,
 Gaussian 16:  ES64L-G16RevC.01  3-Jul-2019

 ----------------------------------------------------------------------
 #P M062X/Def2TZVPP Symm(None) scf(xqc) pop(None) freq opt(CalcFC, Tigh
 t)
 ----------------------------------------------------------------------

 ------------------------------
 Gaussian input prepared by ASE
 ------------------------------
 Symbolic Z-matrix:
 Charge =  0 Multiplicity = 1

 SCF Done:  E(RM062X) =  -1199.76882948     A.U. after   14 cycles
 SCF Done:  E(RM062X) =  -1199.77259940     A.U. after   14 cycles
 SCF Done:  E(RM062X) =  -1199.74443710     A.U. after   15 cycles
 SCF Done:  E(RM062X) =  -1199.77340915     A.U. after   14 cycles
 SCF Done:  E(RM062X) =  -1199.77370048     A.U. after   14 cycles
 SCF Done:  E(RM062X) =  -1199.77375804     A.U. after   12 cycles
 SCF Done:  E(RM062X) =  -1199.77376666     A.U. after   11 cycles
 SCF Done:  E(RM062X) =  -1199.77377072     A.U. after   10 cycles
 SCF Done:  E(RM062X) =  -1199.77377411     A.U. after    9 cycles
 SCF Done:  E(RM062X) =  -1199.77377786     A.U. after   10 cycles
 SCF Done:  E(RM062X) =  -1199.77377942     A.U. after    8 cycles
 SCF Done:  E(RM062X) =  -1199.77377947     A.U. after    7 cycles
 SCF Done:  E(RM062X) =  -1199.77377947     A.U. after    5 cycles
 SCF Done:  E(RM062X) =  -1199.77377947     A.U. after    4 cycles
 SCF Done:  E(RM062X) =  -1199.77377947     A.U. after    4 cycles
 Optimization completed.
    -- Stationary point found.
 Normal termination of Gaussian 16 at Sat May 24 06:39:16 2025.

 ---------------------------------------------------------------------
 #P Geom=AllCheck Guess=TCheck SCRF=Check GenChk RM062X/def2TZVPP Freq
 ---------------------------------------------------------------------

 Structure from the checkpoint file:  "/tmp/Gau-229086.chk"
 ------------------------------
 Gaussian input prepared by ASE
 ------------------------------
 Charge =  0 Multiplicity = 1

                          Input orientation:
 ---------------------------------------------------------------------
 Center     Atomic      Atomic             Coordinates (Angstroms)
 Number     Number       Type             X           Y           Z
 ---------------------------------------------------------------------
      1          6           0       -0.797428    0.820054    1.046764
      2          6           0       -0.015244   -0.039791    0.041658
      3          9           0       -0.363733   -1.322034    0.243016
      4          9           0       -0.391594    0.316762   -1.196938
      5         16           0        1.912882   -0.028985    0.073618
      6          8           0        1.993044   -0.210997    1.622268
      7          8           0        3.356990    0.035681    1.056950
      8          8           0        2.008384    1.487954   -0.383546
      9          9           0       -0.636765    0.374437    2.278572
     10          9           0       -0.344785    2.088142    0.995777
     11          9           0       -2.087974    0.839134    0.759640
     12          1           0        1.475431    2.086035    0.161201
 ---------------------------------------------------------------------

 SCF Done:  E(RM062X) =  -1199.77377947     A.U. after    1 cycles

 Isotropic polarizability for W=    0.000000       58.12 Bohr**3.
 End of Minotr F.D. properties file   721 does not exist.

                      1                      2                      3
                      A                      A                      A
 Frequencies --     46.8443                84.7298               132.2519
 Red. masses --     15.6944                14.7148                14.3260
 Frc consts  --      0.0203                 0.0622                 0.1476
 IR Inten    --      0.6048                 0.8989                 0.3027

                      4                      5                      6
                      A                      A                      A
 Frequencies --    181.9287               200.1905               215.2202
 Red. masses --     13.5152                13.3600                 2.7651
 Frc consts  --      0.2636                 0.3155                 0.0755
 IR Inten    --      3.9808                 5.7145                34.1479

                      7                      8                      9
                      A                      A                      A
 Frequencies --    246.0348               279.3830               280.9267
 Red. masses --      1.9689                16.0139                 6.0075
 Frc consts  --      0.0702                 0.7365                 0.2793
 IR Inten    --     39.4064                 7.5394                16.5036

                     10                     11                     12
                      A                      A                      A
 Frequencies --    326.6137               364.0143               415.8895
 Red. masses --     14.6720                15.7432                12.6058
 Frc consts  --      0.9222                 1.2291                 1.2846
 IR Inten    --      3.2881                 2.5845                10.7867

                     13                     14                     15
                      A                      A                      A
 Frequencies --    439.3745               463.8390               488.9753
 Red. masses --     11.0249                16.0345                15.9973
 Frc consts  --      1.2540                 2.0326                 2.2536
 IR Inten    --     27.4613                26.8565               219.3937

                     16                     17                     18
                      A                      A                      A
 Frequencies --    542.8972               602.0544               646.6441
 Red. masses --     17.8820                17.6384                15.7222
 Frc consts  --      3.1053                 3.7669                 3.8734
 IR Inten    --      5.2887                 2.5798                 2.6349

                     19                     20                     21
                      A                      A                      A
 Frequencies --    764.8716               860.4667               906.2753
 Red. masses --     16.8091                14.4311                17.6627
 Frc consts  --      5.7939                 6.2953                 8.5472
 IR Inten    --     13.4081                89.7217                78.0139

                     22                     23                     24
                      A                      A                      A
 Frequencies --   1008.4841              1070.2148              1164.0896
 Red. masses --     12.2032                13.5850                 2.0522
 Frc consts  --      7.3124                 9.1675                 1.6385
 IR Inten    --     38.1005                89.0562               246.2730

                     25                     26                     27
                      A                      A                      A
 Frequencies --   1191.6155              1231.7020              1246.2704
 Red. masses --      3.2917                 9.6645                 5.6415
 Frc consts  --      2.7539                 8.6386                 5.1626
 IR Inten    --     85.9141               110.4144               129.9192

                     28                     29                     30
                      A                      A                      A
 Frequencies --   1303.3157              1382.8219              3779.6094
 Red. masses --     12.9193                12.5278                 1.0655
 Frc consts  --     12.9297                14.1142                 8.9679
 IR Inten    --    278.8177               198.2076               196.3610

 - Thermochemistry -
 -------------------
 Temperature   298.150 Kelvin.  Pressure   1.00000 Atm.
 Atom     1 has atomic number  6 and mass  12.00000

 Molecular mass:   199.95666 amu.
 Principal axes and moments of inertia in atomic units:
                           1         2         3
     Eigenvalues --  1135.544562283.009572372.42085
           X            0.98881   0.10021   0.11048
           Y           -0.13346   0.26376   0.95531
           Z           -0.06659   0.95937  -0.27418
 This molecule is an asymmetric top.
 Rotational symmetry number  1.
 Warning -- assumption of classical behavior for rotation
           may cause significant error
 Rotational temperatures (Kelvin)      0.07628     0.03794     0.03651
 Rotational constants (GHZ):           1.58932     0.79051     0.76072
 Zero-point vibrational energy     130797.0 (Joules/Mol)
                                   31.26123 (Kcal/Mol)
 Warning -- explicit consideration of  17 degrees of freedom as
           vibrations may cause significant error
 Vibrational temperatures:     67.40   121.91   190.28   261.75   288.03
          (Kelvin)            309.65   353.99   401.97   404.19   469.92
                              523.74   598.37   632.16   667.36   703.53
                              781.11   866.22   930.38  1100.48  1238.02
                             1303.93  1450.98  1539.80  1674.87  1714.47
                             1772.14  1793.11  1875.18  1989.57  5438.01

 Zero-point correction=                           0.049818 (Hartree/Particle)
 Thermal correction to Energy=                    0.060629
 Thermal correction to Enthalpy=                  0.061573
 Thermal correction to Gibbs Free Energy=         0.012764
 Sum of electronic and zero-point Energies=          -1199.723962
 Sum of electronic and thermal Energies=             -1199.713150
 Sum of electronic and thermal Enthalpies=           -1199.712206
 Sum of electronic and thermal Free Energies=        -1199.761015

                     E (Thermal)             CV                S
                      KCal/Mol        Cal/Mol-Kelvin    Cal/Mol-Kelvin
 Total                   38.045             37.737            102.727
 Electronic               0.000              0.000              0.000
 Translational            0.889              2.981             41.783
 Rotational               0.889              2.981             30.198
 Vibrational             36.268             31.775             30.745
 Vibration     1          0.595              1.979              4.946
 Vibration     2          0.601              1.960              3.778
 Vibration     3          0.612              1.921              2.913
 Vibration     4          0.630              1.864              2.309
 Vibration     5          0.638              1.840              2.131
 Vibration     6          0.645              1.818              1.999
 Vibration     7          0.661              1.769              1.759
 Vibration     8          0.680              1.712              1.537
 Vibration     9          0.681              1.709              1.528
 Vibration    10          0.710              1.622              1.277
 Vibration    11          0.738              1.546              1.105
 Vibration    12          0.779              1.436              0.906
 Vibration    13          0.799              1.384              0.829
 Vibration    14          0.821              1.330              0.755
 Vibration    15          0.845              1.274              0.686
 Vibration    16          0.898              1.155              0.559
 Vibration    17          0.960              1.027              0.446

 Optimization completed.
    -- Stationary point found.
 Normal termination of Gaussian 16 at Sat May 24 06:44:08 2025.
