 Gaussian 16, Revision C.01,
 Gaussian 16:  ES64L-G16RevC.01  3-Jul-2019

 ----------------------------------------------------------------------
 #P M062X/Def2TZVPP Symm(None) scf(xqc) pop(None) freq opt(CalcFC, Tigh
 t)
 ----------------------------------------------------------------------

 ------------------------------
 Gaussian input prepared by ASE
 ------------------------------
 Symbolic Z-matrix:
 Charge =  0 Multiplicity = 1

 SCF Done:  E(RM062X) =  -1199.77092536     A.U. after   14 cycles
 SCF Done:  E(RM062X) =  -1199.77502033     A.U. after   14 cycles
 SCF Done:  E(RM062X) =  -1199.77516244     A.U. after   13 cycles
 SCF Done:  E(RM062X) =  -1199.77517019     A.U. after   10 cycles
 SCF Done:  E(RM062X) =  -1199.77517053     A.U. after    8 cycles
 SCF Done:  E(RM062X) =  -1199.77517058     A.U. after    7 cycles
 SCF Done:  E(RM062X) =  -1199.77517058     A.U. after    5 cycles
 Optimization completed.
    -- Stationary point found.
 Normal termination of Gaussian 16 at Sat May 24 06:33:37 2025.

 ---------------------------------------------------------------------
 #P Geom=AllCheck Guess=TCheck SCRF=Check GenChk RM062X/def2TZVPP Freq
 ---------------------------------------------------------------------

 Structure from the checkpoint file:  "/tmp/Gau-119833.chk"
 ------------------------------
 Gaussian input prepared by ASE
 ------------------------------
 Charge =  0 Multiplicity = 1

                          Input orientation:
 ---------------------------------------------------------------------
 Center     Atomic      Atomic             Coordinates (Angstroms)
 Number     Number       Type             X           Y           Z
 ---------------------------------------------------------------------
      1          6           0       -0.734158   -1.241309    0.371174
      2          6           0       -0.025189    0.069177    0.004733
      3          9           0       -0.364674    0.394019   -1.252340
      4          9           0       -0.477104    1.042623    0.828707
      5         16           0        1.907601   -0.029829    0.013893
      6          8           0        1.979784   -0.647676    1.446112
      7          8           0        3.341541   -0.229225    0.985550
      8          8           0        1.978627    1.556329    0.024055
      9          9           0       -0.177680   -2.238169   -0.314277
     10          9           0       -0.619479   -1.492106    1.665896
     11          9           0       -2.022216   -1.181200    0.062798
     12          1           0        1.322153    1.953277    0.617816
 ---------------------------------------------------------------------

 SCF Done:  E(RM062X) =  -1199.77517058     A.U. after    1 cycles

 Isotropic polarizability for W=    0.000000       57.98 Bohr**3.
 End of Minotr F.D. properties file   721 does not exist.

                      1                      2                      3
                      A                      A                      A
 Frequencies --     51.1044                71.9654               123.6027
 Red. masses --     15.3763                14.9798                16.5227
 Frc consts  --      0.0237                 0.0457                 0.1487
 IR Inten    --      0.5319                 0.1416                 0.7872

                      4                      5                      6
                      A                      A                      A
 Frequencies --    163.8247               221.3473               230.2120
 Red. masses --     17.0346                14.6699                17.4847
 Frc consts  --      0.2694                 0.4235                 0.5460
 IR Inten    --      2.5600                 2.6123                 2.7719

                      7                      8                      9
                      A                      A                      A
 Frequencies --    255.9673               294.8018               305.0204
 Red. masses --      7.8406                 1.7612                 7.4819
 Frc consts  --      0.3027                 0.0902                 0.4101
 IR Inten    --      9.3467                33.5372                22.2315

                     10                     11                     12
                      A                      A                      A
 Frequencies --    319.9822               378.8316               404.3914
 Red. masses --      4.2204                11.4044                13.2224
 Frc consts  --      0.2546                 0.9643                 1.2740
 IR Inten    --     18.4509                 3.2203                 9.6620

                     13                     14                     15
                      A                      A                      A
 Frequencies --    435.8636               488.1494               503.2201
 Red. masses --      9.1872                14.4208                11.4540
 Frc consts  --      1.0283                 2.0246                 1.7089
 IR Inten    --     12.3306               187.1916                81.7477

                     16                     17                     18
                      A                      A                      A
 Frequencies --    544.8448               605.6479               643.3510
 Red. masses --     17.9133                17.3887                16.2139
 Frc consts  --      3.1331                 3.7580                 3.9540
 IR Inten    --      3.4681                 4.7191                12.6421

                     19                     20                     21
                      A                      A                      A
 Frequencies --    765.6598               862.3518               906.6341
 Red. masses --     16.8066                16.0418                17.7900
 Frc consts  --      5.8050                 7.0287                 8.6157
 IR Inten    --     18.9685                87.5980                92.8733

                     22                     23                     24
                      A                      A                      A
 Frequencies --    996.1576              1074.3690              1172.7859
 Red. masses --     13.3691                15.3806                 3.5736
 Frc consts  --      7.8164                10.4599                 2.8960
 IR Inten    --     60.8734                89.8315               230.0084

                     25                     26                     27
                      A                      A                      A
 Frequencies --   1194.5791              1226.3991              1274.7701
 Red. masses --      2.3217                 3.3953                11.0806
 Frc consts  --      1.9520                 3.0088                10.6091
 IR Inten    --     38.0401               103.1985               232.8833

                     28                     29                     30
                      A                      A                      A
 Frequencies --   1292.0542              1393.3845              3755.8571
 Red. masses --     13.1206                12.5089                 1.0655
 Frc consts  --     12.9052                14.3090                 8.8554
 IR Inten    --    290.1847               132.5931               144.1904

 - Thermochemistry -
 -------------------
 Temperature   298.150 Kelvin.  Pressure   1.00000 Atm.
 Atom     1 has atomic number  6 and mass  12.00000

 Molecular mass:   199.95666 amu.
 Principal axes and moments of inertia in atomic units:
                           1         2         3
     Eigenvalues --  1100.601352232.826112607.42745
           X            0.92327  -0.29548  -0.24548
           Y            0.37579   0.82728   0.41759
           Z            0.07969  -0.47780   0.87485
 This molecule is an asymmetric top.
 Rotational symmetry number  1.
 Warning -- assumption of classical behavior for rotation
           may cause significant error
 Rotational temperatures (Kelvin)      0.07870     0.03879     0.03322
 Rotational constants (GHZ):           1.63978     0.80828     0.69215
 Zero-point vibrational energy     131332.8 (Joules/Mol)
                                   31.38929 (Kcal/Mol)
 Warning -- explicit consideration of  17 degrees of freedom as
           vibrations may cause significant error
 Vibrational temperatures:     73.53   103.54   177.84   235.71   318.47
          (Kelvin)            331.22   368.28   424.15   438.86   460.38
                              545.05   581.83   627.11   702.34   724.02
                              783.91   871.39   925.64  1101.61  1240.73
                             1304.44  1433.25  1545.78  1687.38  1718.73
                             1764.51  1834.11  1858.98  2004.77  5403.84

 Zero-point correction=                           0.050022 (Hartree/Particle)
 Thermal correction to Energy=                    0.060749
 Thermal correction to Enthalpy=                  0.061694
 Thermal correction to Gibbs Free Energy=         0.012968
 Sum of electronic and zero-point Energies=          -1199.725149
 Sum of electronic and thermal Energies=             -1199.714421
 Sum of electronic and thermal Enthalpies=           -1199.713477
 Sum of electronic and thermal Free Energies=        -1199.762202

                     E (Thermal)             CV                S
                      KCal/Mol        Cal/Mol-Kelvin    Cal/Mol-Kelvin
 Total                   38.121             37.539            102.551
 Electronic               0.000              0.000              0.000
 Translational            0.889              2.981             41.783
 Rotational               0.889              2.981             30.239
 Vibrational             36.343             31.578             30.528
 Vibration     1          0.595              1.977              4.774
 Vibration     2          0.598              1.967              4.099
 Vibration     3          0.610              1.929              3.043
 Vibration     4          0.623              1.887              2.505
 Vibration     5          0.648              1.809              1.948
 Vibration     6          0.652              1.795              1.877
 Vibration     7          0.666              1.753              1.689
 Vibration     8          0.689              1.683              1.446
 Vibration     9          0.696              1.664              1.389
 Vibration    10          0.706              1.635              1.310
 Vibration    11          0.749              1.515              1.044
 Vibration    12          0.770              1.461              0.947
 Vibration    13          0.796              1.392              0.840
 Vibration    14          0.844              1.276              0.688
 Vibration    15          0.859              1.243              0.650
 Vibration    16          0.900              1.151              0.555
 Vibration    17          0.964              1.020              0.440

 Optimization completed.
    -- Stationary point found.
 Normal termination of Gaussian 16 at Sat May 24 06:38:39 2025.
