 Gaussian 16, Revision C.01,
 Gaussian 16:  ES64L-G16RevC.01  3-Jul-2019

 ----------------------------------------------------------------------
 #P M062X/Def2TZVPP Symm(None) scf(xqc) pop(None) freq opt(CalcFC, Tigh
 t)
 ----------------------------------------------------------------------

 ------------------------------
 Gaussian input prepared by ASE
 ------------------------------
 Symbolic Z-matrix:
 Charge =  0 Multiplicity = 2

 SCF Done:  E(UM062X) =  -337.599902682     A.U. after   14 cycles
 Optimization completed.
    -- Stationary point found.
 Normal termination of Gaussian 16 at Sat May 24 00:36:46 2025.

 ---------------------------------------------------------------------
 #P Geom=AllCheck Guess=TCheck SCRF=Check GenChk UM062X/def2TZVPP Freq
 ---------------------------------------------------------------------

 Structure from the checkpoint file:  "/tmp/Gau-267548.chk"
 ------------------------------
 Gaussian input prepared by ASE
 ------------------------------
 Charge =  0 Multiplicity = 2

                          Input orientation:
 ---------------------------------------------------------------------
 Center     Atomic      Atomic             Coordinates (Angstroms)
 Number     Number       Type             X           Y           Z
 ---------------------------------------------------------------------
      1          6           0       -0.637650   -1.364158    0.198310
      2          9           0       -0.291412   -2.070930   -0.850893
      3          9           0       -0.245010   -1.938984    1.309894
      4          9           0       -1.928756   -1.133956    0.212032
 ---------------------------------------------------------------------

 SCF Done:  E(UM062X) =  -337.599902682     A.U. after    1 cycles

 Isotropic polarizability for W=    0.000000       14.82 Bohr**3.
 End of Minotr F.D. properties file   721 does not exist.

                      1                      2                      3
                      A                      A                      A
 Frequencies --    518.3480               518.4884               712.4331
 Red. masses --     18.2262                18.2272                16.1391
 Frc consts  --      2.8853                 2.8870                 4.8263
 IR Inten    --      2.2938                 2.2723                16.4520

                      4                      5                      6
                      A                      A                      A
 Frequencies --   1126.7367              1317.9819              1318.1720
 Red. masses --     14.5627                13.3496                13.3500
 Frc consts  --     10.8927                13.6627                13.6671
 IR Inten    --     47.1973               366.6302               366.4469

 - Thermochemistry -
 -------------------
 Temperature   298.150 Kelvin.  Pressure   1.00000 Atm.
 Atom     1 has atomic number  6 and mass  12.00000

 Molecular mass:    68.99521 amu.
 Principal axes and moments of inertia in atomic units:
                           1         2         3
     Eigenvalues --   164.61029 164.62065 318.09044
           X           -0.51283   0.72224   0.46408
           Y            0.32682  -0.33563   0.88348
           Z            0.79385   0.60475  -0.06391
 This molecule is an asymmetric top.
 Rotational symmetry number  1.
 Rotational temperatures (Kelvin)      0.52618     0.52614     0.27229
 Rotational constants (GHZ):          10.96372    10.96303     5.67367
 Zero-point vibrational energy      32970.0 (Joules/Mol)
                                    7.88003 (Kcal/Mol)
 Warning -- explicit consideration of   2 degrees of freedom as
           vibrations may cause significant error
 Vibrational temperatures:    745.79   745.99  1025.03  1621.12  1896.28
          (Kelvin)           1896.56

 Zero-point correction=                           0.012558 (Hartree/Particle)
 Thermal correction to Energy=                    0.015963
 Thermal correction to Enthalpy=                  0.016907
 Thermal correction to Gibbs Free Energy=        -0.014112
 Sum of electronic and zero-point Energies=           -337.587345
 Sum of electronic and thermal Energies=              -337.583940
 Sum of electronic and thermal Enthalpies=            -337.582996
 Sum of electronic and thermal Free Energies=         -337.614015

                     E (Thermal)             CV                S
                      KCal/Mol        Cal/Mol-Kelvin    Cal/Mol-Kelvin
 Total                   10.017              9.722             65.285
 Electronic               0.000              0.000              1.377
 Translational            0.889              2.981             38.612
 Rotational               0.889              2.981             23.670
 Vibrational              8.239              3.761              1.625
 Vibration     1          0.873              1.209              0.614
 Vibration     2          0.873              1.209              0.613

 Optimization completed.
    -- Stationary point found.
 Normal termination of Gaussian 16 at Sat May 24 00:37:01 2025.
