 Gaussian 16, Revision C.01,
 Gaussian 16:  ES64L-G16RevC.01  3-Jul-2019

 ----------------------------------------------------------------------
 #P M062X/Def2TZVPP Symm(None) scf(xqc) pop(None) freq opt(CalcFC, Tigh
 t)
 ----------------------------------------------------------------------

 ------------------------------
 Gaussian input prepared by ASE
 ------------------------------
 Symbolic Z-matrix:
 Charge =  0 Multiplicity = 1

 SCF Done:  E(RM062X) =  -413.523744691     A.U. after   12 cycles
 Optimization completed.
    -- Stationary point found.
 Normal termination of Gaussian 16 at Sat May 24 10:46:58 2025.

 ---------------------------------------------------------------------
 #P Geom=AllCheck Guess=TCheck SCRF=Check GenChk RM062X/def2TZVPP Freq
 ---------------------------------------------------------------------

 Structure from the checkpoint file:  "/tmp/Gau-123578.chk"
 ------------------------------
 Gaussian input prepared by ASE
 ------------------------------
 Charge =  0 Multiplicity = 1

                          Input orientation:
 ---------------------------------------------------------------------
 Center     Atomic      Atomic             Coordinates (Angstroms)
 Number     Number       Type             X           Y           Z
 ---------------------------------------------------------------------
      1          6           0       -1.974935    0.155985   -0.299491
      2          8           0       -0.939134    0.905954    0.109206
      3          9           0       -2.134387   -0.937346    0.453214
      4          9           0       -3.131775    0.824479   -0.251674
      5          9           0       -1.757840   -0.219421   -1.544705
      6          1           0       -1.086964    1.187340    1.018483
 ---------------------------------------------------------------------

 SCF Done:  E(RM062X) =  -413.523744691     A.U. after    1 cycles

 Isotropic polarizability for W=    0.000000       19.46 Bohr**3.
 End of Minotr F.D. properties file   721 does not exist.

                      1                      2                      3
                      A                      A                      A
 Frequencies --    223.4065               446.1851               453.8659
 Red. masses --      1.1190                10.4837                 9.7506
 Frc consts  --      0.0329                 1.2297                 1.1834
 IR Inten    --    117.9881                 4.2196                12.1296

                      4                      5                      6
                      A                      A                      A
 Frequencies --    610.4276               631.6380               645.1473
 Red. masses --      6.9290                17.6183                14.9434
 Frc consts  --      1.5212                 4.1414                 3.6645
 IR Inten    --     16.9297                 4.6116                 6.4192

                      7                      8                      9
                      A                      A                      A
 Frequencies --    933.6531              1138.4952              1232.7629
 Red. masses --     15.4981                 1.8774                12.9898
 Frc consts  --      7.9598                 1.4337                11.6309
 IR Inten    --      4.7553               165.0359               406.6045

                     10                     11                     12
                      A                      A                      A
 Frequencies --   1331.0200              1438.7061              3871.2653
 Red. masses --      8.7049                 2.8797                 1.0657
 Frc consts  --      9.0862                 3.5119                 9.4102
 IR Inten    --    535.8738               221.1155               118.9192

 - Thermochemistry -
 -------------------
 Temperature   298.150 Kelvin.  Pressure   1.00000 Atm.
 Atom     1 has atomic number  6 and mass  12.00000

 Molecular mass:    85.99795 amu.
 Principal axes and moments of inertia in atomic units:
                           1         2         3
     Eigenvalues --   314.20545 317.34926 319.76339
           X            0.70678   0.53039  -0.46812
           Y            0.11970   0.56252   0.81807
           Z           -0.69723   0.63423  -0.33409
 This molecule is an asymmetric top.
 Rotational symmetry number  1.
 Rotational temperatures (Kelvin)      0.27566     0.27293     0.27087
 Rotational constants (GHZ):           5.74383     5.68692     5.64399
 Zero-point vibrational energy      77497.5 (Joules/Mol)
                                   18.52235 (Kcal/Mol)
 Warning -- explicit consideration of   4 degrees of freedom as
           vibrations may cause significant error
 Vibrational temperatures:    321.43   641.96   653.01   878.27   908.79
          (Kelvin)            928.22  1343.32  1638.04  1773.67  1915.04
                             2069.98  5569.89

 Zero-point correction=                           0.029517 (Hartree/Particle)
 Thermal correction to Energy=                    0.033937
 Thermal correction to Enthalpy=                  0.034881
 Thermal correction to Gibbs Free Energy=         0.001992
 Sum of electronic and zero-point Energies=           -413.494227
 Sum of electronic and thermal Energies=              -413.489808
 Sum of electronic and thermal Enthalpies=            -413.488864
 Sum of electronic and thermal Free Energies=         -413.521753

                     E (Thermal)             CV                S
                      KCal/Mol        Cal/Mol-Kelvin    Cal/Mol-Kelvin
 Total                   21.296             14.517             69.221
 Electronic               0.000              0.000              0.000
 Translational            0.889              2.981             39.268
 Rotational               0.889              2.981             24.970
 Vibrational             19.518              8.555              4.982
 Vibration     1          0.649              1.805              1.931
 Vibration     2          0.805              1.369              0.807
 Vibration     3          0.812              1.352              0.784
 Vibration     4          0.969              1.010              0.432

 Optimization completed.
    -- Stationary point found.
 Normal termination of Gaussian 16 at Sat May 24 10:47:27 2025.
