 Gaussian 16, Revision C.01,
 Gaussian 16:  ES64L-G16RevC.01  3-Jul-2019

 -----------------------------------------------------------------
 #P M062X/Def2TZVPP Symm(None) scf(xqc) pop(None) freq opt(CalcFC)
 -----------------------------------------------------------------

 ------------------------------
 Gaussian input prepared by ASE
 ------------------------------
 Symbolic Z-matrix:
 Charge =  0 Multiplicity = 1

 SCF Done:  E(RM062X) =  -724.323364708     A.U. after   13 cycles
 SCF Done:  E(RM062X) =  -724.323417352     A.U. after    9 cycles
 Optimization completed.
    -- Stationary point found.
 Normal termination of Gaussian 16 at Sun May 25 04:30:55 2025.

 ---------------------------------------------------------------------
 #P Geom=AllCheck Guess=TCheck SCRF=Check GenChk RM062X/def2TZVPP Freq
 ---------------------------------------------------------------------

 Structure from the checkpoint file:  "1002122340540000000001_well.chk"
 ------------------------------
 Gaussian input prepared by ASE
 ------------------------------
 Charge =  0 Multiplicity = 1

                          Input orientation:
 ---------------------------------------------------------------------
 Center     Atomic      Atomic             Coordinates (Angstroms)
 Number     Number       Type             X           Y           Z
 ---------------------------------------------------------------------
      1          9           0       -0.079629    1.155028   -1.465500
      2         16           0        0.856403    0.671243   -0.330942
      3          8           0        0.112016    0.715802    0.857899
      4          8           0        1.503179   -0.484783   -0.817052
      5          8           0        1.854433    1.870591   -0.317072
      6          1           0        2.573260    1.713581   -0.945395
 ---------------------------------------------------------------------

 SCF Done:  E(RM062X) =  -724.323417352     A.U. after    1 cycles

 Isotropic polarizability for W=    0.000000       27.37 Bohr**3.
 End of Minotr F.D. properties file   721 does not exist.

                      1                      2                      3
                      A                      A                      A
 Frequencies --    288.3855               385.6987               424.4350
 Red. masses --      1.3091                14.9732                 3.7678
 Frc consts  --      0.0641                 1.3124                 0.3999
 IR Inten    --     83.6560                 0.4127                24.7982

                      4                      5                      6
                      A                      A                      A
 Frequencies --    529.4858               555.9206               568.1077
 Red. masses --      7.5210                18.2265                15.3721
 Frc consts  --      1.2423                 3.3188                 2.9231
 IR Inten    --     31.5402                27.8163                45.5867

                      7                      8                      9
                      A                      A                      A
 Frequencies --    869.7509               945.0278              1162.6493
 Red. masses --     19.8459                18.1905                 1.1892
 Frc consts  --      8.8453                 9.5716                 0.9471
 IR Inten    --    171.7211               260.6872                84.1717

                     10                     11                     12
                      A                      A                      A
 Frequencies --   1290.2051              1532.3647              3818.0255
 Red. masses --     18.5302                14.9181                 1.0657
 Frc consts  --     18.1739                20.6390                 9.1530
 IR Inten    --    203.1010               320.2156               184.2868

 - Thermochemistry -
 -------------------
 Temperature   298.150 Kelvin.  Pressure   1.00000 Atm.
 Atom     1 has atomic number  9 and mass  18.99840

 Molecular mass:    99.96304 amu.
 Principal axes and moments of inertia in atomic units:
                           1         2         3
     Eigenvalues --   352.37391 355.76560 361.40184
           X            0.99962   0.01822  -0.02078
           Y            0.01719   0.17875   0.98374
           Z           -0.02164   0.98373  -0.17837
 This molecule is an asymmetric top.
 Rotational symmetry number  1.
 Rotational temperatures (Kelvin)      0.24580     0.24346     0.23966
 Rotational constants (GHZ):           5.12167     5.07284     4.99372
 Zero-point vibrational energy      73989.4 (Joules/Mol)
                                   17.68388 (Kcal/Mol)
 Warning -- explicit consideration of   6 degrees of freedom as
           vibrations may cause significant error
 Vibrational temperatures:    414.92   554.93   610.67   761.81   799.85
          (Kelvin)            817.38  1251.38  1359.68  1672.79  1856.32
                             2204.73  5493.29

 Zero-point correction=                           0.028181 (Hartree/Particle)
 Thermal correction to Energy=                    0.032767
 Thermal correction to Enthalpy=                  0.033711
 Thermal correction to Gibbs Free Energy=         0.000261
 Sum of electronic and zero-point Energies=           -724.295236
 Sum of electronic and thermal Energies=              -724.290650
 Sum of electronic and thermal Enthalpies=            -724.289706
 Sum of electronic and thermal Free Energies=         -724.323156

                     E (Thermal)             CV                S
                      KCal/Mol        Cal/Mol-Kelvin    Cal/Mol-Kelvin
 Total                   20.562             15.421             70.402
 Electronic               0.000              0.000              0.000
 Translational            0.889              2.981             39.717
 Rotational               0.889              2.981             25.319
 Vibrational             18.784              9.459              5.367
 Vibration     1          0.685              1.695              1.483
 Vibration     2          0.754              1.501              1.017
 Vibration     3          0.786              1.417              0.877
 Vibration     4          0.884              1.185              0.588
 Vibration     5          0.911              1.127              0.532
 Vibration     6          0.924              1.100              0.508

 Optimization completed.
    -- Stationary point found.
 Normal termination of Gaussian 16 at Sun May 25 04:31:23 2025.
