 Gaussian 16, Revision C.01,
 Gaussian 16:  ES64L-G16RevC.01  3-Jul-2019

 -----------------------------------------------------------------
 #P M062X/Def2TZVPP Symm(None) scf(xqc) pop(None) freq opt(CalcFC)
 -----------------------------------------------------------------

 ------------------------------
 Gaussian input prepared by ASE
 ------------------------------
 Symbolic Z-matrix:
 Charge =  0 Multiplicity = 1

 SCF Done:  E(RM062X) =  -861.602445152     A.U. after   13 cycles
 Optimization completed.
    -- Stationary point found.
 Normal termination of Gaussian 16 at Sun May 25 05:37:22 2025.

 ---------------------------------------------------------------------
 #P Geom=AllCheck Guess=TCheck SCRF=Check GenChk RM062X/def2TZVPP Freq
 ---------------------------------------------------------------------

 Structure from the checkpoint file:  "1302784824321400000001_well.chk"
 ------------------------------
 Gaussian input prepared by ASE
 ------------------------------
 Charge =  0 Multiplicity = 1

                          Input orientation:
 ---------------------------------------------------------------------
 Center     Atomic      Atomic             Coordinates (Angstroms)
 Number     Number       Type             X           Y           Z
 ---------------------------------------------------------------------
      1          6           0        0.328978   -0.831535    0.009877
      2          9           0       -0.171110   -1.537400    0.990729
      3          9           0        0.525100   -1.581437   -1.043519
      4         16           0        0.165793    0.892596   -0.083201
      5          8           0        1.431643   -0.016463    0.369676
      6          8           0        0.360341    1.504750   -1.343838
      7          8           0       -0.444218    1.556336    1.007258
 ---------------------------------------------------------------------

 SCF Done:  E(RM062X) =  -861.602445152     A.U. after    1 cycles

 Isotropic polarizability for W=    0.000000       37.81 Bohr**3.
 End of Minotr F.D. properties file   721 does not exist.

                      1                      2                      3
                      A                      A                      A
 Frequencies --    163.1995               212.5716               307.9571
 Red. masses --     17.0538                17.5682                17.6867
 Frc consts  --      0.2676                 0.4677                 0.9883
 IR Inten    --      3.0819                 0.4148                 2.6721

                      4                      5                      6
                      A                      A                      A
 Frequencies --    444.9467               458.2970               512.9518
 Red. masses --     18.1363                19.3386                17.0145
 Frc consts  --      2.1155                 2.3931                 2.6377
 IR Inten    --      7.2215                21.4809                14.6835

                      7                      8                      9
                      A                      A                      A
 Frequencies --    524.4536               551.7889               664.9942
 Red. masses --     16.6847                16.4430                18.3125
 Frc consts  --      2.7038                 2.9497                 4.7713
 IR Inten    --      6.8155                 3.6655               137.4995

                     10                     11                     12
                      A                      A                      A
 Frequencies --    790.2032              1118.4445              1219.9371
 Red. masses --     17.8873                14.7778                16.2380
 Frc consts  --      6.5807                10.8915                14.2383
 IR Inten    --      6.3270               157.4623               416.7809

                     13                     14                     15
                      A                      A                      A
 Frequencies --   1337.2206              1421.0734              1480.1139
 Red. masses --     13.3935                14.6164                20.5401
 Frc consts  --     14.1108                17.3909                26.5121
 IR Inten    --    186.5068               117.8807               265.2494

 - Thermochemistry -
 -------------------
 Temperature   298.150 Kelvin.  Pressure   1.00000 Atm.
 Atom     1 has atomic number  6 and mass  12.00000

 Molecular mass:   129.95362 amu.
 Principal axes and moments of inertia in atomic units:
                           1         2         3
     Eigenvalues --   430.03552 818.698721055.29061
           X           -0.08013  -0.32366   0.94277
           Y            0.99559   0.02037   0.09161
           Z           -0.04885   0.94595   0.32060
 This molecule is an asymmetric top.
 Rotational symmetry number  1.
 Rotational temperatures (Kelvin)      0.20141     0.10579     0.08208
 Rotational constants (GHZ):           4.19673     2.20440     1.71018
 Zero-point vibrational energy      67039.6 (Joules/Mol)
                                   16.02286 (Kcal/Mol)
 Warning -- explicit consideration of   8 degrees of freedom as
           vibrations may cause significant error
 Vibrational temperatures:    234.81   305.84   443.08   640.18   659.39
          (Kelvin)            738.02   754.57   793.90   956.78  1136.93
                             1609.19  1755.22  1923.96  2044.61  2129.55

 Zero-point correction=                           0.025534 (Hartree/Particle)
 Thermal correction to Energy=                    0.031343
 Thermal correction to Enthalpy=                  0.032287
 Thermal correction to Gibbs Free Energy=        -0.004716
 Sum of electronic and zero-point Energies=           -861.576911
 Sum of electronic and thermal Energies=              -861.571102
 Sum of electronic and thermal Enthalpies=            -861.570158
 Sum of electronic and thermal Free Energies=         -861.607161

                     E (Thermal)             CV                S
                      KCal/Mol        Cal/Mol-Kelvin    Cal/Mol-Kelvin
 Total                   19.668             19.928             77.879
 Electronic               0.000              0.000              0.000
 Translational            0.889              2.981             40.499
 Rotational               0.889              2.981             27.410
 Vibrational             17.891             13.967              9.970
 Vibration     1          0.623              1.888              2.512
 Vibration     2          0.644              1.822              2.021
 Vibration     3          0.698              1.659              1.373
 Vibration     4          0.804              1.372              0.811
 Vibration     5          0.816              1.343              0.771
 Vibration     6          0.868              1.221              0.627
 Vibration     7          0.879              1.196              0.600
 Vibration     8          0.907              1.136              0.540

 Optimization completed.
    -- Stationary point found.
 Normal termination of Gaussian 16 at Sun May 25 05:38:30 2025.
