 Gaussian 16, Revision C.01,
 Gaussian 16:  ES64L-G16RevC.01  3-Jul-2019

 -----------------------------------------------------------------
 #P M062X/Def2TZVPP Symm(None) scf(xqc) pop(None) freq opt(CalcFC)
 -----------------------------------------------------------------

 ------------------------------
 Gaussian input prepared by ASE
 ------------------------------
 Symbolic Z-matrix:
 Charge =  0 Multiplicity = 2

 SCF Done:  E(UM062X) =  -862.189657198     A.U. after   17 cycles
 SCF Done:  E(UM062X) =  -862.192110910     A.U. after   14 cycles
 SCF Done:  E(UM062X) =  -862.192242343     A.U. after   13 cycles
 SCF Done:  E(UM062X) =  -862.192247229     A.U. after    9 cycles
 Optimization completed.
    -- Stationary point found.
 Normal termination of Gaussian 16 at Sun May 25 03:25:44 2025.

 ---------------------------------------------------------------------
 #P Geom=AllCheck Guess=TCheck SCRF=Check GenChk UM062X/def2TZVPP Freq
 ---------------------------------------------------------------------

 Structure from the checkpoint file:  "1312673532570400000002_well.chk"
 ------------------------------
 Gaussian input prepared by ASE
 ------------------------------
 Charge =  0 Multiplicity = 2

                          Input orientation:
 ---------------------------------------------------------------------
 Center     Atomic      Atomic             Coordinates (Angstroms)
 Number     Number       Type             X           Y           Z
 ---------------------------------------------------------------------
      1          6           0       -0.016432   -0.071982    0.118575
      2          9           0       -0.564481    0.417601    1.201738
      3          9           0       -0.464860   -1.268377   -0.161401
      4         16           0        1.775346    0.059655    0.059782
      5          8           0        2.321264   -0.423141    1.273009
      6          8           0        2.166650   -0.422201   -1.216676
      7          8           0        1.914977    1.626237    0.091887
      8          1           0        1.908992    1.976455   -0.810074
 ---------------------------------------------------------------------

 SCF Done:  E(UM062X) =  -862.192247229     A.U. after    1 cycles

 Isotropic polarizability for W=    0.000000       40.17 Bohr**3.
 End of Minotr F.D. properties file   721 does not exist.

                      1                      2                      3
                      A                      A                      A
 Frequencies --     56.0036               189.5635               194.8258
 Red. masses --     15.0113                14.8176                 7.4279
 Frc consts  --      0.0277                 0.3137                 0.1661
 IR Inten    --      0.8116                 3.2770                13.8013

                      4                      5                      6
                      A                      A                      A
 Frequencies --    319.1884               345.9443               386.1681
 Red. masses --      3.0513                 3.1521                 3.6457
 Frc consts  --      0.1832                 0.2223                 0.3203
 IR Inten    --     26.4929                33.7810                23.3921

                      7                      8                      9
                      A                      A                      A
 Frequencies --    461.6128               524.1762               582.5837
 Red. masses --      4.3915                14.3604                17.7444
 Frc consts  --      0.5513                 2.3247                 3.5484
 IR Inten    --     31.1287                18.1755                54.5150

                     10                     11                     12
                      A                      A                      A
 Frequencies --    615.0873               732.2247               911.5402
 Red. masses --     12.1635                16.8982                17.4654
 Frc consts  --      2.7113                 5.3380                 8.5503
 IR Inten    --     60.2810                23.6080               231.6680

                     13                     14                     15
                      A                      A                      A
 Frequencies --   1142.8604              1233.3435              1323.2462
 Red. masses --      1.1830                16.9811                14.1713
 Frc consts  --      0.9104                15.2189                14.6198
 IR Inten    --     86.4734               187.4987                61.9317

                     16                     17                     18
                      A                      A                      A
 Frequencies --   1335.9673              1486.9543              3814.9227
 Red. masses --     13.6984                15.1934                 1.0657
 Frc consts  --     14.4049                19.7924                 9.1380
 IR Inten    --    238.8340               280.2850               179.4877

 - Thermochemistry -
 -------------------
 Temperature   298.150 Kelvin.  Pressure   1.00000 Atm.
 Atom     1 has atomic number  6 and mass  12.00000

 Molecular mass:   130.96145 amu.
 Principal axes and moments of inertia in atomic units:
                           1         2         3
     Eigenvalues --   516.92316 885.279791040.04816
           X            0.94549  -0.08541   0.31424
           Y            0.26634   0.75805  -0.59534
           Z           -0.18736   0.64658   0.73948
 This molecule is an asymmetric top.
 Rotational symmetry number  1.
 Warning -- assumption of classical behavior for rotation
           may cause significant error
 Rotational temperatures (Kelvin)      0.16756     0.09784     0.08328
 Rotational constants (GHZ):           3.49131     2.03861     1.73525
 Zero-point vibrational energy      93644.9 (Joules/Mol)
                                   22.38168 (Kcal/Mol)
 Warning -- explicit consideration of  10 degrees of freedom as
           vibrations may cause significant error
 Vibrational temperatures:     80.58   272.74   280.31   459.24   497.74
          (Kelvin)            555.61   664.16   754.17   838.21   884.97
                             1053.51  1311.50  1644.32  1774.51  1903.86
                             1922.16  2139.40  5488.82

 Zero-point correction=                           0.035667 (Hartree/Particle)
 Thermal correction to Energy=                    0.042549
 Thermal correction to Enthalpy=                  0.043494
 Thermal correction to Gibbs Free Energy=         0.003157
 Sum of electronic and zero-point Energies=           -862.156580
 Sum of electronic and thermal Energies=              -862.149698
 Sum of electronic and thermal Enthalpies=            -862.148754
 Sum of electronic and thermal Free Energies=         -862.189090

                     E (Thermal)             CV                S
                      KCal/Mol        Cal/Mol-Kelvin    Cal/Mol-Kelvin
 Total                   26.700             22.988             84.895
 Electronic               0.000              0.000              1.377
 Translational            0.889              2.981             40.522
 Rotational               0.889              2.981             27.656
 Vibrational             24.923             17.027             15.340
 Vibration     1          0.596              1.975              4.593
 Vibration     2          0.633              1.854              2.232
 Vibration     3          0.635              1.847              2.181
 Vibration     4          0.705              1.637              1.314
 Vibration     5          0.724              1.584              1.185
 Vibration     6          0.755              1.500              1.015
 Vibration     7          0.819              1.335              0.761
 Vibration     8          0.879              1.196              0.600
 Vibration     9          0.939              1.069              0.481
 Vibration    10          0.975              1.000              0.424

 Optimization completed.
    -- Stationary point found.
 Normal termination of Gaussian 16 at Sun May 25 03:28:00 2025.
