 Gaussian 16, Revision C.01,
 Gaussian 16:  ES64L-G16RevC.01  3-Jul-2019

 -----------------------------------------------------------------
 #P M062X/Def2TZVPP Symm(None) scf(xqc) pop(None) freq opt(CalcFC)
 -----------------------------------------------------------------

 ------------------------------
 Gaussian input prepared by ASE
 ------------------------------
 Symbolic Z-matrix:
 Charge =  0 Multiplicity = 1

 SCF Done:  E(RM062X) =  -886.881423728     A.U. after   14 cycles
 SCF Done:  E(RM062X) =  -886.887400769     A.U. after   13 cycles
 SCF Done:  E(RM062X) =  -886.887905189     A.U. after   13 cycles
 SCF Done:  E(RM062X) =  -886.887941100     A.U. after   11 cycles
 SCF Done:  E(RM062X) =  -886.887942417     A.U. after    9 cycles
 SCF Done:  E(RM062X) =  -886.887942604     A.U. after    8 cycles
 Optimization completed.
    -- Stationary point found.
 Normal termination of Gaussian 16 at Sun May 25 03:24:37 2025.

 ---------------------------------------------------------------------
 #P Geom=AllCheck Guess=TCheck SCRF=Check GenChk RM062X/def2TZVPP Freq
 ---------------------------------------------------------------------

 Structure from the checkpoint file:  "1342503882400600000001_well.chk"
 ------------------------------
 Gaussian input prepared by ASE
 ------------------------------
 Charge =  0 Multiplicity = 1

                          Input orientation:
 ---------------------------------------------------------------------
 Center     Atomic      Atomic             Coordinates (Angstroms)
 Number     Number       Type             X           Y           Z
 ---------------------------------------------------------------------
      1          6           0       -0.011072   -0.019697    0.049260
      2          9           0       -0.457413    0.721255   -0.960537
      3          9           0       -0.501463    0.460587    1.183486
      4          9           0       -0.426170   -1.264045   -0.112088
      5         16           0        1.860989    0.009295    0.087317
      6          8           0        2.219803   -0.509341   -1.218814
      7          8           0        1.948792    1.614111    0.075837
      8          1           0        1.595352    1.964826   -0.757898
 ---------------------------------------------------------------------

 SCF Done:  E(RM062X) =  -886.887942604     A.U. after    1 cycles

 Isotropic polarizability for W=    0.000000       39.84 Bohr**3.
 End of Minotr F.D. properties file   721 does not exist.

                      1                      2                      3
                      A                      A                      A
 Frequencies --     71.7468               187.9026               223.8088
 Red. masses --     12.5091                13.2910                 6.5365
 Frc consts  --      0.0379                 0.2765                 0.1929
 IR Inten    --      0.9591                 4.8343                 7.1927

                      4                      5                      6
                      A                      A                      A
 Frequencies --    293.0335               341.4909               376.8338
 Red. masses --      6.4034                 4.1580                 3.5249
 Frc consts  --      0.3240                 0.2857                 0.2949
 IR Inten    --      9.4839                 8.1034                19.6276

                      7                      8                      9
                      A                      A                      A
 Frequencies --    485.2511               506.5045               556.6045
 Red. masses --     10.3585                 2.6376                17.3977
 Frc consts  --      1.4371                 0.3987                 3.1757
 IR Inten    --     25.9289               133.5839                 1.2141

                     10                     11                     12
                      A                      A                      A
 Frequencies --    593.9128               772.2184               839.4359
 Red. masses --     12.8650                17.5104                16.5667
 Frc consts  --      2.6737                 6.1522                 6.8780
 IR Inten    --     26.1562                 2.8381               165.7883

                     13                     14                     15
                      A                      A                      A
 Frequencies --   1142.8472              1200.2862              1251.9866
 Red. masses --      1.3384                 8.7032                12.2978
 Frc consts  --      1.0299                 7.3875                11.3574
 IR Inten    --     86.2205               219.7715                36.9037

                     16                     17                     18
                      A                      A                      A
 Frequencies --   1265.4045              1293.2492              3750.0988
 Red. masses --      9.2799                12.3641                 1.0648
 Frc consts  --      8.7549                12.1837                 8.8230
 IR Inten    --    216.5425               395.5939               104.7320

 - Thermochemistry -
 -------------------
 Temperature   298.150 Kelvin.  Pressure   1.00000 Atm.
 Atom     1 has atomic number  6 and mass  12.00000

 Molecular mass:   133.96494 amu.
 Principal axes and moments of inertia in atomic units:
                           1         2         3
     Eigenvalues --   533.72484 898.673901050.50658
           X            0.96488  -0.06941   0.25336
           Y            0.17487   0.88943  -0.42230
           Z           -0.19604   0.45177   0.87033
 This molecule is an asymmetric top.
 Rotational symmetry number  1.
 Warning -- assumption of classical behavior for rotation
           may cause significant error
 Rotational temperatures (Kelvin)      0.16228     0.09638     0.08245
 Rotational constants (GHZ):           3.38141     2.00823     1.71797
 Zero-point vibrational energy      90632.8 (Joules/Mol)
                                   21.66175 (Kcal/Mol)
 Warning -- explicit consideration of  10 degrees of freedom as
           vibrations may cause significant error
 Vibrational temperatures:    103.23   270.35   322.01   421.61   491.33
          (Kelvin)            542.18   698.17   728.75   800.83   854.51
                             1111.05  1207.76  1644.30  1726.94  1801.33
                             1820.63  1860.70  5395.56

 Zero-point correction=                           0.034520 (Hartree/Particle)
 Thermal correction to Energy=                    0.041413
 Thermal correction to Enthalpy=                  0.042357
 Thermal correction to Gibbs Free Energy=         0.002816
 Sum of electronic and zero-point Energies=           -886.853422
 Sum of electronic and thermal Energies=              -886.846529
 Sum of electronic and thermal Enthalpies=            -886.845585
 Sum of electronic and thermal Free Energies=         -886.885126

                     E (Thermal)             CV                S
                      KCal/Mol        Cal/Mol-Kelvin    Cal/Mol-Kelvin
 Total                   25.987             23.304             83.221
 Electronic               0.000              0.000              0.000
 Translational            0.889              2.981             40.590
 Rotational               0.889              2.981             27.713
 Vibrational             24.210             17.342             14.919
 Vibration     1          0.598              1.967              4.105
 Vibration     2          0.633              1.856              2.248
 Vibration     3          0.649              1.805              1.928
 Vibration     4          0.688              1.687              1.456
 Vibration     5          0.721              1.593              1.205
 Vibration     6          0.747              1.519              1.052
 Vibration     7          0.841              1.283              0.696
 Vibration     8          0.862              1.236              0.642
 Vibration     9          0.912              1.125              0.531
 Vibration    10          0.952              1.045              0.460

 Optimization completed.
    -- Stationary point found.
 Normal termination of Gaussian 16 at Sun May 25 03:25:55 2025.
