 Gaussian 16, Revision C.01,
 Gaussian 16:  ES64L-G16RevC.01  3-Jul-2019

 -----------------------------------------------------------------
 #P M062X/Def2TZVPP Symm(None) scf(xqc) pop(None) freq opt(CalcFC)
 -----------------------------------------------------------------

 ------------------------------
 Gaussian input prepared by ASE
 ------------------------------
 Symbolic Z-matrix:
 Charge =  0 Multiplicity = 2

 SCF Done:  E(UM062X) =  -961.432918506     A.U. after   33 cycles
 SCF Done:  E(UM062X) =  -961.432918506     a.u. after    2 cycles
 SCF Done:  E(UM062X) =  -961.434605771     A.U. after   23 cycles
 SCF Done:  E(UM062X) =  -961.434643964     A.U. after   19 cycles
 SCF Done:  E(UM062X) =  -961.434646223     A.U. after   17 cycles
 SCF Done:  E(UM062X) =  -961.434646490     A.U. after   16 cycles
 Optimization completed.
    -- Stationary point found.
 Normal termination of Gaussian 16 at Sun May 25 03:28:09 2025.

 ---------------------------------------------------------------------
 #P Geom=AllCheck Guess=TCheck SCRF=Check GenChk UM062X/def2TZVPP Freq
 ---------------------------------------------------------------------

 Structure from the checkpoint file:  "1492814473150000000002_well.chk"
 ------------------------------
 Gaussian input prepared by ASE
 ------------------------------
 Charge =  0 Multiplicity = 2

                          Input orientation:
 ---------------------------------------------------------------------
 Center     Atomic      Atomic             Coordinates (Angstroms)
 Number     Number       Type             X           Y           Z
 ---------------------------------------------------------------------
      1          6           0       -0.083693   -0.060161    0.057842
      2          9           0       -0.594010    0.580080   -0.976400
      3          9           0       -0.555062    0.456864    1.176107
      4          9           0       -0.398890   -1.339579   -0.009633
      5         16           0        1.749573    0.096558    0.033164
      6          8           0        2.231583   -0.480528    1.239755
      7          8           0        2.184911   -0.334193   -1.249825
      8          8           0        1.976173    1.592918    0.117579
 ---------------------------------------------------------------------

 SCF Done:  E(UM062X) =  -961.434646490     A.U. after    1 cycles

 Isotropic polarizability for W=    0.000000       44.37 Bohr**3.
 End of Minotr F.D. properties file   721 does not exist.

                      1                      2                      3
                      A                      A                      A
 Frequencies --     51.8344                65.5434               183.0658
 Red. masses --     17.2191                17.3231                17.5154
 Frc consts  --      0.0273                 0.0438                 0.3458
 IR Inten    --      0.0216                 0.0004                 1.0483

                      4                      5                      6
                      A                      A                      A
 Frequencies --    197.5060               310.0978               331.1915
 Red. masses --     17.4083                17.6462                16.8408
 Frc consts  --      0.4001                 0.9998                 1.0884
 IR Inten    --      3.0388                 0.8704                 1.0067

                      7                      8                      9
                      A                      A                      A
 Frequencies --    366.4001               397.4608               560.7452
 Red. masses --     18.9731                21.8016                18.2932
 Frc consts  --      1.5007                 2.0292                 3.3890
 IR Inten    --      1.6195                 2.8578                12.5635

                     10                     11                     12
                      A                      A                      A
 Frequencies --    566.2790               610.6297               709.8103
 Red. masses --     17.9651                19.3199                17.7314
 Frc consts  --      3.3942                 4.2443                 5.2635
 IR Inten    --      0.5689               104.2631               127.2089

                     13                     14                     15
                      A                      A                      A
 Frequencies --    807.9232              1136.8979              1278.0481
 Red. masses --     18.7615                15.5907                14.9214
 Frc consts  --      7.2153                11.8729                14.3600
 IR Inten    --      8.8507               223.9105                37.5661

                     16                     17                     18
                      A                      A                      A
 Frequencies --   1293.5598              1296.1591              1362.5897
 Red. masses --     13.5762                13.2548                19.0193
 Frc consts  --     13.3844                13.1202                20.8054
 IR Inten    --    172.7552               231.1727               130.1344

 - Thermochemistry -
 -------------------
 Temperature   298.150 Kelvin.  Pressure   1.00000 Atm.
 Atom     1 has atomic number  6 and mass  12.00000

 Molecular mass:   148.95203 amu.
 Principal axes and moments of inertia in atomic units:
                           1         2         3
     Eigenvalues --   649.240261116.661391138.26827
           X            0.99111   0.01802  -0.13180
           Y            0.13262  -0.05648   0.98956
           Z           -0.01039   0.99824   0.05837
 This molecule is an asymmetric top.
 Rotational symmetry number  1.
 Warning -- assumption of classical behavior for rotation
           may cause significant error
 Rotational temperatures (Kelvin)      0.13341     0.07757     0.07609
 Rotational constants (GHZ):           2.77977     1.61619     1.58551
 Zero-point vibrational energy      68939.2 (Joules/Mol)
                                   16.47688 (Kcal/Mol)
 Warning -- explicit consideration of  11 degrees of freedom as
           vibrations may cause significant error
 Vibrational temperatures:     74.58    94.30   263.39   284.17   446.16
          (Kelvin)            476.51   527.17   571.86   806.79   814.75
                              878.56  1021.26  1162.42  1635.74  1838.83
                             1861.14  1864.88  1960.46

 Zero-point correction=                           0.026258 (Hartree/Particle)
 Thermal correction to Energy=                    0.034089
 Thermal correction to Enthalpy=                  0.035033
 Thermal correction to Gibbs Free Energy=        -0.008096
 Sum of electronic and zero-point Energies=           -961.408389
 Sum of electronic and thermal Energies=              -961.400558
 Sum of electronic and thermal Enthalpies=            -961.399614
 Sum of electronic and thermal Free Energies=         -961.442743

                     E (Thermal)             CV                S
                      KCal/Mol        Cal/Mol-Kelvin    Cal/Mol-Kelvin
 Total                   21.391             25.408             90.772
 Electronic               0.000              0.000              1.377
 Translational            0.889              2.981             40.906
 Rotational               0.889              2.981             28.203
 Vibrational             19.614             19.447             20.287
 Vibration     1          0.596              1.977              4.746
 Vibration     2          0.597              1.971              4.283
 Vibration     3          0.631              1.863              2.297
 Vibration     4          0.637              1.843              2.156
 Vibration     5          0.699              1.654              1.362
 Vibration     6          0.714              1.613              1.254
 Vibration     7          0.739              1.541              1.095
 Vibration     8          0.764              1.476              0.972
 Vibration     9          0.916              1.116              0.522
 Vibration    10          0.922              1.104              0.511
 Vibration    11          0.970              1.009              0.432

                           ! Non-Optimized Parameters !
 Normal termination of Gaussian 16 at Sun May 25 03:30:27 2025.
