 Gaussian 16, Revision C.01,
 Gaussian 16:  ES64L-G16RevC.01  3-Jul-2019

 ----------------------------------------------------------------------
 #P mp2/6-31G Symm(None) scf(xqc) pop(None) guess(Mix,Always) freq opt(
 CalcFC)
 ----------------------------------------------------------------------

 ------------------------------
 Gaussian input prepared by ASE
 ------------------------------
 Symbolic Z-matrix:
 Charge =  0 Multiplicity = 1

 SCF Done:  E(RHF) =  -958.304808568     A.U. after   17 cycles
 E2 =    -0.9532769881D+00 EUMP2 =    -0.95925808555586D+03
 E2 =    -0.9532769881D+00 EUMP2 =    -0.95925808555586D+03
 SCF Done:  E(RHF) =  -958.305122353     A.U. after   19 cycles
 E2 =    -0.9531795103D+00 EUMP2 =    -0.95925830186325D+03
 SCF Done:  E(RHF) =  -958.306511841     A.U. after   18 cycles
 E2 =    -0.9525260813D+00 EUMP2 =    -0.95925903792249D+03
 SCF Done:  E(RHF) =  -958.309272277     A.U. after   18 cycles
 E2 =    -0.9509745508D+00 EUMP2 =    -0.95926024682737D+03
 SCF Done:  E(RHF) =  -958.307744323     A.U. after   19 cycles
 E2 =    -0.9494647860D+00 EUMP2 =    -0.95925720910919D+03
 SCF Done:  E(RHF) =  -958.309870505     A.U. after   19 cycles
 E2 =    -0.9506848508D+00 EUMP2 =    -0.95926055535545D+03
 SCF Done:  E(RHF) =  -958.309985323     A.U. after   19 cycles
 E2 =    -0.9506324255D+00 EUMP2 =    -0.95926061774849D+03
 SCF Done:  E(RHF) =  -958.310130136     A.U. after   19 cycles
 E2 =    -0.9505031435D+00 EUMP2 =    -0.95926063327969D+03
 SCF Done:  E(RHF) =  -958.310059226     A.U. after   19 cycles
 E2 =    -0.9505763513D+00 EUMP2 =    -0.95926063557771D+03
 SCF Done:  E(RHF) =  -958.310068693     A.U. after   19 cycles
 E2 =    -0.9505673425D+00 EUMP2 =    -0.95926063603534D+03
 SCF Done:  E(RHF) =  -958.310070546     A.U. after   19 cycles
 E2 =    -0.9505660528D+00 EUMP2 =    -0.95926063659902D+03
 SCF Done:  E(RHF) =  -958.310076512     A.U. after   17 cycles
 E2 =    -0.9505605165D+00 EUMP2 =    -0.95926063702823D+03
 SCF Done:  E(RHF) =  -958.310077359     A.U. after   17 cycles
 E2 =    -0.9505597054D+00 EUMP2 =    -0.95926063706426D+03
 Optimization completed.
    -- Stationary point found.
 Normal termination of Gaussian 16 at Sun May 25 03:37:26 2025.

 -------------------------------------------------------------------
 #P Geom=AllCheck Guess=TCheck SCRF=Check GenChk RMP2(FC)/6-31G Freq
 -------------------------------------------------------------------

 Structure from the checkpoint file:  "1502984803620600000001_R_Addition_MultipleBond_5_1_2_IRC_F_prod.chk"
 ------------------------------
 Gaussian input prepared by ASE
 ------------------------------
 Charge =  0 Multiplicity = 1

                          Input orientation:
 ---------------------------------------------------------------------
 Center     Atomic      Atomic             Coordinates (Angstroms)
 Number     Number       Type             X           Y           Z
 ---------------------------------------------------------------------
      1          6           0       -1.014697   -0.105313    0.091680
      2          9           0       -1.549595    1.073327    0.551166
      3          9           0       -1.350986   -1.149606    0.932777
      4          9           0       -1.413972   -0.376148   -1.194273
      5         16           0        0.961979    0.038285    0.126114
      6          8           0        1.443020    0.523527    1.566581
      7          8           0        1.608880   -1.245057   -0.564068
      8          8           0        0.875081    1.432109   -1.037727
      9          1           0        1.790944    1.759190   -1.238310
 ---------------------------------------------------------------------

 SCF Done:  E(RHF) =  -958.310077359     A.U. after    1 cycles
 E2 =    -0.9505597062D+00 EUMP2 =    -0.95926063706505D+03
 E2 =    -0.9505597062D+00 EUMP2 =    -0.95926063706505D+03

                      1                      2                      3
                      A                      A                      A
 Frequencies --     28.9759                87.5961               143.4560
 Red. masses --      9.1189                 1.3663                 5.2062
 Frc consts  --      0.0045                 0.0062                 0.0631
 IR Inten    --     11.8345               103.4329                10.5587

                      4                      5                      6
                      A                      A                      A
 Frequencies --    160.4396               231.6307               266.4701
 Red. masses --     10.3536                12.3065                11.4506
 Frc consts  --      0.1570                 0.3890                 0.4790
 IR Inten    --      2.3980                 6.8349                22.6879

                      7                      8                      9
                      A                      A                      A
 Frequencies --    268.0301               361.7313               374.1154
 Red. masses --     14.4908                15.4306                13.1966
 Frc consts  --      0.6134                 1.1896                 1.0882
 IR Inten    --      5.7801                42.2866                12.2857

                     10                     11                     12
                      A                      A                      A
 Frequencies --    466.3273               484.2332               491.8937
 Red. masses --     13.4563                17.4851                17.8845
 Frc consts  --      1.7241                 2.4156                 2.5496
 IR Inten    --    103.9387                12.9394                 1.5131

                     13                     14                     15
                      A                      A                      A
 Frequencies --    617.6555               689.5267               965.6786
 Red. masses --     17.9579                16.5738                12.7812
 Frc consts  --      4.0364                 4.6427                 7.0224
 IR Inten    --    174.7599                15.0774               145.2093

                     16                     17                     18
                      A                      A                      A
 Frequencies --   1048.4193              1107.0144              1120.0518
 Red. masses --      3.9964                 1.5541                20.0703
 Frc consts  --      2.5881                 1.1221                14.8348
 IR Inten    --    236.9448               143.4276               166.7649

                     19                     20                     21
                      A                      A                      A
 Frequencies --   1215.6368              1236.2948              3522.4234
 Red. masses --      8.8234                13.3341                 1.0663
 Frc consts  --      7.6824                12.0077                 7.7951
 IR Inten    --    144.6562               234.4532                95.2836

 - Thermochemistry -
 -------------------
 Temperature   298.150 Kelvin.  Pressure   1.00000 Atm.
 Atom     1 has atomic number  6 and mass  12.00000

 Molecular mass:   149.95985 amu.
 Principal axes and moments of inertia in atomic units:
                           1         2         3
     Eigenvalues --   807.266391294.113971311.36680
           X            0.99501  -0.07992  -0.05973
           Y            0.09963   0.76339   0.63820
           Z           -0.00541  -0.64097   0.76755
 This molecule is an asymmetric top.
 Rotational symmetry number  1.
 Warning -- assumption of classical behavior for rotation
           may cause significant error
 Rotational temperatures (Kelvin)      0.10729     0.06693     0.06605
 Rotational constants (GHZ):           2.23562     1.39458     1.37623
 Zero-point vibrational energy      89047.6 (Joules/Mol)
                                   21.28289 (Kcal/Mol)
 Warning -- explicit consideration of  13 degrees of freedom as
           vibrations may cause significant error
 Vibrational temperatures:     41.69   126.03   206.40   230.84   333.26
          (Kelvin)            383.39   385.64   520.45   538.27   670.94
                              696.70   707.73   888.67   992.08  1389.40
                             1508.44  1592.75  1611.50  1749.03  1778.75
                             5067.98

 Zero-point correction=                           0.033916 (Hartree/Particle)
 Thermal correction to Energy=                    0.042924
 Thermal correction to Enthalpy=                  0.043868
 Thermal correction to Gibbs Free Energy=        -0.001297
 Sum of electronic and zero-point Energies=           -959.226721
 Sum of electronic and thermal Energies=              -959.217713
 Sum of electronic and thermal Enthalpies=            -959.216769
 Sum of electronic and thermal Free Energies=         -959.261934

                     E (Thermal)             CV                S
                      KCal/Mol        Cal/Mol-Kelvin    Cal/Mol-Kelvin
 Total                   26.935             29.419             95.058
 Electronic               0.000              0.000              0.000
 Translational            0.889              2.981             40.926
 Rotational               0.889              2.981             28.706
 Vibrational             25.158             23.458             25.426
 Vibration     1          0.593              1.984              5.898
 Vibration     2          0.601              1.958              3.713
 Vibration     3          0.616              1.910              2.757
 Vibration     4          0.622              1.891              2.545
 Vibration     5          0.653              1.793              1.866
 Vibration     6          0.672              1.735              1.619
 Vibration     7          0.673              1.732              1.609
 Vibration     8          0.736              1.551              1.115
 Vibration     9          0.745              1.525              1.063
 Vibration    10          0.824              1.325              0.748
 Vibration    11          0.840              1.285              0.699
 Vibration    12          0.848              1.268              0.679
 Vibration    13          0.977              0.995              0.420

 Optimization completed.
    -- Stationary point found.
 Normal termination of Gaussian 16 at Sun May 25 03:37:38 2025.
