 Gaussian 16, Revision C.01,
 Gaussian 16:  ES64L-G16RevC.01  3-Jul-2019

 ----------------------------------------------------------------------
 #P M062X/Def2TZVPP Symm(None) scf(xqc) pop(None) opt(NoFreeze,TS,CalcA
 ll,NoEigentest,MaxCycle=999)
 ----------------------------------------------------------------------

 ------------------------------
 Gaussian input prepared by ASE
 ------------------------------
 Symbolic Z-matrix:
 Charge =  0 Multiplicity = 1

 SCF Done:  E(RM062X) =  -961.793410985     A.U. after   23 cycles
 SCF Done:  E(RM062X) =  -961.814186116     A.U. after   18 cycles
 SCF Done:  E(RM062X) =  -961.830433882     A.U. after   19 cycles
 SCF Done:  E(RM062X) =  -961.844205360     A.U. after   20 cycles
 SCF Done:  E(RM062X) =  -961.857339515     A.U. after   20 cycles
 SCF Done:  E(RM062X) =  -961.869417535     A.U. after   20 cycles
 SCF Done:  E(RM062X) =  -961.878774001     A.U. after   20 cycles
 SCF Done:  E(RM062X) =  -961.883742431     A.U. after   21 cycles
 SCF Done:  E(RM062X) =  -961.884490326     A.U. after   21 cycles
 SCF Done:  E(RM062X) =  -961.882354780     A.U. after   21 cycles
 SCF Done:  E(RM062X) =  -961.995147356     A.U. after   13 cycles
 SCF Done:  E(RM062X) =  -962.011594387     A.U. after   12 cycles
 SCF Done:  E(RM062X) =  -962.027987029     A.U. after   12 cycles
 SCF Done:  E(RM062X) =  -962.040337328     A.U. after   13 cycles
 SCF Done:  E(RM062X) =  -962.045458588     A.U. after   13 cycles
 SCF Done:  E(RM062X) =  -962.046480415     A.U. after   13 cycles
 SCF Done:  E(RM062X) =  -962.047123975     A.U. after   14 cycles
 SCF Done:  E(RM062X) =  -962.047357495     A.U. after   12 cycles
 SCF Done:  E(RM062X) =  -962.047377518     A.U. after   11 cycles
 SCF Done:  E(RM062X) =  -962.047377709     A.U. after    8 cycles

 Isotropic polarizability for W=    0.000000       44.40 Bohr**3.
 End of Minotr F.D. properties file   721 does not exist.

 Optimization completed.
    -- Stationary point found.

                          Input orientation:
 ---------------------------------------------------------------------
 Center     Atomic      Atomic             Coordinates (Angstroms)
 Number     Number       Type             X           Y           Z
 ---------------------------------------------------------------------
      1          6           0        1.589658    0.083565   -0.081593
      2          9           0       -0.475985    0.560446    0.086774
      3          9           0        1.618328   -0.674739    0.921000
      4          9           0        1.519704   -0.551001   -1.161536
      5         16           0        2.086960    1.962006    0.025258
      6          8           0        3.315424    1.796993    0.722097
      7          8           0        2.097810    2.290736   -1.354794
      8          8           0        0.959781    2.429146    0.801738
      9          1           0       -0.231334    1.430541    0.418634
 ---------------------------------------------------------------------

 ******    1 imaginary frequencies (negative Signs) ******

                      1                      2                      3
                      A                      A                      A
 Frequencies --   -112.4187                53.2930               156.4542
 Red. masses --      9.7907                16.5349                16.6800
 Frc consts  --      0.0729                 0.0277                 0.2406
 IR Inten    --      9.4288                 1.0351                 1.5817

                      4                      5                      6
                      A                      A                      A
 Frequencies --    171.5292               203.8562               242.6738
 Red. masses --     16.4523                16.6055                11.8408
 Frc consts  --      0.2852                 0.4066                 0.4108
 IR Inten    --      1.4587                 1.0214                23.3761

                      7                      8                      9
                      A                      A                      A
 Frequencies --    281.6736               366.6831               513.9667
 Red. masses --     13.8482                15.4466                14.3666
 Frc consts  --      0.6473                 1.2237                 2.2360
 IR Inten    --     31.5388                 7.7103                65.2116

                     10                     11                     12
                      A                      A                      A
 Frequencies --    549.8819               593.2492               615.7573
 Red. masses --     14.2222                12.7982                16.8831
 Frc consts  --      2.5337                 2.6538                 3.7716
 IR Inten    --     15.8797                 7.8503               218.9845

                     13                     14                     15
                      A                      A                      A
 Frequencies --    715.4224               782.4671               944.4674
 Red. masses --     13.6909                 1.0750                 1.1736
 Frc consts  --      4.1286                 0.3878                 0.6168
 IR Inten    --      8.1811               101.5822               500.7744

                     16                     17                     18
                      A                      A                      A
 Frequencies --   1102.3147              1361.1928              1425.7326
 Red. masses --     13.2688                14.0278                13.1068
 Frc consts  --      9.4993                15.3136                15.6972
 IR Inten    --     48.9580               193.4527               200.1853

                     19                     20                     21
                      A                      A                      A
 Frequencies --   1439.0251              1483.7396              3227.8328
 Red. masses --     18.4613                13.7907                 1.0670
 Frc consts  --     22.5242                17.8876                 6.5496
 IR Inten    --     66.2117               490.2573               651.8118

 - Thermochemistry -
 -------------------
 Temperature   298.150 Kelvin.  Pressure   1.00000 Atm.
 Atom     1 has atomic number  6 and mass  12.00000

 Molecular mass:   149.95985 amu.
 Principal axes and moments of inertia in atomic units:
                           1         2         3
     Eigenvalues --   755.820101179.645921295.35265
           X            0.49193   0.86685   0.08105
           Y            0.87013  -0.48635  -0.07958
           Z            0.02956  -0.10967   0.99353
 This molecule is an asymmetric top.
 Rotational symmetry number  1.
 Warning -- assumption of classical behavior for rotation
           may cause significant error
 Rotational temperatures (Kelvin)      0.11460     0.07342     0.06687
 Rotational constants (GHZ):           2.38779     1.52990     1.39324
    1 imaginary frequencies ignored.
 Zero-point vibrational energy      97084.2 (Joules/Mol)
                                   23.20368 (Kcal/Mol)
 Warning -- explicit consideration of  11 degrees of freedom as
           vibrations may cause significant error
 Vibrational temperatures:     76.68   225.10   246.79   293.30   349.15
          (Kelvin)            405.27   527.58   739.48   791.16   853.55
                              885.94  1029.33  1125.80  1358.88  1585.99
                             1958.45  2051.31  2070.44  2134.77  4644.13

 Zero-point correction=                           0.036977 (Hartree/Particle)
 Thermal correction to Energy=                    0.044722
 Thermal correction to Enthalpy=                  0.045666
 Thermal correction to Gibbs Free Energy=         0.003631
 Sum of electronic and zero-point Energies=           -962.010400
 Sum of electronic and thermal Energies=              -962.002656
 Sum of electronic and thermal Enthalpies=            -962.001712
 Sum of electronic and thermal Free Energies=         -962.043747

                     E (Thermal)             CV                S
                      KCal/Mol        Cal/Mol-Kelvin    Cal/Mol-Kelvin
 Total                   28.063             25.562             88.470
 Electronic               0.000              0.000              0.000
 Translational            0.889              2.981             40.926
 Rotational               0.889              2.981             28.537
 Vibrational             26.286             19.600             19.008
 Vibration     1          0.596              1.976              4.691
 Vibration     2          0.620              1.895              2.592
 Vibration     3          0.626              1.878              2.419
 Vibration     4          0.640              1.834              2.098
 Vibration     5          0.659              1.775              1.783
 Vibration     6          0.681              1.708              1.523
 Vibration     7          0.740              1.541              1.094
 Vibration     8          0.869              1.219              0.624
 Vibration     9          0.905              1.140              0.544
 Vibration    10          0.951              1.046              0.461
 Vibration    11          0.975              0.999              0.423

 Normal termination of Gaussian 16 at Sun May 25 05:10:19 2025.
