 Gaussian 16, Revision C.01,
 Gaussian 16:  ES64L-G16RevC.01  3-Jul-2019

 -----------------------------------------------------------------
 #P M062X/Def2TZVPP Symm(None) scf(xqc) pop(None) freq opt(CalcFC)
 -----------------------------------------------------------------

 ------------------------------
 Gaussian input prepared by ASE
 ------------------------------
 Symbolic Z-matrix:
 Charge =  0 Multiplicity = 1

 SCF Done:  E(RM062X) =  -962.040505161     A.U. after   15 cycles
 SCF Done:  E(RM062X) =  -962.076682374     A.U. after   13 cycles
 SCF Done:  E(RM062X) =  -962.114129881     A.U. after   13 cycles
 SCF Done:  E(RM062X) =  -962.093330988     A.U. after   14 cycles
 SCF Done:  E(RM062X) =  -962.122077772     A.U. after   13 cycles
 SCF Done:  E(RM062X) =  -962.118649222     A.U. after   12 cycles
 SCF Done:  E(RM062X) =  -962.123546098     A.U. after   12 cycles
 SCF Done:  E(RM062X) =  -962.124195523     A.U. after   11 cycles
 SCF Done:  E(RM062X) =  -962.124926903     A.U. after   11 cycles
 SCF Done:  E(RM062X) =  -962.125543124     A.U. after   12 cycles
 SCF Done:  E(RM062X) =  -962.125795812     A.U. after   11 cycles
 SCF Done:  E(RM062X) =  -962.125890623     A.U. after   10 cycles
 SCF Done:  E(RM062X) =  -962.125892619     A.U. after    8 cycles
 Optimization completed.
    -- Stationary point found.
 Normal termination of Gaussian 16 at Sun May 25 04:59:06 2025.

 ---------------------------------------------------------------------
 #P Geom=AllCheck Guess=TCheck SCRF=Check GenChk RM062X/def2TZVPP Freq
 ---------------------------------------------------------------------

 Structure from the checkpoint file:  "1502984803620600000001_r13_insertion_ROR_2_1_5_6_IRC_F_prod.chk"
 ------------------------------
 Gaussian input prepared by ASE
 ------------------------------
 Charge =  0 Multiplicity = 1

                          Input orientation:
 ---------------------------------------------------------------------
 Center     Atomic      Atomic             Coordinates (Angstroms)
 Number     Number       Type             X           Y           Z
 ---------------------------------------------------------------------
      1          6           0       -0.380008   -0.838671    0.069867
      2          9           0       -1.649543   -0.674588   -0.247284
      3          9           0       -0.287507   -1.394052    1.262475
      4          9           0        0.197078   -1.624624   -0.829103
      5         16           0        0.485661    0.785013    0.100127
      6          8           0       -0.292056    1.658093    0.890469
      7          8           0        1.857209    0.512257    0.340479
      8          8           0        0.294785    1.202469   -1.403981
      9          1           0        1.053130    0.909365   -1.929494
 ---------------------------------------------------------------------

 SCF Done:  E(RM062X) =  -962.125892619     A.U. after    1 cycles

 Isotropic polarizability for W=    0.000000       41.21 Bohr**3.
 End of Minotr F.D. properties file   721 does not exist.

                      1                      2                      3
                      A                      A                      A
 Frequencies --     60.4174               187.4763               195.1017
 Red. masses --     13.4608                 6.4169                16.9422
 Frc consts  --      0.0289                 0.1329                 0.3800
 IR Inten    --      1.4404                11.6444                 3.0156

                      4                      5                      6
                      A                      A                      A
 Frequencies --    309.4082               314.8929               342.3183
 Red. masses --      5.8321                 2.8066                13.2657
 Frc consts  --      0.3290                 0.1640                 0.9159
 IR Inten    --      6.2796                38.6680                 1.9026

                      7                      8                      9
                      A                      A                      A
 Frequencies --    367.8121               470.5700               506.6727
 Red. masses --      2.6805                 4.6264                15.1390
 Frc consts  --      0.2137                 0.6036                 2.2898
 IR Inten    --     37.5821                25.9643                26.9748

                     10                     11                     12
                      A                      A                      A
 Frequencies --    571.4249               576.9293               632.2543
 Red. masses --     15.7177                16.3746                19.9559
 Frc consts  --      3.0238                 3.2112                 4.7001
 IR Inten    --      0.8374                 2.8416               158.3486

                     13                     14                     15
                      A                      A                      A
 Frequencies --    794.8267               908.1994              1140.5099
 Red. masses --     17.7137                17.6000                 1.1838
 Frc consts  --      6.5933                 8.5531                 0.9072
 IR Inten    --      3.6489               218.1580                87.1795

                     16                     17                     18
                      A                      A                      A
 Frequencies --   1198.3802              1276.0138              1296.4700
 Red. masses --     14.7825                13.3816                13.4040
 Frc consts  --     12.5079                12.8372                13.2742
 IR Inten    --    266.0553               164.5984               127.1623

                     19                     20                     21
                      A                      A                      A
 Frequencies --   1309.1671              1503.7560              3810.4574
 Red. masses --     15.1928                15.3811                 1.0657
 Frc consts  --     15.3419                20.4923                 9.1168
 IR Inten    --    240.4300               292.2424               186.1313

 - Thermochemistry -
 -------------------
 Temperature   298.150 Kelvin.  Pressure   1.00000 Atm.
 Atom     1 has atomic number  6 and mass  12.00000

 Molecular mass:   149.95985 amu.
 Principal axes and moments of inertia in atomic units:
                           1         2         3
     Eigenvalues --   673.832131132.213381139.66946
           X            0.46091  -0.61800   0.63690
           Y            0.88605   0.36072  -0.29120
           Z           -0.04978   0.69855   0.71383
 This molecule is an asymmetric top.
 Rotational symmetry number  1.
 Warning -- assumption of classical behavior for rotation
           may cause significant error
 Rotational temperatures (Kelvin)      0.12854     0.07650     0.07600
 Rotational constants (GHZ):           2.67832     1.59399     1.58357
 Zero-point vibrational energy     106306.5 (Joules/Mol)
                                   25.40786 (Kcal/Mol)
 Warning -- explicit consideration of  11 degrees of freedom as
           vibrations may cause significant error
 Vibrational temperatures:     86.93   269.74   280.71   445.17   453.06
          (Kelvin)            492.52   529.20   677.05   728.99   822.15
                              830.07   909.67  1143.58  1306.70  1640.94
                             1724.20  1835.90  1865.33  1883.60  2163.57
                             5482.40

 Zero-point correction=                           0.040490 (Hartree/Particle)
 Thermal correction to Energy=                    0.047975
 Thermal correction to Enthalpy=                  0.048920
 Thermal correction to Gibbs Free Energy=         0.007891
 Sum of electronic and zero-point Energies=           -962.085403
 Sum of electronic and thermal Energies=              -962.077917
 Sum of electronic and thermal Enthalpies=            -962.076973
 Sum of electronic and thermal Free Energies=         -962.118002

                     E (Thermal)             CV                S
                      KCal/Mol        Cal/Mol-Kelvin    Cal/Mol-Kelvin
 Total                   30.105             25.887             86.352
 Electronic               0.000              0.000              0.000
 Translational            0.889              2.981             40.926
 Rotational               0.889              2.981             28.255
 Vibrational             28.328             19.925             17.172
 Vibration     1          0.597              1.973              4.444
 Vibration     2          0.632              1.857              2.253
 Vibration     3          0.636              1.847              2.179
 Vibration     4          0.699              1.656              1.365
 Vibration     5          0.702              1.645              1.336
 Vibration     6          0.721              1.591              1.201
 Vibration     7          0.740              1.538              1.089
 Vibration     8          0.828              1.315              0.736
 Vibration     9          0.862              1.235              0.642
 Vibration    10          0.928              1.093              0.502
 Vibration    11          0.933              1.081              0.491

 Optimization completed.
    -- Stationary point found.
 Normal termination of Gaussian 16 at Sun May 25 05:01:10 2025.
