 Gaussian 16, Revision C.01,
 Gaussian 16:  ES64L-G16RevC.01  3-Jul-2019

 ----------------------------------------------------------------------
 #P M062X/Def2TZVPP Symm(None) scf(xqc) pop(None) geom(AllCheck,NoKeepC
 onstants) guess(Read) irc(RCFC,reverse,MaxPoints=100,StepSize=2)
 ----------------------------------------------------------------------

 Structure from the checkpoint file:  "1502984803620600000001_r13_insertion_ROR_2_1_5_6_IRC_R.chk"
 ------------------------------
 Gaussian input prepared by ASE
 ------------------------------
 Charge =  0 Multiplicity = 1

 SCF Done:  E(RM062X) =  -961.840404492     A.U. after   13 cycles
 SCF Done:  E(RM062X) =  -961.840544239     A.U. after   14 cycles
 SCF Done:  E(RM062X) =  -961.840783263     A.U. after   14 cycles
 SCF Done:  E(RM062X) =  -961.841126494     A.U. after   14 cycles
 SCF Done:  E(RM062X) =  -961.841578693     A.U. after   15 cycles
 SCF Done:  E(RM062X) =  -961.842144137     A.U. after   16 cycles
 SCF Done:  E(RM062X) =  -961.842826181     A.U. after   16 cycles
 SCF Done:  E(RM062X) =  -961.843626699     A.U. after   15 cycles
 SCF Done:  E(RM062X) =  -961.844545411     A.U. after   14 cycles
 SCF Done:  E(RM062X) =  -961.845579151     A.U. after   14 cycles
 SCF Done:  E(RM062X) =  -961.873674556     A.U. after   11 cycles
 SCF Done:  E(RM062X) =  -961.873861806     A.U. after   11 cycles
 SCF Done:  E(RM062X) =  -961.874054958     A.U. after   11 cycles
 SCF Done:  E(RM062X) =  -961.874253975     A.U. after   11 cycles
 SCF Done:  E(RM062X) =  -961.874458986     A.U. after   11 cycles
 SCF Done:  E(RM062X) =  -961.874669870     A.U. after   11 cycles
 SCF Done:  E(RM062X) =  -961.874886648     A.U. after   11 cycles
 SCF Done:  E(RM062X) =  -961.875109089     A.U. after   11 cycles
 SCF Done:  E(RM062X) =  -961.875337080     A.U. after   11 cycles
 SCF Done:  E(RM062X) =  -961.875570277     A.U. after   11 cycles

                          Input orientation:
 ---------------------------------------------------------------------
 Center     Atomic      Atomic             Coordinates (Angstroms)
 Number     Number       Type             X           Y           Z
 ---------------------------------------------------------------------
      1          6           0        0.637156   -1.405327   -0.367794
      2          9           0       -2.003136    0.653532    0.420023
      3          9           0        0.542961   -2.057204    0.768008
      4          9           0       -0.429751   -1.739535   -1.075108
      5         16           0        0.376598    0.554801    0.105038
      6          8           0       -0.900012    1.496505    0.626851
      7          8           0        1.502321    1.058572    0.811349
      8          8           0        0.350958    1.088494   -1.385464
      9          1           0        0.960164    0.554678   -1.918860
 ---------------------------------------------------------------------

 Normal termination of Gaussian 16 at Sun May 25 04:47:38 2025.
