 Gaussian 16, Revision C.01,
 Gaussian 16:  ES64L-G16RevC.01  3-Jul-2019

 ----------------------------------------------------------------------
 #P mp2/6-31G Symm(None) scf(xqc) pop(None) guess(Mix,Always) opt(NoFre
 eze,TS,CalcAll,NoEigentest,MaxCycle=999)
 ----------------------------------------------------------------------

 ------------------------------
 Gaussian input prepared by ASE
 ------------------------------
 Symbolic Z-matrix:
 Charge =  0 Multiplicity = 1

 SCF Done:  E(RHF) =  -958.219854142     A.U. after   16 cycles
 E2 =    -0.9083828028D+00 EUMP2 =    -0.95912823694458D+03
 E2 =    -0.9083828028D+00 EUMP2 =    -0.95912823694458D+03
 SCF Done:  E(RHF) =  -958.285963491     A.U. after   17 cycles
 E2 =    -0.9278483215D+00 EUMP2 =    -0.95921381181275D+03
 E2 =    -0.9278483215D+00 EUMP2 =    -0.95921381181275D+03
 SCF Done:  E(RHF) =  -958.308706010     A.U. after   18 cycles
 E2 =    -0.9408666927D+00 EUMP2 =    -0.95924957270229D+03
 E2 =    -0.9408666927D+00 EUMP2 =    -0.95924957270229D+03
 SCF Done:  E(RHF) =  -958.308512418     A.U. after   18 cycles
 E2 =    -0.9479350896D+00 EUMP2 =    -0.95925644750758D+03
 E2 =    -0.9479350896D+00 EUMP2 =    -0.95925644750758D+03
 SCF Done:  E(RHF) =  -958.305398230     A.U. after   18 cycles
 E2 =    -0.9508339498D+00 EUMP2 =    -0.95925623217954D+03
 E2 =    -0.9508339498D+00 EUMP2 =    -0.95925623217954D+03
 SCF Done:  E(RHF) =  -958.303746237     A.U. after   18 cycles
 E2 =    -0.9517841524D+00 EUMP2 =    -0.95925553038940D+03
 E2 =    -0.9517841524D+00 EUMP2 =    -0.95925553038940D+03
 SCF Done:  E(RHF) =  -958.302854760     A.U. after   18 cycles
 E2 =    -0.9523081196D+00 EUMP2 =    -0.95925516287944D+03
 E2 =    -0.9523081196D+00 EUMP2 =    -0.95925516287944D+03
 SCF Done:  E(RHF) =  -958.304361495     A.U. after   18 cycles
 E2 =    -0.9519339290D+00 EUMP2 =    -0.95925629542402D+03
 E2 =    -0.9519339290D+00 EUMP2 =    -0.95925629542402D+03
 SCF Done:  E(RHF) =  -958.305053876     A.U. after   18 cycles
 E2 =    -0.9522322166D+00 EUMP2 =    -0.95925728609267D+03
 E2 =    -0.9522322166D+00 EUMP2 =    -0.95925728609267D+03
 SCF Done:  E(RHF) =  -958.304926609     A.U. after   18 cycles
 E2 =    -0.9529612154D+00 EUMP2 =    -0.95925788782399D+03
 E2 =    -0.9529612154D+00 EUMP2 =    -0.95925788782399D+03
 SCF Done:  E(RHF) =  -958.304750026     A.U. after   19 cycles
 E2 =    -0.9533209697D+00 EUMP2 =    -0.95925807099531D+03
 E2 =    -0.9533209697D+00 EUMP2 =    -0.95925807099531D+03
 SCF Done:  E(RHF) =  -958.304804839     A.U. after   17 cycles
 E2 =    -0.9532804539D+00 EUMP2 =    -0.95925808529307D+03
 E2 =    -0.9532804539D+00 EUMP2 =    -0.95925808529307D+03
 SCF Done:  E(RHF) =  -958.304809269     A.U. after   17 cycles
 E2 =    -0.9532761734D+00 EUMP2 =    -0.95925808544284D+03
 E2 =    -0.9532761734D+00 EUMP2 =    -0.95925808544284D+03
 Optimization completed.
    -- Stationary point found.

                          Input orientation:
 ---------------------------------------------------------------------
 Center     Atomic      Atomic             Coordinates (Angstroms)
 Number     Number       Type             X           Y           Z
 ---------------------------------------------------------------------
      1          6           0       -0.210181   -0.055829    0.100094
      2          9           0       -0.808445    1.102508   -0.322012
      3          9           0       -0.521734   -0.315797    1.416900
      4          9           0       -0.564129   -1.112752   -0.710007
      5         16           0        1.802731    0.057128    0.017644
      6          8           0        2.390444    0.028464    1.498978
      7          8           0        2.338646   -0.945248   -1.099772
      8          8           0        1.768374    1.759115   -0.619385
      9          1           0        2.703744    2.067036   -0.753465
 ---------------------------------------------------------------------

 ******    1 imaginary frequencies (negative Signs) ******

                      1                      2                      3
                      A                      A                      A
 Frequencies --    -38.6268               131.6473               179.1163
 Red. masses --     11.6330                 1.9307                 2.9912
 Frc consts  --      0.0102                 0.0197                 0.0565
 IR Inten    --      2.1274                65.1393                25.4795

                      4                      5                      6
                      A                      A                      A
 Frequencies --    197.4251               241.6862               253.1565
 Red. masses --     10.4588                11.4508                17.8866
 Frc consts  --      0.2402                 0.3941                 0.6754
 IR Inten    --      2.2815                 7.1796                 2.8170

                      7                      8                      9
                      A                      A                      A
 Frequencies --    276.0607               364.1188               371.6359
 Red. masses --      5.8326                13.1057                12.8970
 Frc consts  --      0.2619                 1.0238                 1.0495
 IR Inten    --     41.8975                49.0133                14.4522

                     10                     11                     12
                      A                      A                      A
 Frequencies --    460.0760               482.3424               487.0754
 Red. masses --     13.2364                17.3860                17.8934
 Frc consts  --      1.6507                 2.3832                 2.5011
 IR Inten    --    105.6946                18.0059                 2.5534

                     13                     14                     15
                      A                      A                      A
 Frequencies --    614.3946               685.8211               964.9376
 Red. masses --     18.1555                16.5197                14.5760
 Frc consts  --      4.0379                 4.5780                 7.9963
 IR Inten    --    183.8290                15.4998               186.5464

                     16                     17                     18
                      A                      A                      A
 Frequencies --   1035.9952              1114.0526              1121.3279
 Red. masses --      5.9574                 1.3301                19.9896
 Frc consts  --      3.7672                 0.9727                14.8088
 IR Inten    --    200.9274               140.4498               157.1461

                     19                     20                     21
                      A                      A                      A
 Frequencies --   1217.7214              1232.7794              3512.3184
 Red. masses --     13.3724                 9.8277                 1.0661
 Frc consts  --     11.6830                 8.7998                 7.7489
 IR Inten    --    248.0395               149.2573                90.8316

 - Thermochemistry -
 -------------------
 Temperature   298.150 Kelvin.  Pressure   1.00000 Atm.
 Atom     1 has atomic number  6 and mass  12.00000

 Molecular mass:   149.95985 amu.
 Principal axes and moments of inertia in atomic units:
                           1         2         3
     Eigenvalues --   806.648421325.839791342.30402
           X            0.99381  -0.10954   0.01866
           Y            0.09608   0.93149   0.35086
           Z           -0.05581  -0.34689   0.93624
 This molecule is an asymmetric top.
 Rotational symmetry number  1.
 Warning -- assumption of classical behavior for rotation
           may cause significant error
 Rotational temperatures (Kelvin)      0.10738     0.06533     0.06453
 Rotational constants (GHZ):           2.23733     1.36121     1.34451
    1 imaginary frequencies ignored.
 Zero-point vibrational energy      89383.1 (Joules/Mol)
                                   21.36308 (Kcal/Mol)
 Warning -- explicit consideration of  12 degrees of freedom as
           vibrations may cause significant error
 Vibrational temperatures:    189.41   257.71   284.05   347.73   364.24
          (Kelvin)            397.19   523.89   534.70   661.95   693.98
                              700.79   883.98   986.74  1388.33  1490.57
                             1602.87  1613.34  1752.03  1773.69  5053.44

 Zero-point correction=                           0.034044 (Hartree/Particle)
 Thermal correction to Energy=                    0.041975
 Thermal correction to Enthalpy=                  0.042919
 Thermal correction to Gibbs Free Energy=         0.001289
 Sum of electronic and zero-point Energies=           -959.224041
 Sum of electronic and thermal Energies=              -959.216110
 Sum of electronic and thermal Enthalpies=            -959.215166
 Sum of electronic and thermal Free Energies=         -959.256796

                     E (Thermal)             CV                S
                      KCal/Mol        Cal/Mol-Kelvin    Cal/Mol-Kelvin
 Total                   26.340             27.352             87.618
 Electronic               0.000              0.000              0.000
 Translational            0.889              2.981             40.926
 Rotational               0.889              2.981             28.753
 Vibrational             24.562             21.391             17.940
 Vibration     1          0.612              1.922              2.922
 Vibration     2          0.629              1.868              2.338
 Vibration     3          0.637              1.843              2.157
 Vibration     4          0.658              1.776              1.790
 Vibration     5          0.664              1.757              1.708
 Vibration     6          0.678              1.718              1.558
 Vibration     7          0.738              1.546              1.104
 Vibration     8          0.743              1.530              1.073
 Vibration     9          0.818              1.339              0.766
 Vibration    10          0.839              1.289              0.704
 Vibration    11          0.843              1.279              0.691
 Vibration    12          0.974              1.001              0.426

 Normal termination of Gaussian 16 at Sun May 25 03:32:21 2025.
