 Gaussian 16, Revision C.01,
 Gaussian 16:  ES64L-G16RevC.01  3-Jul-2019

 ----------------------------------------------------------------------
 #P M062X/Def2TZVPP Symm(None) scf(xqc) pop(None) opt(NoFreeze,TS,CalcA
 ll,NoEigentest,MaxCycle=999)
 ----------------------------------------------------------------------

 ------------------------------
 Gaussian input prepared by ASE
 ------------------------------
 Symbolic Z-matrix:
 Charge =  0 Multiplicity = 1

 SCF Done:  E(RM062X) =  -961.830887417     A.U. after   23 cycles
 SCF Done:  E(RM062X) =  -961.869879080     A.U. after   20 cycles
 SCF Done:  E(RM062X) =  -961.908583286     A.U. after   18 cycles
 SCF Done:  E(RM062X) =  -961.938984092     A.U. after   16 cycles
 SCF Done:  E(RM062X) =  -961.960385489     A.U. after   14 cycles
 SCF Done:  E(RM062X) =  -961.980283378     A.U. after   14 cycles
 SCF Done:  E(RM062X) =  -962.000092195     A.U. after   13 cycles
 SCF Done:  E(RM062X) =  -962.017890151     A.U. after   12 cycles
 SCF Done:  E(RM062X) =  -962.031350099     A.U. after   12 cycles
 SCF Done:  E(RM062X) =  -962.039081391     A.U. after   12 cycles
 SCF Done:  E(RM062X) =  -962.042005522     A.U. after   13 cycles
 SCF Done:  E(RM062X) =  -962.042290282     A.U. after   13 cycles
 SCF Done:  E(RM062X) =  -962.041167045     A.U. after   14 cycles
 SCF Done:  E(RM062X) =  -962.039753046     A.U. after   15 cycles
 SCF Done:  E(RM062X) =  -962.039060145     A.U. after   13 cycles
 SCF Done:  E(RM062X) =  -962.038845186     A.U. after   13 cycles
 SCF Done:  E(RM062X) =  -962.038749484     A.U. after   13 cycles
 SCF Done:  E(RM062X) =  -962.038751619     A.U. after   11 cycles
 SCF Done:  E(RM062X) =  -962.038746866     A.U. after   10 cycles
 SCF Done:  E(RM062X) =  -962.038745330     A.U. after    7 cycles

 Isotropic polarizability for W=    0.000000       44.35 Bohr**3.
 End of Minotr F.D. properties file   721 does not exist.

 Optimization completed.
    -- Stationary point found.

                          Input orientation:
 ---------------------------------------------------------------------
 Center     Atomic      Atomic             Coordinates (Angstroms)
 Number     Number       Type             X           Y           Z
 ---------------------------------------------------------------------
      1          6           0        0.168131   -0.596923   -0.478728
      2          9           0       -0.834860    0.104480   -0.222676
      3          9           0       -0.027993    2.547460    0.951824
      4          9           0       -0.140438   -1.786938   -0.738830
      5         16           0        1.999751   -0.060427   -0.162847
      6          8           0        1.890620   -0.490265    1.197517
      7          8           0        2.696211   -0.874427   -1.088521
      8          8           0        1.935148    1.344949   -0.415729
      9          1           0        0.783939    2.324925    0.554872
 ---------------------------------------------------------------------

                      1                      2                      3
                      A                      A                      A
 Frequencies --     16.7241                54.1585                68.3176
 Red. masses --     17.6948                16.7029                16.8552
 Frc consts  --      0.0029                 0.0289                 0.0463
 IR Inten    --      1.1166                 1.7378                 3.8205

                      4                      5                      6
                      A                      A                      A
 Frequencies --     82.3669               133.7867               190.4601
 Red. masses --     17.2928                15.1792                11.9333
 Frc consts  --      0.0691                 0.1601                 0.2550
 IR Inten    --      6.3183                 0.1964                12.5685

                      7                      8                      9
                      A                      A                      A
 Frequencies --    217.2248               344.7912               512.5589
 Red. masses --     16.4935                15.1705                 2.2566
 Frc consts  --      0.4585                 1.0626                 0.3493
 IR Inten    --     12.3315                 1.1201                31.6077

                     10                     11                     12
                      A                      A                      A
 Frequencies --    537.9603               549.0477               575.9721
 Red. masses --      9.7540                 2.2685                 3.2568
 Frc consts  --      1.6632                 0.4029                 0.6366
 IR Inten    --     63.6218               108.4129               197.8840

                     13                     14                     15
                      A                      A                      A
 Frequencies --    623.4022               646.6440               722.6943
 Red. masses --      1.2655                12.8806                16.6926
 Frc consts  --      0.2898                 3.1733                 5.1367
 IR Inten    --    177.2655                60.8250                 0.8702

                     16                     17                     18
                      A                      A                      A
 Frequencies --   1119.5488              1372.8727              1422.4597
 Red. masses --     16.1900                18.5977                15.9793
 Frc consts  --     11.9559                20.6524                19.0497
 IR Inten    --     39.1296               285.0177               135.8226

                     19                     20                     21
                      A                      A                      A
 Frequencies --   1450.0274              1487.0432              3905.4763
 Red. masses --     17.5205                13.7192                 1.0595
 Frc consts  --     21.7044                17.8742                 9.5214
 IR Inten    --    191.2935               455.0638               625.8653

 - Thermochemistry -
 -------------------
 Temperature   298.150 Kelvin.  Pressure   1.00000 Atm.
 Atom     1 has atomic number  6 and mass  12.00000

 Molecular mass:   149.95985 amu.
 Principal axes and moments of inertia in atomic units:
                           1         2         3
     Eigenvalues --   919.353751161.319181744.91294
           X           -0.41072   0.91128   0.02948
           Y            0.84765   0.39355  -0.35583
           Z            0.33587   0.12116   0.93409
 This molecule is an asymmetric top.
 Rotational symmetry number  1.
 Warning -- assumption of classical behavior for rotation
           may cause significant error
 Rotational temperatures (Kelvin)      0.09421     0.07458     0.04964
 Rotational constants (GHZ):           1.96305     1.55404     1.03429
 Zero-point vibrational energy      95901.9 (Joules/Mol)
                                   22.92109 (Kcal/Mol)
 Warning -- explicit consideration of  12 degrees of freedom as
           vibrations may cause significant error
 Vibrational temperatures:     24.06    77.92    98.29   118.51   192.49
          (Kelvin)            274.03   312.54   496.08   737.46   774.00
                              789.96   828.70   896.94   930.38  1039.80
                             1610.78  1975.26  2046.60  2086.27  2139.52
                             5619.11

 Zero-point correction=                           0.036527 (Hartree/Particle)
 Thermal correction to Energy=                    0.046021
 Thermal correction to Enthalpy=                  0.046965
 Thermal correction to Gibbs Free Energy=        -0.001181
 Sum of electronic and zero-point Energies=           -962.002218
 Sum of electronic and thermal Energies=              -961.992725
 Sum of electronic and thermal Enthalpies=            -961.991780
 Sum of electronic and thermal Free Energies=         -962.039927

                     E (Thermal)             CV                S
                      KCal/Mol        Cal/Mol-Kelvin    Cal/Mol-Kelvin
 Total                   28.878             28.990            101.332
 Electronic               0.000              0.000              0.000
 Translational            0.889              2.981             40.926
 Rotational               0.889              2.981             29.012
 Vibrational             27.101             23.028             31.395
 Vibration     1          0.593              1.986              6.989
 Vibration     2          0.596              1.976              4.659
 Vibration     3          0.598              1.969              4.201
 Vibration     4          0.600              1.961              3.834
 Vibration     5          0.613              1.920              2.891
 Vibration     6          0.634              1.853              2.223
 Vibration     7          0.646              1.815              1.982
 Vibration     8          0.723              1.586              1.190
 Vibration     9          0.868              1.222              0.627
 Vibration    10          0.893              1.166              0.570
 Vibration    11          0.904              1.142              0.546
 Vibration    12          0.932              1.083              0.493

 Normal termination of Gaussian 16 at Sun May 25 04:10:24 2025.
