 Gaussian 16, Revision C.01,
 Gaussian 16:  ES64L-G16RevC.01  3-Jul-2019

 ----------------------------------------------------------------------
 #P M062X/Def2TZVPP Symm(None) scf(xqc) pop(None) geom(AllCheck,NoKeepC
 onstants) guess(Read) irc(RCFC,reverse,MaxPoints=100,StepSize=2)
 ----------------------------------------------------------------------

 Structure from the checkpoint file:  "1502984803620600000001_r12_insertion_R_6_5_1_IRC_R.chk"
 ------------------------------
 Gaussian input prepared by ASE
 ------------------------------
 Charge =  0 Multiplicity = 1

 SCF Done:  E(RM062X) =  -962.115955510     A.U. after    8 cycles
 SCF Done:  E(RM062X) =  -962.115961431     A.U. after    9 cycles
 SCF Done:  E(RM062X) =  -962.115971301     A.U. after    9 cycles
 SCF Done:  E(RM062X) =  -962.115985140     A.U. after    9 cycles
 SCF Done:  E(RM062X) =  -962.116003004     A.U. after    9 cycles
 SCF Done:  E(RM062X) =  -962.116024936     A.U. after    9 cycles
 SCF Done:  E(RM062X) =  -962.116050955     A.U. after    9 cycles
 SCF Done:  E(RM062X) =  -962.116081065     A.U. after    9 cycles
 SCF Done:  E(RM062X) =  -962.116115260     A.U. after    9 cycles
 SCF Done:  E(RM062X) =  -962.116153519     A.U. after    9 cycles
 SCF Done:  E(RM062X) =  -962.124494868     A.U. after    9 cycles
 SCF Done:  E(RM062X) =  -962.124567900     A.U. after    9 cycles
 SCF Done:  E(RM062X) =  -962.124638646     A.U. after    9 cycles
 SCF Done:  E(RM062X) =  -962.124707147     A.U. after    9 cycles
 SCF Done:  E(RM062X) =  -962.124773478     A.U. after    9 cycles
 SCF Done:  E(RM062X) =  -962.124837731     A.U. after    9 cycles
 SCF Done:  E(RM062X) =  -962.124899992     A.U. after    9 cycles
 SCF Done:  E(RM062X) =  -962.124960323     A.U. after    9 cycles
 SCF Done:  E(RM062X) =  -962.125018752     A.U. after    9 cycles
 SCF Done:  E(RM062X) =  -962.125075266     A.U. after    9 cycles

                          Input orientation:
 ---------------------------------------------------------------------
 Center     Atomic      Atomic             Coordinates (Angstroms)
 Number     Number       Type             X           Y           Z
 ---------------------------------------------------------------------
      1          6           0       -0.941986   -0.052982    0.020838
      2          9           0       -1.415454    0.507892   -1.075090
      3          9           0       -1.343047    0.654625    1.072661
      4          9           0       -1.392730   -1.286336    0.123626
      5         16           0        0.898958   -0.083538   -0.021430
      6          8           0        1.326471   -0.538504    1.251190
      7          8           0        1.290731   -0.688953   -1.234485
      8          8           0        1.160634    1.460048   -0.174467
      9          1           0        0.999399    1.923166    0.660832
 ---------------------------------------------------------------------

 Normal termination of Gaussian 16 at Sun May 25 04:24:35 2025.
