 Gaussian 16, Revision C.01,
 Gaussian 16:  ES64L-G16RevC.01  3-Jul-2019

 ----------------------------------------------------------------------
 #P M062X/Def2TZVPP Symm(None) scf(xqc) pop(None) geom(AllCheck,NoKeepC
 onstants) guess(Read) irc(RCFC,forward,MaxPoints=100,StepSize=2)
 ----------------------------------------------------------------------

 Structure from the checkpoint file:  "1502984803620600000001_r12_insertion_R_9_8_5_IRC_F.chk"
 ------------------------------
 Gaussian input prepared by ASE
 ------------------------------
 Charge =  0 Multiplicity = 1

 SCF Done:  E(RM062X) =  -962.069732484     A.U. after    9 cycles
 SCF Done:  E(RM062X) =  -962.069817285     A.U. after   10 cycles
 SCF Done:  E(RM062X) =  -962.069958139     A.U. after   10 cycles
 SCF Done:  E(RM062X) =  -962.070154153     A.U. after   10 cycles
 SCF Done:  E(RM062X) =  -962.070404022     A.U. after    9 cycles
 SCF Done:  E(RM062X) =  -962.070706047     A.U. after    9 cycles
 SCF Done:  E(RM062X) =  -962.071058205     A.U. after    9 cycles
 SCF Done:  E(RM062X) =  -962.071458286     A.U. after    9 cycles
 SCF Done:  E(RM062X) =  -962.071904032     A.U. after    9 cycles
 SCF Done:  E(RM062X) =  -962.072393217     A.U. after    9 cycles
 SCF Done:  E(RM062X) =  -962.118037540     A.U. after    8 cycles
 SCF Done:  E(RM062X) =  -962.118261934     A.U. after    8 cycles
 SCF Done:  E(RM062X) =  -962.118481668     A.U. after    8 cycles
 SCF Done:  E(RM062X) =  -962.118696843     A.U. after    8 cycles
 SCF Done:  E(RM062X) =  -962.118907554     A.U. after    8 cycles
 SCF Done:  E(RM062X) =  -962.119113889     A.U. after    8 cycles
 SCF Done:  E(RM062X) =  -962.119315931     A.U. after    8 cycles
 SCF Done:  E(RM062X) =  -962.119513758     A.U. after    8 cycles
 SCF Done:  E(RM062X) =  -962.119707442     A.U. after    8 cycles
 SCF Done:  E(RM062X) =  -962.119897053     A.U. after    8 cycles

                          Input orientation:
 ---------------------------------------------------------------------
 Center     Atomic      Atomic             Coordinates (Angstroms)
 Number     Number       Type             X           Y           Z
 ---------------------------------------------------------------------
      1          6           0       -0.937431   -0.217895    0.019377
      2          9           0       -1.502366    0.503094   -0.930891
      3          9           0       -1.462698    0.106139    1.187643
      4          9           0       -1.138915   -1.500052   -0.213639
      5         16           0        0.867872    0.179698    0.094325
      6          8           0        1.412611   -0.692299    1.065958
      7          8           0        1.355045   -0.091535   -1.376046
      8          8           0        0.978399    1.596547    0.165400
      9          1           0        1.540649    0.788111   -1.739501
 ---------------------------------------------------------------------

 Normal termination of Gaussian 16 at Sun May 25 04:16:57 2025.
