 Gaussian 16, Revision C.01,
 Gaussian 16:  ES64L-G16RevC.01  3-Jul-2019

 ----------------------------------------------------------------------
 #P mp2/6-31G Symm(None) scf(xqc) pop(None) guess(Read,Mix) geom(AllChe
 ck,NoKeepConstants) irc(RCFC,forward,MaxPoints=100,StepSize=2)
 ----------------------------------------------------------------------

 Structure from the checkpoint file:  "1502984803620600000001_R_Addition_MultipleBond_5_8_9_IRC_F.chk"
 ------------------------------
 Gaussian input prepared by ASE
 ------------------------------
 Charge =  0 Multiplicity = 1

 SCF Done:  E(RHF) =  -958.249299938     A.U. after   18 cycles
 E2 =    -0.9564229793D+00 EUMP2 =    -0.95920572291755D+03
 SCF Done:  E(RHF) =  -958.249423528     A.U. after   13 cycles
 E2 =    -0.9563698132D+00 EUMP2 =    -0.95920579334094D+03
 SCF Done:  E(RHF) =  -958.249629016     A.U. after   13 cycles
 E2 =    -0.9562814396D+00 EUMP2 =    -0.95920591045551D+03
 SCF Done:  E(RHF) =  -958.249915461     A.U. after   13 cycles
 E2 =    -0.9561584563D+00 EUMP2 =    -0.95920607391684D+03
 SCF Done:  E(RHF) =  -958.250281614     A.U. after   14 cycles
 E2 =    -0.9560015983D+00 EUMP2 =    -0.95920628321240D+03
 SCF Done:  E(RHF) =  -958.250725885     A.U. after   14 cycles
 E2 =    -0.9558117922D+00 EUMP2 =    -0.95920653767744D+03
 SCF Done:  E(RHF) =  -958.251246345     A.U. after   14 cycles
 E2 =    -0.9555901392D+00 EUMP2 =    -0.95920683648413D+03
 SCF Done:  E(RHF) =  -958.251840735     A.U. after   14 cycles
 E2 =    -0.9553379045D+00 EUMP2 =    -0.95920717863975D+03
 SCF Done:  E(RHF) =  -958.252506481     A.U. after   14 cycles
 E2 =    -0.9550564990D+00 EUMP2 =    -0.95920756297979D+03
 SCF Done:  E(RHF) =  -958.253240700     A.U. after   14 cycles
 E2 =    -0.9547474625D+00 EUMP2 =    -0.95920798816226D+03
 E2 =    -0.9544124458D+00 EUMP2 =    -0.95920845266282D+03
 E2 =    -0.9540531939D+00 EUMP2 =    -0.95920895477106D+03
 E2 =    -0.9536715288D+00 EUMP2 =    -0.95920949258803D+03
 E2 =    -0.9532693349D+00 EUMP2 =    -0.95921006402608D+03
 E2 =    -0.9528485455D+00 EUMP2 =    -0.95921066681027D+03
 E2 =    -0.9524111310D+00 EUMP2 =    -0.95921129848294D+03
 E2 =    -0.9519590908D+00 EUMP2 =    -0.95921195641064D+03
 E2 =    -0.9514944461D+00 EUMP2 =    -0.95921263779458D+03
 E2 =    -0.9510192371D+00 EUMP2 =    -0.95921333968435D+03
 E2 =    -0.9505355225D+00 EUMP2 =    -0.95921405899554D+03
 E2 =    -0.9451571186D+00 EUMP2 =    -0.95924276385371D+03
 E2 =    -0.9452822374D+00 EUMP2 =    -0.95924302580561D+03
 E2 =    -0.9454065748D+00 EUMP2 =    -0.95924328410616D+03
 E2 =    -0.9455300212D+00 EUMP2 =    -0.95924353881417D+03
 E2 =    -0.9456524738D+00 EUMP2 =    -0.95924378998765D+03
 E2 =    -0.9457738362D+00 EUMP2 =    -0.95924403768395D+03
 E2 =    -0.9458930982D+00 EUMP2 =    -0.95924428195932D+03
 E2 =    -0.9460144707D+00 EUMP2 =    -0.95924452286690D+03
 E2 =    -0.9461266061D+00 EUMP2 =    -0.95924476045610D+03
 E2 =    -0.9462561613D+00 EUMP2 =    -0.95924499473600D+03
 SCF Done:  E(RHF) =  -958.298888155     A.U. after   12 cycles
 E2 =    -0.9463373480D+00 EUMP2 =    -0.95924522550320D+03
 SCF Done:  E(RHF) =  -958.298930865     A.U. after   12 cycles
 E2 =    -0.9465208839D+00 EUMP2 =    -0.95924545174901D+03
 SCF Done:  E(RHF) =  -958.299178202     A.U. after   13 cycles
 E2 =    -0.9464952224D+00 EUMP2 =    -0.95924567342392D+03
 SCF Done:  E(RHF) =  -958.299182837     A.U. after   12 cycles
 E2 =    -0.9467147570D+00 EUMP2 =    -0.95924589759370D+03
 SCF Done:  E(RHF) =  -958.299333326     A.U. after   12 cycles
 E2 =    -0.9467841692D+00 EUMP2 =    -0.95924611749554D+03
 SCF Done:  E(RHF) =  -958.299427579     A.U. after   12 cycles
 E2 =    -0.9469059245D+00 EUMP2 =    -0.95924633350336D+03
 SCF Done:  E(RHF) =  -958.299538754     A.U. after   12 cycles
 E2 =    -0.9470077789D+00 EUMP2 =    -0.95924654653267D+03
 SCF Done:  E(RHF) =  -958.299644413     A.U. after   12 cycles
 E2 =    -0.9471122828D+00 EUMP2 =    -0.95924675669578D+03
 SCF Done:  E(RHF) =  -958.299750424     A.U. after   12 cycles
 E2 =    -0.9472136248D+00 EUMP2 =    -0.95924696404863D+03
 SCF Done:  E(RHF) =  -958.299855305     A.U. after   12 cycles
 E2 =    -0.9473133288D+00 EUMP2 =    -0.95924716863419D+03

                          Input orientation:
 ---------------------------------------------------------------------
 Center     Atomic      Atomic             Coordinates (Angstroms)
 Number     Number       Type             X           Y           Z
 ---------------------------------------------------------------------
      1          6           0       -1.059219   -0.236176    0.022880
      2          9           0       -1.555208    0.499975   -1.025136
      3          9           0       -1.602612    0.186171    1.220169
      4          9           0       -1.263975   -1.581680   -0.160206
      5         16           0        0.903905    0.150397    0.135495
      6          8           0        1.512494   -0.751285    1.296703
      7          8           0        1.504730   -0.112393   -1.541480
      8          8           0        1.110479    1.751811    0.025749
      9          1           0        1.781957    0.826639   -1.751673
 ---------------------------------------------------------------------

 Normal termination of Gaussian 16 at Sun May 25 03:38:43 2025.
