 Gaussian 16, Revision C.01,
 Gaussian 16:  ES64L-G16RevC.01  3-Jul-2019

 -----------------------------------------------------------------
 #P M062X/Def2TZVPP Symm(None) scf(xqc) pop(None) freq opt(CalcFC)
 -----------------------------------------------------------------

 ------------------------------
 Gaussian input prepared by ASE
 ------------------------------
 Symbolic Z-matrix:
 Charge =  0 Multiplicity = 1

 SCF Done:  E(RM062X) =  -962.119895487     A.U. after   13 cycles
 SCF Done:  E(RM062X) =  -962.125441150     A.U. after   12 cycles
 SCF Done:  E(RM062X) =  -962.125861527     A.U. after   11 cycles
 SCF Done:  E(RM062X) =  -962.125894670     A.U. after   10 cycles
 SCF Done:  E(RM062X) =  -962.125895426     A.U. after    8 cycles
 SCF Done:  E(RM062X) =  -962.125895493     A.U. after    6 cycles
 Optimization completed.
    -- Stationary point found.
 Normal termination of Gaussian 16 at Sun May 25 04:10:32 2025.

 ---------------------------------------------------------------------
 #P Geom=AllCheck Guess=TCheck SCRF=Check GenChk RM062X/def2TZVPP Freq
 ---------------------------------------------------------------------

 Structure from the checkpoint file:  "1502984803620600000001_intra_H_migration_5_9_IRC_R_prod.chk"
 ------------------------------
 Gaussian input prepared by ASE
 ------------------------------
 Charge =  0 Multiplicity = 1

                          Input orientation:
 ---------------------------------------------------------------------
 Center     Atomic      Atomic             Coordinates (Angstroms)
 Number     Number       Type             X           Y           Z
 ---------------------------------------------------------------------
      1          6           0       -0.901784   -0.163342    0.001326
      2          9           0       -1.421352    0.601193   -0.949716
      3          9           0       -1.378737    0.214313    1.171292
      4          9           0       -1.221539   -1.422801   -0.224120
      5         16           0        0.930900   -0.000501   -0.023939
      6          8           0        1.421770   -0.633786    1.137831
      7          8           0        1.352300   -0.326066   -1.339101
      8          8           0        1.050104    1.552821    0.190261
      9          1           0        1.088301    2.004640   -0.665071
 ---------------------------------------------------------------------

 SCF Done:  E(RM062X) =  -962.125895493     A.U. after    1 cycles

 Isotropic polarizability for W=    0.000000       41.22 Bohr**3.
 End of Minotr F.D. properties file   721 does not exist.

                      1                      2                      3
                      A                      A                      A
 Frequencies --     59.9635               187.2464               196.2096
 Red. masses --     13.4162                 7.3612                15.2582
 Frc consts  --      0.0284                 0.1521                 0.3461
 IR Inten    --      1.4583                 9.4206                 3.7928

                      4                      5                      6
                      A                      A                      A
 Frequencies --    309.9095               322.9653               342.5453
 Red. masses --     11.1819                 2.9861                13.2128
 Frc consts  --      0.6328                 0.1835                 0.9134
 IR Inten    --      0.7397                31.9009                 1.8786

                      7                      8                      9
                      A                      A                      A
 Frequencies --    374.6122               470.0803               506.7610
 Red. masses --      2.0674                 4.5078                15.0434
 Frc consts  --      0.1709                 0.5869                 2.2762
 IR Inten    --     50.1522                26.8148                26.7300

                     10                     11                     12
                      A                      A                      A
 Frequencies --    571.2662               577.0450               632.8299
 Red. masses --     15.7227                16.3878                19.9332
 Frc consts  --      3.0231                 3.2151                 4.7033
 IR Inten    --      0.8352                 2.8057               158.9687

                     13                     14                     15
                      A                      A                      A
 Frequencies --    794.4405               906.8160              1140.4610
 Red. masses --     17.7096                17.6379                 1.1841
 Frc consts  --      6.5854                 8.5454                 0.9074
 IR Inten    --      3.7668               218.0574                86.6472

                     16                     17                     18
                      A                      A                      A
 Frequencies --   1198.5257              1275.5559              1296.4109
 Red. masses --     14.7292                13.3692                13.3893
 Frc consts  --     12.4659                12.8160                13.2584
 IR Inten    --    266.5547               164.2553               129.0183

                     19                     20                     21
                      A                      A                      A
 Frequencies --   1309.2257              1505.5021              3810.7273
 Red. masses --     15.2557                15.4206                 1.0657
 Frc consts  --     15.4067                20.5928                 9.1180
 IR Inten    --    239.5861               292.3562               186.7729

 - Thermochemistry -
 -------------------
 Temperature   298.150 Kelvin.  Pressure   1.00000 Atm.
 Atom     1 has atomic number  6 and mass  12.00000

 Molecular mass:   149.95985 amu.
 Principal axes and moments of inertia in atomic units:
                           1         2         3
     Eigenvalues --   673.824671131.972331139.43641
           X            0.98789   0.10553  -0.11372
           Y            0.15481  -0.62279   0.76692
           Z           -0.01011   0.77524   0.63158
 This molecule is an asymmetric top.
 Rotational symmetry number  1.
 Warning -- assumption of classical behavior for rotation
           may cause significant error
 Rotational temperatures (Kelvin)      0.12854     0.07652     0.07601
 Rotational constants (GHZ):           2.67835     1.59433     1.58389
 Zero-point vibrational energy     106402.4 (Joules/Mol)
                                   25.43079 (Kcal/Mol)
 Warning -- explicit consideration of  11 degrees of freedom as
           vibrations may cause significant error
 Vibrational temperatures:     86.27   269.41   282.30   445.89   464.68
          (Kelvin)            492.85   538.98   676.34   729.12   821.92
                              830.24   910.50  1143.02  1304.71  1640.87
                             1724.41  1835.24  1865.25  1883.68  2166.08
                             5482.79

 Zero-point correction=                           0.040527 (Hartree/Particle)
 Thermal correction to Energy=                    0.047994
 Thermal correction to Enthalpy=                  0.048938
 Thermal correction to Gibbs Free Energy=         0.007941
 Sum of electronic and zero-point Energies=           -962.085369
 Sum of electronic and thermal Energies=              -962.077901
 Sum of electronic and thermal Enthalpies=            -962.076957
 Sum of electronic and thermal Free Energies=         -962.117955

                     E (Thermal)             CV                S
                      KCal/Mol        Cal/Mol-Kelvin    Cal/Mol-Kelvin
 Total                   30.117             25.856             86.287
 Electronic               0.000              0.000              0.000
 Translational            0.889              2.981             40.926
 Rotational               0.889              2.981             28.254
 Vibrational             28.339             19.895             17.107
 Vibration     1          0.597              1.973              4.458
 Vibration     2          0.632              1.857              2.255
 Vibration     3          0.636              1.845              2.168
 Vibration     4          0.699              1.655              1.363
 Vibration     5          0.708              1.629              1.295
 Vibration     6          0.722              1.590              1.200
 Vibration     7          0.746              1.524              1.061
 Vibration     8          0.827              1.316              0.737
 Vibration     9          0.862              1.235              0.641
 Vibration    10          0.927              1.093              0.502
 Vibration    11          0.934              1.081              0.491

 Optimization completed.
    -- Stationary point found.
 Normal termination of Gaussian 16 at Sun May 25 04:12:32 2025.
