 Gaussian 16, Revision C.01,
 Gaussian 16:  ES64L-G16RevC.01  3-Jul-2019

 ----------------------------------------------------------------------
 #P M062X/Def2TZVPP Symm(None) scf(xqc) pop(None) geom(AllCheck,NoKeepC
 onstants) guess(Read) irc(RCFC,reverse,MaxPoints=100,StepSize=2)
 ----------------------------------------------------------------------

 Structure from the checkpoint file:  "1502984803620600000001_r12_insertion_R_1_5_8_IRC_R.chk"
 ------------------------------
 Gaussian input prepared by ASE
 ------------------------------
 Charge =  0 Multiplicity = 1

 SCF Done:  E(RM062X) =  -962.121527745     A.U. after    8 cycles

                          Input orientation:
 ---------------------------------------------------------------------
 Center     Atomic      Atomic             Coordinates (Angstroms)
 Number     Number       Type             X           Y           Z
 ---------------------------------------------------------------------
      1          6           0       -0.928095   -0.171272    0.063209
      2          9           0       -1.515927    0.309412   -1.015111
      3          9           0       -1.394332    0.442448    1.133455
      4          9           0       -1.164199   -1.467047    0.156733
      5         16           0        0.897001    0.046575   -0.053550
      6          8           0        1.468196   -0.350559    1.181870
      7          8           0        1.329034   -0.509067   -1.284230
      8          8           0        0.836928    1.618516   -0.151083
      9          1           0        1.724803    1.999546   -0.216934
 ---------------------------------------------------------------------

 Normal termination of Gaussian 16 at Sun May 25 03:42:18 2025.
