 Gaussian 16, Revision C.01,
 Gaussian 16:  ES64L-G16RevC.01  3-Jul-2019

 ----------------------------------------------------------------------
 #P M062X/Def2TZVPP Symm(None) scf(xqc) pop(None) geom(AllCheck,NoKeepC
 onstants) guess(Read) irc(RCFC,forward,MaxPoints=100,StepSize=2)
 ----------------------------------------------------------------------

 Structure from the checkpoint file:  "1502984803620600000001_r12_insertion_R_6_5_7_IRC_F.chk"
 ------------------------------
 Gaussian input prepared by ASE
 ------------------------------
 Charge =  0 Multiplicity = 1

 SCF Done:  E(RM062X) =  -961.922842186     A.U. after   15 cycles
 SCF Done:  E(RM062X) =  -961.923226721     A.U. after   18 cycles
 SCF Done:  E(RM062X) =  -961.923859743     A.U. after   18 cycles
 SCF Done:  E(RM062X) =  -961.924731388     A.U. after   18 cycles
 SCF Done:  E(RM062X) =  -961.925829393     A.U. after   17 cycles
 SCF Done:  E(RM062X) =  -961.927139591     A.U. after   17 cycles
 SCF Done:  E(RM062X) =  -961.928646400     A.U. after   17 cycles
 SCF Done:  E(RM062X) =  -961.930333278     A.U. after   16 cycles
 SCF Done:  E(RM062X) =  -961.932183151     A.U. after   16 cycles
 SCF Done:  E(RM062X) =  -961.934178791     A.U. after   15 cycles
 SCF Done:  E(RM062X) =  -962.067623197     A.U. after   11 cycles
 SCF Done:  E(RM062X) =  -962.068618668     A.U. after   11 cycles
 SCF Done:  E(RM062X) =  -962.069604737     A.U. after   11 cycles
 SCF Done:  E(RM062X) =  -962.070581453     A.U. after   11 cycles
 SCF Done:  E(RM062X) =  -962.071548870     A.U. after   10 cycles
 SCF Done:  E(RM062X) =  -962.072507049     A.U. after   10 cycles
 SCF Done:  E(RM062X) =  -962.073456054     A.U. after   10 cycles
 SCF Done:  E(RM062X) =  -962.074395958     A.U. after   10 cycles
 SCF Done:  E(RM062X) =  -962.075326834     A.U. after   10 cycles
 SCF Done:  E(RM062X) =  -962.076248762     A.U. after   10 cycles

                          Input orientation:
 ---------------------------------------------------------------------
 Center     Atomic      Atomic             Coordinates (Angstroms)
 Number     Number       Type             X           Y           Z
 ---------------------------------------------------------------------
      1          6           0       -1.032362   -0.153429    0.073756
      2          9           0       -1.814306    0.472210   -0.773694
      3          9           0       -1.164172    0.428114    1.253943
      4          9           0       -1.385654   -1.411081    0.192193
      5         16           0        0.961276   -0.023235   -0.216547
      6          8           0        1.144773   -0.665243    1.039554
      7          8           0        2.022786   -0.245161   -1.160967
      8          8           0        0.767963    1.554131   -0.267510
      9          1           0        1.604611    1.976006   -0.513194
 ---------------------------------------------------------------------

 Normal termination of Gaussian 16 at Sun May 25 05:15:15 2025.
