 Gaussian 16, Revision C.01,
 Gaussian 16:  ES64L-G16RevC.01  3-Jul-2019

 -----------------------------------------------------------------
 #P M062X/Def2TZVPP Symm(None) scf(xqc) pop(None) freq opt(CalcFC)
 -----------------------------------------------------------------

 ------------------------------
 Gaussian input prepared by ASE
 ------------------------------
 Symbolic Z-matrix:
 Charge =  0 Multiplicity = 1

 SCF Done:  E(RM062X) =  -962.047378497     A.U. after   14 cycles
 SCF Done:  E(RM062X) =  -962.044045657     A.U. after   12 cycles
 SCF Done:  E(RM062X) =  -962.047382902     A.U. after   10 cycles
 SCF Done:  E(RM062X) =  -962.015913258     A.U. after   14 cycles
 SCF Done:  E(RM062X) =  -962.047316987     A.U. after   12 cycles
 SCF Done:  E(RM062X) =  -962.047388777     A.U. after    9 cycles
 SCF Done:  E(RM062X) =  -962.047388839     A.U. after   11 cycles
 SCF Done:  E(RM062X) =  -962.047367789     A.U. after   11 cycles
 SCF Done:  E(RM062X) =  -962.047409836     A.U. after   10 cycles
 SCF Done:  E(RM062X) =  -962.047411513     A.U. after   11 cycles
 SCF Done:  E(RM062X) =  -962.047411738     A.U. after   11 cycles
 SCF Done:  E(RM062X) =  -962.047416448     A.U. after    9 cycles
 SCF Done:  E(RM062X) =  -962.047416516     A.U. after    7 cycles
 Optimization completed.
    -- Stationary point found.
 Normal termination of Gaussian 16 at Sun May 25 05:17:25 2025.

 ---------------------------------------------------------------------
 #P Geom=AllCheck Guess=TCheck SCRF=Check GenChk RM062X/def2TZVPP Freq
 ---------------------------------------------------------------------

 Structure from the checkpoint file:  "1502984803620600000001_r13_insertion_ROR_2_1_5_8_IRC_F_prod.chk"
 ------------------------------
 Gaussian input prepared by ASE
 ------------------------------
 Charge =  0 Multiplicity = 1

                          Input orientation:
 ---------------------------------------------------------------------
 Center     Atomic      Atomic             Coordinates (Angstroms)
 Number     Number       Type             X           Y           Z
 ---------------------------------------------------------------------
      1          6           0        0.035228   -0.968643   -0.076762
      2          9           0       -2.125778   -0.460367    0.059867
      3          9           0        0.019373   -1.717191    0.931529
      4          9           0       -0.032526   -1.611475   -1.150314
      5         16           0        0.513666    0.919010    0.028545
      6          8           0        1.764688    0.742055    0.682728
      7          8           0        0.484018    1.252239   -1.350099
      8          8           0       -0.587920    1.370852    0.841354
      9          1           0       -1.884572    0.390713    0.407853
 ---------------------------------------------------------------------

 SCF Done:  E(RM062X) =  -962.047416516     A.U. after    1 cycles

 Isotropic polarizability for W=    0.000000       44.31 Bohr**3.
 End of Minotr F.D. properties file   721 does not exist.

                      1                      2                      3
                      A                      A                      A
 Frequencies --     45.0289               114.5332               146.9123
 Red. masses --     16.4422                11.4889                16.3641
 Frc consts  --      0.0196                 0.0888                 0.2081
 IR Inten    --      0.8303                 5.9227                 0.0451

                      4                      5                      6
                      A                      A                      A
 Frequencies --    152.8996               186.1436               218.9810
 Red. masses --     15.8532                16.2962                10.9290
 Frc consts  --      0.2184                 0.3327                 0.3088
 IR Inten    --      4.2918                 0.7000                28.5659

                      7                      8                      9
                      A                      A                      A
 Frequencies --    259.8862               360.9608               514.7373
 Red. masses --     14.7831                15.4954                13.0872
 Frc consts  --      0.5883                 1.1895                 2.0430
 IR Inten    --     22.4919                 5.9004                60.6258

                     10                     11                     12
                      A                      A                      A
 Frequencies --    550.6963               601.5005               607.6692
 Red. masses --     13.2590                15.0237                11.2232
 Frc consts  --      2.3691                 3.2026                 2.4417
 IR Inten    --     14.0855                83.6648               137.1695

                     13                     14                     15
                      A                      A                      A
 Frequencies --    704.8573               717.2951               847.3954
 Red. masses --      1.3627                 3.7519                 1.1749
 Frc consts  --      0.3989                 1.1374                 0.4971
 IR Inten    --    102.4590                26.3921               433.4597

                     16                     17                     18
                      A                      A                      A
 Frequencies --   1107.3302              1370.2413              1427.4180
 Red. masses --     15.2921                16.2355                14.5530
 Frc consts  --     11.0477                17.9601                17.4705
 IR Inten    --     46.4279               215.0808               207.0841

                     19                     20                     21
                      A                      A                      A
 Frequencies --   1439.7424              1486.1660              3484.8862
 Red. masses --     17.1641                13.7767                 1.0629
 Frc consts  --     20.9624                17.9279                 7.6056
 IR Inten    --     71.0904               481.5033               536.7729

 - Thermochemistry -
 -------------------
 Temperature   298.150 Kelvin.  Pressure   1.00000 Atm.
 Atom     1 has atomic number  6 and mass  12.00000

 Molecular mass:   149.95985 amu.
 Principal axes and moments of inertia in atomic units:
                           1         2         3
     Eigenvalues --   773.327301183.753521318.50244
           X            0.51107   0.85689   0.06742
           Y            0.85903  -0.50650  -0.07431
           Z            0.02953  -0.09589   0.99495
 This molecule is an asymmetric top.
 Rotational symmetry number  1.
 Warning -- assumption of classical behavior for rotation
           may cause significant error
 Rotational temperatures (Kelvin)      0.11200     0.07317     0.06569
 Rotational constants (GHZ):           2.33374     1.52459     1.36878
 Zero-point vibrational energy      97766.5 (Joules/Mol)
                                   23.36675 (Kcal/Mol)
 Warning -- explicit consideration of  12 degrees of freedom as
           vibrations may cause significant error
 Vibrational temperatures:     64.79   164.79   211.37   219.99   267.82
          (Kelvin)            315.06   373.92   519.34   740.59   792.33
                              865.43   874.30  1014.13  1032.03  1219.21
                             1593.20  1971.47  2053.74  2071.47  2138.26
                             5013.97

 Zero-point correction=                           0.037237 (Hartree/Particle)
 Thermal correction to Energy=                    0.045897
 Thermal correction to Enthalpy=                  0.046841
 Thermal correction to Gibbs Free Energy=         0.002646
 Sum of electronic and zero-point Energies=           -962.010179
 Sum of electronic and thermal Energies=              -962.001520
 Sum of electronic and thermal Enthalpies=            -962.000576
 Sum of electronic and thermal Free Energies=         -962.044770

                     E (Thermal)             CV                S
                      KCal/Mol        Cal/Mol-Kelvin    Cal/Mol-Kelvin
 Total                   28.800             27.904             93.015
 Electronic               0.000              0.000              0.000
 Translational            0.889              2.981             40.926
 Rotational               0.889              2.981             28.581
 Vibrational             27.023             21.942             23.509
 Vibration     1          0.595              1.979              5.025
 Vibration     2          0.607              1.937              3.191
 Vibration     3          0.617              1.906              2.712
 Vibration     4          0.619              1.899              2.636
 Vibration     5          0.632              1.859              2.266
 Vibration     6          0.647              1.812              1.968
 Vibration     7          0.668              1.746              1.663
 Vibration     8          0.735              1.553              1.118
 Vibration     9          0.870              1.217              0.622
 Vibration    10          0.906              1.138              0.543
 Vibration    11          0.960              1.029              0.447
 Vibration    12          0.966              1.016              0.437

 Optimization completed.
    -- Stationary point found.
 Normal termination of Gaussian 16 at Sun May 25 05:19:18 2025.
