 Gaussian 16, Revision C.01,
 Gaussian 16:  ES64L-G16RevC.01  3-Jul-2019

 ----------------------------------------------------------------------
 #P M062X/Def2TZVPP Symm(None) scf(xqc) pop(None) geom(AllCheck,NoKeepC
 onstants) guess(Read) irc(RCFC,reverse,MaxPoints=100,StepSize=2)
 ----------------------------------------------------------------------

 Structure from the checkpoint file:  "1502984803620600000001_r12_insertion_R_2_1_5_IRC_R.chk"
 ------------------------------
 Gaussian input prepared by ASE
 ------------------------------
 Charge =  0 Multiplicity = 1

 SCF Done:  E(RM062X) =  -961.990045800     A.U. after   10 cycles
 SCF Done:  E(RM062X) =  -961.990109220     A.U. after   11 cycles
 SCF Done:  E(RM062X) =  -961.990216598     A.U. after   11 cycles
 SCF Done:  E(RM062X) =  -961.990369453     A.U. after   11 cycles
 SCF Done:  E(RM062X) =  -961.990569198     A.U. after   11 cycles
 SCF Done:  E(RM062X) =  -961.990817190     A.U. after   11 cycles
 SCF Done:  E(RM062X) =  -961.991114712     A.U. after   11 cycles
 SCF Done:  E(RM062X) =  -961.991462973     A.U. after   11 cycles
 SCF Done:  E(RM062X) =  -961.991863095     A.U. after   11 cycles
 SCF Done:  E(RM062X) =  -961.992316107     A.U. after   11 cycles
 SCF Done:  E(RM062X) =  -962.104950888     A.U. after    9 cycles
 SCF Done:  E(RM062X) =  -962.105813962     A.U. after    9 cycles
 SCF Done:  E(RM062X) =  -962.106653256     A.U. after    9 cycles
 SCF Done:  E(RM062X) =  -962.107468756     A.U. after    9 cycles
 SCF Done:  E(RM062X) =  -962.108260448     A.U. after    9 cycles
 SCF Done:  E(RM062X) =  -962.109028312     A.U. after    9 cycles
 SCF Done:  E(RM062X) =  -962.109772328     A.U. after    9 cycles
 SCF Done:  E(RM062X) =  -962.110492471     A.U. after    9 cycles
 SCF Done:  E(RM062X) =  -962.111188715     A.U. after    9 cycles
 SCF Done:  E(RM062X) =  -962.111861036     A.U. after    9 cycles

                          Input orientation:
 ---------------------------------------------------------------------
 Center     Atomic      Atomic             Coordinates (Angstroms)
 Number     Number       Type             X           Y           Z
 ---------------------------------------------------------------------
      1          6           0       -0.961811   -0.181617    0.085610
      2          9           0       -1.362499    1.029764   -0.269827
      3          9           0       -1.406049   -0.490651    1.287838
      4          9           0       -1.455984   -1.087955   -0.739187
      5         16           0        0.908825    0.015505   -0.025654
      6          8           0        1.369038   -0.120740    1.303429
      7          8           0        1.255838   -0.743958   -1.176181
      8          8           0        1.220483    1.519032   -0.386467
      9          1           0        1.228214    1.632093   -1.347635
 ---------------------------------------------------------------------

 Normal termination of Gaussian 16 at Sun May 25 04:10:57 2025.
