 Gaussian 16, Revision C.01,
 Gaussian 16:  ES64L-G16RevC.01  3-Jul-2019

 ----------------------------------------------------------------------
 #P M062X/Def2TZVPP Symm(None) scf(xqc) pop(None) opt(NoFreeze,TS,CalcA
 ll,NoEigentest,MaxCycle=999)
 ----------------------------------------------------------------------

 ------------------------------
 Gaussian input prepared by ASE
 ------------------------------
 Symbolic Z-matrix:
 Charge =  0 Multiplicity = 1

 SCF Done:  E(RM062X) =  -961.937638144     A.U. after   15 cycles
 SCF Done:  E(RM062X) =  -962.037332066     A.U. after   15 cycles
 SCF Done:  E(RM062X) =  -962.093434760     A.U. after   12 cycles
 SCF Done:  E(RM062X) =  -962.116161341     A.U. after   12 cycles
 SCF Done:  E(RM062X) =  -962.117962794     A.U. after   12 cycles
 SCF Done:  E(RM062X) =  -962.120317436     A.U. after   13 cycles
 SCF Done:  E(RM062X) =  -962.120749741     A.U. after   11 cycles
 SCF Done:  E(RM062X) =  -962.120765044     A.U. after   10 cycles

 Isotropic polarizability for W=    0.000000       41.48 Bohr**3.
 End of Minotr F.D. properties file   721 does not exist.

 Optimization completed.
    -- Stationary point found.

                          Input orientation:
 ---------------------------------------------------------------------
 Center     Atomic      Atomic             Coordinates (Angstroms)
 Number     Number       Type             X           Y           Z
 ---------------------------------------------------------------------
      1          6           0       -0.099576   -0.026839    0.132951
      2          9           0       -0.662133    1.127706   -0.187276
      3          9           0       -0.499209   -0.388690    1.333475
      4          9           0       -0.463944   -0.940090   -0.746498
      5         16           0        1.769166    0.126014    0.122001
      6          8           0        2.243584   -0.723419   -0.911438
      7          8           0        2.192838    0.039406    1.465837
      8          8           0        1.948048    1.622116   -0.325297
      9          1           0        2.041741    1.676633   -1.286878
 ---------------------------------------------------------------------

 ******    1 imaginary frequencies (negative Signs) ******

                      1                      2                      3
                      A                      A                      A
 Frequencies --    -59.6310               220.0305               233.4294
 Red. masses --     13.1215                 5.8654                10.0794
 Frc consts  --      0.0275                 0.1673                 0.3236
 IR Inten    --      1.9525                12.5321                 4.6100

                      4                      5                      6
                      A                      A                      A
 Frequencies --    295.8581               319.6096               328.7832
 Red. masses --      2.3797                15.7271                14.6272
 Frc consts  --      0.1227                 0.9465                 0.9316
 IR Inten    --     40.2259                 0.4142                 1.9096

                      7                      8                      9
                      A                      A                      A
 Frequencies --    369.6314               472.1370               505.2359
 Red. masses --      2.7646                 4.4825                15.2984
 Frc consts  --      0.2225                 0.5887                 2.3008
 IR Inten    --     36.5058                26.7063                28.4024

                     10                     11                     12
                      A                      A                      A
 Frequencies --    571.8437               575.8827               629.7410
 Red. masses --     15.6738                16.5749                20.0064
 Frc consts  --      3.0198                 3.2387                 4.6746
 IR Inten    --      0.8690                 2.2161               163.4754

                     13                     14                     15
                      A                      A                      A
 Frequencies --    788.6121               907.8582              1139.7441
 Red. masses --     17.4310                17.6168                 1.1854
 Frc consts  --      6.3870                 8.5548                 0.9073
 IR Inten    --      5.7811               227.2595                79.8212

                     16                     17                     18
                      A                      A                      A
 Frequencies --   1182.7393              1275.6050              1293.0398
 Red. masses --     14.3267                13.8186                15.1420
 Frc consts  --     11.8079                13.2479                14.9161
 IR Inten    --    272.0252                76.1584               230.9023

                     19                     20                     21
                      A                      A                      A
 Frequencies --   1303.7305              1500.6814              3815.2747
 Red. masses --     13.3811                15.4218                 1.0658
 Frc consts  --     13.4004                20.4627                 9.1405
 IR Inten    --    225.5231               288.8802               185.4440

 - Thermochemistry -
 -------------------
 Temperature   298.150 Kelvin.  Pressure   1.00000 Atm.
 Atom     1 has atomic number  6 and mass  12.00000

 Molecular mass:   149.95985 amu.
 Principal axes and moments of inertia in atomic units:
                           1         2         3
     Eigenvalues --   670.838051161.279121169.26273
           X            0.98877   0.05068  -0.14062
           Y            0.14600  -0.12573   0.98126
           Z           -0.03205   0.99077   0.13172
 This molecule is an asymmetric top.
 Rotational symmetry number  1.
 Warning -- assumption of classical behavior for rotation
           may cause significant error
 Rotational temperatures (Kelvin)      0.12911     0.07458     0.07408
 Rotational constants (GHZ):           2.69028     1.55410     1.54349
    1 imaginary frequencies ignored.
 Zero-point vibrational energy     106045.8 (Joules/Mol)
                                   25.34555 (Kcal/Mol)
 Warning -- explicit consideration of  10 degrees of freedom as
           vibrations may cause significant error
 Vibrational temperatures:    316.57   335.85   425.67   459.85   473.05
          (Kelvin)            531.82   679.30   726.92   822.76   828.57
                              906.06  1134.64  1306.21  1639.84  1701.70
                             1835.31  1860.40  1875.78  2159.15  5489.33

 Zero-point correction=                           0.040391 (Hartree/Particle)
 Thermal correction to Energy=                    0.046984
 Thermal correction to Enthalpy=                  0.047928
 Thermal correction to Gibbs Free Energy=         0.009226
 Sum of electronic and zero-point Energies=           -962.080374
 Sum of electronic and thermal Energies=              -962.073781
 Sum of electronic and thermal Enthalpies=            -962.072837
 Sum of electronic and thermal Free Energies=         -962.111539

                     E (Thermal)             CV                S
                      KCal/Mol        Cal/Mol-Kelvin    Cal/Mol-Kelvin
 Total                   29.483             23.883             81.456
 Electronic               0.000              0.000              0.000
 Translational            0.889              2.981             40.926
 Rotational               0.889              2.981             28.301
 Vibrational             27.705             17.922             12.229
 Vibration     1          0.647              1.811              1.959
 Vibration     2          0.654              1.790              1.852
 Vibration     3          0.690              1.681              1.440
 Vibration     4          0.706              1.636              1.312
 Vibration     5          0.712              1.618              1.266
 Vibration     6          0.742              1.535              1.081
 Vibration     7          0.829              1.312              0.732
 Vibration     8          0.860              1.238              0.645
 Vibration     9          0.928              1.092              0.501
 Vibration    10          0.932              1.083              0.493

 Normal termination of Gaussian 16 at Sun May 25 03:58:38 2025.
