 Gaussian 16, Revision C.01,
 Gaussian 16:  ES64L-G16RevC.01  3-Jul-2019

 -----------------------------------------------------------------
 #P M062X/Def2TZVPP Symm(None) scf(xqc) pop(None) freq opt(CalcFC)
 -----------------------------------------------------------------

 ------------------------------
 Gaussian input prepared by ASE
 ------------------------------
 Symbolic Z-matrix:
 Charge =  0 Multiplicity = 1

 SCF Done:  E(RM062X) =  -962.120763045     A.U. after   13 cycles
 SCF Done:  E(RM062X) =  -962.121205110     A.U. after   12 cycles
 SCF Done:  E(RM062X) =  -962.122703607     A.U. after   12 cycles
 SCF Done:  E(RM062X) =  -962.125094542     A.U. after   13 cycles
 SCF Done:  E(RM062X) =  -962.122093485     A.U. after   14 cycles
 SCF Done:  E(RM062X) =  -962.125866407     A.U. after   12 cycles
 SCF Done:  E(RM062X) =  -962.125895474     A.U. after    9 cycles
 SCF Done:  E(RM062X) =  -962.125897210     A.U. after    8 cycles
 Optimization completed.
    -- Stationary point found.
 Normal termination of Gaussian 16 at Sun May 25 04:20:52 2025.

 ---------------------------------------------------------------------
 #P Geom=AllCheck Guess=TCheck SCRF=Check GenChk RM062X/def2TZVPP Freq
 ---------------------------------------------------------------------

 Structure from the checkpoint file:  "1502984803620600000001_r12_insertion_R_6_5_8_IRC_F_prod.chk"
 ------------------------------
 Gaussian input prepared by ASE
 ------------------------------
 Charge =  0 Multiplicity = 1

                          Input orientation:
 ---------------------------------------------------------------------
 Center     Atomic      Atomic             Coordinates (Angstroms)
 Number     Number       Type             X           Y           Z
 ---------------------------------------------------------------------
      1          6           0       -0.931300   -0.144703    0.003400
      2          9           0       -1.463580    0.567877   -0.980270
      3          9           0       -1.337237    0.340836    1.160389
      4          9           0       -1.311920   -1.402315   -0.109815
      5         16           0        0.903318   -0.065374   -0.113752
      6          8           0        1.421060   -0.630897    1.071162
      7          8           0        1.249466   -0.507161   -1.416928
      8          8           0        1.096111    1.492707   -0.025034
      9          1           0        1.111963    1.877265   -0.913318
 ---------------------------------------------------------------------

 SCF Done:  E(RM062X) =  -962.125897210     A.U. after    1 cycles

 Isotropic polarizability for W=    0.000000       41.22 Bohr**3.
 End of Minotr F.D. properties file   721 does not exist.

                      1                      2                      3
                      A                      A                      A
 Frequencies --     61.4788               188.4372               194.9937
 Red. masses --     13.4568                 7.5486                16.1074
 Frc consts  --      0.0300                 0.1579                 0.3608
 IR Inten    --      1.4225                 9.2665                 3.2509

                      4                      5                      6
                      A                      A                      A
 Frequencies --    310.1532               324.9490               342.5276
 Red. masses --     12.0304                 3.3426                13.3130
 Frc consts  --      0.6818                 0.2080                 0.9203
 IR Inten    --      0.5086                27.0590                 1.8276

                      7                      8                      9
                      A                      A                      A
 Frequencies --    379.0040               472.3406               507.3609
 Red. masses --      1.9438                 4.1691                14.9583
 Frc consts  --      0.1645                 0.5480                 2.2686
 IR Inten    --     53.3413                28.5953                26.5829

                     10                     11                     12
                      A                      A                      A
 Frequencies --    571.2279               577.0105               632.6973
 Red. masses --     15.6371                16.3620                19.9442
 Frc consts  --      3.0062                 3.2096                 4.7039
 IR Inten    --      0.8846                 2.8357               159.9846

                     13                     14                     15
                      A                      A                      A
 Frequencies --    794.6464               906.9917              1140.1727
 Red. masses --     17.7176                17.6028                 1.1837
 Frc consts  --      6.5918                 8.5318                 0.9067
 IR Inten    --      3.7285               217.8401                87.5433

                     16                     17                     18
                      A                      A                      A
 Frequencies --   1198.5003              1275.5949              1295.5365
 Red. masses --     14.7703                13.3506                13.3365
 Frc consts  --     12.5002                12.7990                13.1884
 IR Inten    --    264.6495               166.6226               137.6177

                     19                     20                     21
                      A                      A                      A
 Frequencies --   1308.8710              1504.9645              3807.9200
 Red. masses --     15.3688                15.4190                 1.0657
 Frc consts  --     15.5125                20.5758                 9.1045
 IR Inten    --    229.6149               292.5575               186.7101

 - Thermochemistry -
 -------------------
 Temperature   298.150 Kelvin.  Pressure   1.00000 Atm.
 Atom     1 has atomic number  6 and mass  12.00000

 Molecular mass:   149.95985 amu.
 Principal axes and moments of inertia in atomic units:
                           1         2         3
     Eigenvalues --   673.830551131.994391139.42327
           X            0.99184   0.11592  -0.05314
           Y            0.10982  -0.56462   0.81801
           Z           -0.06482   0.81717   0.57274
 This molecule is an asymmetric top.
 Rotational symmetry number  1.
 Warning -- assumption of classical behavior for rotation
           may cause significant error
 Rotational temperatures (Kelvin)      0.12854     0.07651     0.07602
 Rotational constants (GHZ):           2.67833     1.59430     1.58391
 Zero-point vibrational energy     106440.0 (Joules/Mol)
                                   25.43977 (Kcal/Mol)
 Warning -- explicit consideration of  11 degrees of freedom as
           vibrations may cause significant error
 Vibrational temperatures:     88.45   271.12   280.55   446.24   467.53
          (Kelvin)            492.82   545.30   679.59   729.98   821.87
                              830.19   910.31  1143.32  1304.96  1640.45
                             1724.37  1835.30  1863.99  1883.17  2165.31
                             5478.75

 Zero-point correction=                           0.040541 (Hartree/Particle)
 Thermal correction to Energy=                    0.047996
 Thermal correction to Enthalpy=                  0.048940
 Thermal correction to Gibbs Free Energy=         0.007984
 Sum of electronic and zero-point Energies=           -962.085356
 Sum of electronic and thermal Energies=              -962.077901
 Sum of electronic and thermal Enthalpies=            -962.076957
 Sum of electronic and thermal Free Energies=         -962.117914

                     E (Thermal)             CV                S
                      KCal/Mol        Cal/Mol-Kelvin    Cal/Mol-Kelvin
 Total                   30.118             25.837             86.201
 Electronic               0.000              0.000              0.000
 Translational            0.889              2.981             40.926
 Rotational               0.889              2.981             28.254
 Vibrational             28.341             19.875             17.021
 Vibration     1          0.597              1.973              4.409
 Vibration     2          0.633              1.856              2.243
 Vibration     3          0.636              1.847              2.180
 Vibration     4          0.699              1.654              1.362
 Vibration     5          0.709              1.626              1.285
 Vibration     6          0.722              1.590              1.200
 Vibration     7          0.749              1.515              1.043
 Vibration     8          0.829              1.311              0.731
 Vibration     9          0.863              1.234              0.640
 Vibration    10          0.927              1.093              0.502
 Vibration    11          0.933              1.081              0.491

 Optimization completed.
    -- Stationary point found.
 Normal termination of Gaussian 16 at Sun May 25 04:22:32 2025.
