 Gaussian 16, Revision C.01,
 Gaussian 16:  ES64L-G16RevC.01  3-Jul-2019

 ----------------------------------------------------------------------
 #P M062X/Def2TZVPP Symm(None) scf(xqc) pop(None) geom(AllCheck,NoKeepC
 onstants) guess(Read) irc(RCFC,reverse,MaxPoints=100,StepSize=2)
 ----------------------------------------------------------------------

 Structure from the checkpoint file:  "1502984803620600000001_r12_insertion_R_5_1_3_IRC_R.chk"
 ------------------------------
 Gaussian input prepared by ASE
 ------------------------------
 Charge =  0 Multiplicity = 1

 SCF Done:  E(RM062X) =  -961.990044741     A.U. after   10 cycles
 SCF Done:  E(RM062X) =  -961.990104205     A.U. after   11 cycles
 SCF Done:  E(RM062X) =  -961.990201362     A.U. after   11 cycles
 SCF Done:  E(RM062X) =  -961.990334522     A.U. after   11 cycles
 SCF Done:  E(RM062X) =  -961.990501971     A.U. after   11 cycles
 SCF Done:  E(RM062X) =  -961.990701993     A.U. after   11 cycles
 SCF Done:  E(RM062X) =  -961.990932885     A.U. after   11 cycles
 SCF Done:  E(RM062X) =  -961.991192971     A.U. after   11 cycles
 SCF Done:  E(RM062X) =  -961.991480615     A.U. after   11 cycles
 SCF Done:  E(RM062X) =  -961.991794228     A.U. after   11 cycles
 SCF Done:  E(RM062X) =  -962.038394948     A.U. after   10 cycles
 SCF Done:  E(RM062X) =  -962.038772241     A.U. after   10 cycles
 SCF Done:  E(RM062X) =  -962.039136905     A.U. after   10 cycles
 SCF Done:  E(RM062X) =  -962.039489376     A.U. after   10 cycles
 SCF Done:  E(RM062X) =  -962.039830025     A.U. after   10 cycles
 SCF Done:  E(RM062X) =  -962.040159082     A.U. after   10 cycles
 SCF Done:  E(RM062X) =  -962.040476629     A.U. after   10 cycles
 SCF Done:  E(RM062X) =  -962.040782699     A.U. after   10 cycles
 SCF Done:  E(RM062X) =  -962.041077376     A.U. after   10 cycles
 SCF Done:  E(RM062X) =  -962.041360855     A.U. after   10 cycles

                          Input orientation:
 ---------------------------------------------------------------------
 Center     Atomic      Atomic             Coordinates (Angstroms)
 Number     Number       Type             X           Y           Z
 ---------------------------------------------------------------------
      1          6           0       -1.253769   -1.336265   -0.479656
      2          9           0       -2.005129   -0.567496   -1.199667
      3          9           0       -0.454295    0.943929    0.466770
      4          9           0       -1.833398   -1.385722    0.674981
      5         16           0        0.959783    0.397085    0.094785
      6          8           0        1.212615   -0.693284    0.940506
      7          8           0        1.000846    0.351843   -1.314384
      8          8           0        1.791167    1.604567    0.616921
      9          1           0        1.848345    2.292007   -0.061802
 ---------------------------------------------------------------------

 Normal termination of Gaussian 16 at Sun May 25 04:18:19 2025.
