 Gaussian 16, Revision C.01,
 Gaussian 16:  ES64L-G16RevC.01  3-Jul-2019

 -----------------------------------------------------------------
 #P M062X/Def2TZVPP Symm(None) scf(xqc) pop(None) freq opt(CalcFC)
 -----------------------------------------------------------------

 ------------------------------
 Gaussian input prepared by ASE
 ------------------------------
 Symbolic Z-matrix:
 Charge =  0 Multiplicity = 1

 SCF Done:  E(RM062X) =  -962.119875165     A.U. after   13 cycles
 SCF Done:  E(RM062X) =  -962.125431638     A.U. after   12 cycles
 SCF Done:  E(RM062X) =  -962.125858594     A.U. after   11 cycles
 SCF Done:  E(RM062X) =  -962.125892576     A.U. after   10 cycles
 SCF Done:  E(RM062X) =  -962.125893454     A.U. after    8 cycles
 SCF Done:  E(RM062X) =  -962.125893535     A.U. after    7 cycles
 Optimization completed.
    -- Stationary point found.
 Normal termination of Gaussian 16 at Sun May 25 04:22:46 2025.

 ---------------------------------------------------------------------
 #P Geom=AllCheck Guess=TCheck SCRF=Check GenChk RM062X/def2TZVPP Freq
 ---------------------------------------------------------------------

 Structure from the checkpoint file:  "1502984803620600000001_r12_insertion_R_9_8_5_IRC_R_prod.chk"
 ------------------------------
 Gaussian input prepared by ASE
 ------------------------------
 Charge =  0 Multiplicity = 1

                          Input orientation:
 ---------------------------------------------------------------------
 Center     Atomic      Atomic             Coordinates (Angstroms)
 Number     Number       Type             X           Y           Z
 ---------------------------------------------------------------------
      1          6           0       -0.896945   -0.186865    0.000481
      2          9           0       -1.436517    0.567267   -0.947698
      3          9           0       -1.383864    0.173503    1.171803
      4          9           0       -1.183132   -1.453506   -0.229893
      5         16           0        0.930776    0.024646   -0.023664
      6          8           0        1.437924   -0.599893    1.135854
      7          8           0        1.360900   -0.284555   -1.339948
      8          8           0        1.008627    1.579768    0.196507
      9          1           0        1.035664    2.035635   -0.657102
 ---------------------------------------------------------------------

 SCF Done:  E(RM062X) =  -962.125893535     A.U. after    1 cycles

 Isotropic polarizability for W=    0.000000       41.21 Bohr**3.
 End of Minotr F.D. properties file   721 does not exist.

                      1                      2                      3
                      A                      A                      A
 Frequencies --     59.7491               186.8017               196.2679
 Red. masses --     13.4218                 7.2092                15.2142
 Frc consts  --      0.0282                 0.1482                 0.3453
 IR Inten    --      1.4580                 9.6290                 3.8447

                      4                      5                      6
                      A                      A                      A
 Frequencies --    309.7725               320.8337               342.4124
 Red. masses --     10.4488                 2.7903                13.3591
 Frc consts  --      0.5907                 0.1692                 0.9228
 IR Inten    --      1.0295                35.1871                 1.7936

                      7                      8                      9
                      A                      A                      A
 Frequencies --    372.5045               469.9245               506.6496
 Red. masses --      2.2014                 4.5533                15.0684
 Frc consts  --      0.1800                 0.5924                 2.2789
 IR Inten    --     46.8290                26.5799                26.7136

                     10                     11                     12
                      A                      A                      A
 Frequencies --    571.1998               577.0125               632.8218
 Red. masses --     15.7220                16.3938                19.9336
 Frc consts  --      3.0223                 3.2159                 4.7033
 IR Inten    --      0.8324                 2.7948               158.7869

                     13                     14                     15
                      A                      A                      A
 Frequencies --    794.4381               906.8375              1139.8510
 Red. masses --     17.7070                17.6380                 1.1841
 Frc consts  --      6.5844                 8.5459                 0.9064
 IR Inten    --      3.7612               218.3418                86.8048

                     16                     17                     18
                      A                      A                      A
 Frequencies --   1198.6382              1275.8858              1296.6165
 Red. masses --     14.7593                13.3724                13.3844
 Frc consts  --     12.4937                12.8257                13.2578
 IR Inten    --    265.4805               163.1249               130.8658

                     19                     20                     21
                      A                      A                      A
 Frequencies --   1309.0412              1505.2145              3811.1601
 Red. masses --     15.2621                15.4241                 1.0657
 Frc consts  --     15.4089                20.5896                 9.1200
 IR Inten    --    239.2174               292.5571               186.7991

 - Thermochemistry -
 -------------------
 Temperature   298.150 Kelvin.  Pressure   1.00000 Atm.
 Atom     1 has atomic number  6 and mass  12.00000

 Molecular mass:   149.95985 amu.
 Principal axes and moments of inertia in atomic units:
                           1         2         3
     Eigenvalues --   673.836191131.949911139.41647
           X            0.98343   0.12192  -0.13413
           Y            0.18103  -0.62278   0.76116
           Z           -0.00927   0.77283   0.63454
 This molecule is an asymmetric top.
 Rotational symmetry number  1.
 Warning -- assumption of classical behavior for rotation
           may cause significant error
 Rotational temperatures (Kelvin)      0.12854     0.07652     0.07602
 Rotational constants (GHZ):           2.67831     1.59436     1.58392
 Zero-point vibrational energy     106369.7 (Joules/Mol)
                                   25.42298 (Kcal/Mol)
 Warning -- explicit consideration of  11 degrees of freedom as
           vibrations may cause significant error
 Vibrational temperatures:     85.97   268.77   282.39   445.69   461.61
          (Kelvin)            492.66   535.95   676.12   728.96   821.83
                              830.19   910.49  1143.02  1304.74  1639.99
                             1724.57  1835.72  1865.54  1883.42  2165.67
                             5483.41

 Zero-point correction=                           0.040514 (Hartree/Particle)
 Thermal correction to Energy=                    0.047988
 Thermal correction to Enthalpy=                  0.048932
 Thermal correction to Gibbs Free Energy=         0.007919
 Sum of electronic and zero-point Energies=           -962.085379
 Sum of electronic and thermal Energies=              -962.077905
 Sum of electronic and thermal Enthalpies=            -962.076961
 Sum of electronic and thermal Free Energies=         -962.117974

                     E (Thermal)             CV                S
                      KCal/Mol        Cal/Mol-Kelvin    Cal/Mol-Kelvin
 Total                   30.113             25.867             86.319
 Electronic               0.000              0.000              0.000
 Translational            0.889              2.981             40.926
 Rotational               0.889              2.981             28.254
 Vibrational             28.336             19.905             17.139
 Vibration     1          0.597              1.973              4.465
 Vibration     2          0.632              1.858              2.259
 Vibration     3          0.636              1.845              2.168
 Vibration     4          0.699              1.655              1.364
 Vibration     5          0.706              1.634              1.306
 Vibration     6          0.722              1.591              1.201
 Vibration     7          0.744              1.529              1.069
 Vibration     8          0.827              1.317              0.738
 Vibration     9          0.862              1.235              0.642
 Vibration    10          0.927              1.094              0.502
 Vibration    11          0.933              1.081              0.491

 Optimization completed.
    -- Stationary point found.
 Normal termination of Gaussian 16 at Sun May 25 04:24:46 2025.
