 Gaussian 16, Revision C.01,
 Gaussian 16:  ES64L-G16RevC.01  3-Jul-2019

 ----------------------------------------------------------------------
 #P M062X/Def2TZVPP Symm(None) scf(xqc) pop(None) geom(AllCheck,NoKeepC
 onstants) guess(Read) irc(RCFC,forward,MaxPoints=100,StepSize=2)
 ----------------------------------------------------------------------

 Structure from the checkpoint file:  "1502984803620600000001_intra_H_migration_5_9_IRC_F.chk"
 ------------------------------
 Gaussian input prepared by ASE
 ------------------------------
 Charge =  0 Multiplicity = 1

 SCF Done:  E(RM062X) =  -962.069731186     A.U. after    9 cycles
 SCF Done:  E(RM062X) =  -962.069816123     A.U. after   10 cycles
 SCF Done:  E(RM062X) =  -962.069957222     A.U. after   10 cycles
 SCF Done:  E(RM062X) =  -962.070153581     A.U. after   10 cycles
 SCF Done:  E(RM062X) =  -962.070403829     A.U. after    9 cycles
 SCF Done:  E(RM062X) =  -962.070706181     A.U. after    9 cycles
 SCF Done:  E(RM062X) =  -962.071058564     A.U. after    9 cycles
 SCF Done:  E(RM062X) =  -962.071458771     A.U. after    9 cycles
 SCF Done:  E(RM062X) =  -962.071904589     A.U. after    9 cycles
 SCF Done:  E(RM062X) =  -962.072393853     A.U. after    9 cycles
 SCF Done:  E(RM062X) =  -962.118039267     A.U. after    8 cycles
 SCF Done:  E(RM062X) =  -962.118263634     A.U. after    8 cycles
 SCF Done:  E(RM062X) =  -962.118483349     A.U. after    8 cycles
 SCF Done:  E(RM062X) =  -962.118698513     A.U. after    8 cycles
 SCF Done:  E(RM062X) =  -962.118909220     A.U. after    7 cycles
 SCF Done:  E(RM062X) =  -962.119115559     A.U. after    7 cycles
 SCF Done:  E(RM062X) =  -962.119317613     A.U. after    7 cycles
 SCF Done:  E(RM062X) =  -962.119515458     A.U. after    7 cycles
 SCF Done:  E(RM062X) =  -962.119709167     A.U. after    7 cycles
 SCF Done:  E(RM062X) =  -962.119898808     A.U. after    7 cycles

                          Input orientation:
 ---------------------------------------------------------------------
 Center     Atomic      Atomic             Coordinates (Angstroms)
 Number     Number       Type             X           Y           Z
 ---------------------------------------------------------------------
      1          6           0       -0.942854   -0.192831    0.020326
      2          9           0       -1.488628    0.539245   -0.932653
      3          9           0       -1.459110    0.149487    1.187389
      4          9           0       -1.178365   -1.470096   -0.207691
      5         16           0        0.872350    0.156965    0.093549
      6          8           0        1.393876   -0.725477    1.068452
      7          8           0        1.351753   -0.132831   -1.375852
      8          8           0        1.020573    1.570670    0.159086
      9          1           0        1.560515    0.740160   -1.742760
 ---------------------------------------------------------------------

 Normal termination of Gaussian 16 at Sun May 25 04:06:42 2025.
