 Gaussian 16, Revision C.01,
 Gaussian 16:  ES64L-G16RevC.01  3-Jul-2019

 ----------------------------------------------------------------------
 #P M062X/Def2TZVPP Symm(None) scf(xqc) pop(None) geom(AllCheck,NoKeepC
 onstants) guess(Read) irc(RCFC,forward,MaxPoints=100,StepSize=2)
 ----------------------------------------------------------------------

 Structure from the checkpoint file:  "1502984803620600000001_r13_insertion_ROR_2_1_5_6_IRC_F.chk"
 ------------------------------
 Gaussian input prepared by ASE
 ------------------------------
 Charge =  0 Multiplicity = 1

 SCF Done:  E(RM062X) =  -961.840402844     A.U. after   13 cycles
 SCF Done:  E(RM062X) =  -961.840531280     A.U. after   15 cycles
 SCF Done:  E(RM062X) =  -961.840739732     A.U. after   15 cycles
 SCF Done:  E(RM062X) =  -961.841023718     A.U. after   15 cycles
 SCF Done:  E(RM062X) =  -961.841378972     A.U. after   15 cycles
 SCF Done:  E(RM062X) =  -961.841801405     A.U. after   15 cycles
 SCF Done:  E(RM062X) =  -961.842287162     A.U. after   15 cycles
 SCF Done:  E(RM062X) =  -961.842832684     A.U. after   15 cycles
 SCF Done:  E(RM062X) =  -961.843434775     A.U. after   15 cycles
 SCF Done:  E(RM062X) =  -961.844090655     A.U. after   15 cycles
 SCF Done:  E(RM062X) =  -962.017117200     A.U. after   11 cycles
 SCF Done:  E(RM062X) =  -962.019674663     A.U. after   10 cycles
 SCF Done:  E(RM062X) =  -962.022244106     A.U. after   10 cycles
 SCF Done:  E(RM062X) =  -962.024825023     A.U. after   10 cycles
 SCF Done:  E(RM062X) =  -962.027416783     A.U. after   10 cycles
 SCF Done:  E(RM062X) =  -962.030018614     A.U. after   10 cycles
 SCF Done:  E(RM062X) =  -962.032629573     A.U. after   10 cycles
 SCF Done:  E(RM062X) =  -962.035248544     A.U. after   10 cycles
 SCF Done:  E(RM062X) =  -962.037874235     A.U. after   10 cycles
 SCF Done:  E(RM062X) =  -962.040505191     A.U. after   10 cycles

                          Input orientation:
 ---------------------------------------------------------------------
 Center     Atomic      Atomic             Coordinates (Angstroms)
 Number     Number       Type             X           Y           Z
 ---------------------------------------------------------------------
      1          6           0       -0.313424   -0.933049    0.036598
      2          9           0       -1.864131   -0.325607    0.491950
      3          9           0        0.303370   -1.770069    0.846338
      4          9           0       -0.416555   -1.555684   -1.104807
      5         16           0        0.422182    0.791573    0.053343
      6          8           0       -0.622537    1.608423    0.497454
      7          8           0        1.687850    0.761474    0.694505
      8          8           0        0.579911    1.026118   -1.491839
      9          1           0        1.502083    0.932083   -1.769986
 ---------------------------------------------------------------------

 Normal termination of Gaussian 16 at Sun May 25 04:52:36 2025.
