 Gaussian 16, Revision C.01,
 Gaussian 16:  ES64L-G16RevC.01  3-Jul-2019

 -----------------------------------------------------------------
 #P M062X/Def2TZVPP Symm(None) scf(xqc) pop(None) freq opt(CalcFC)
 -----------------------------------------------------------------

 ------------------------------
 Gaussian input prepared by ASE
 ------------------------------
 Symbolic Z-matrix:
 Charge =  0 Multiplicity = 1

 SCF Done:  E(RM062X) =  -962.120764363     A.U. after   13 cycles
 SCF Done:  E(RM062X) =  -962.121246618     A.U. after   12 cycles
 SCF Done:  E(RM062X) =  -962.122779487     A.U. after   12 cycles
 SCF Done:  E(RM062X) =  -962.125139281     A.U. after   13 cycles
 SCF Done:  E(RM062X) =  -962.122330745     A.U. after   14 cycles
 SCF Done:  E(RM062X) =  -962.125849297     A.U. after   12 cycles
 SCF Done:  E(RM062X) =  -962.125886552     A.U. after    9 cycles
 SCF Done:  E(RM062X) =  -962.125889705     A.U. after    8 cycles
 SCF Done:  E(RM062X) =  -962.125889770     A.U. after    6 cycles
 Optimization completed.
    -- Stationary point found.
 Normal termination of Gaussian 16 at Sun May 25 04:17:33 2025.

 ---------------------------------------------------------------------
 #P Geom=AllCheck Guess=TCheck SCRF=Check GenChk RM062X/def2TZVPP Freq
 ---------------------------------------------------------------------

 Structure from the checkpoint file:  "1502984803620600000001_r12_insertion_R_6_5_8_IRC_R_prod.chk"
 ------------------------------
 Gaussian input prepared by ASE
 ------------------------------
 Charge =  0 Multiplicity = 1

                          Input orientation:
 ---------------------------------------------------------------------
 Center     Atomic      Atomic             Coordinates (Angstroms)
 Number     Number       Type             X           Y           Z
 ---------------------------------------------------------------------
      1          6           0       -0.933519   -0.089809    0.073250
      2          9           0       -1.514662    0.970598    0.599285
      3          9           0       -1.262414   -1.165274    0.762073
      4          9           0       -1.335293   -0.230162   -1.182869
      5         16           0        0.896242    0.101822    0.105943
      6          8           0        1.252961    0.478387    1.418457
      7          8           0        1.436852   -1.023830   -0.567724
      8          8           0        1.034328    1.371932   -0.811089
      9          1           0        1.167855    1.104465   -1.731861
 ---------------------------------------------------------------------

 SCF Done:  E(RM062X) =  -962.125889770     A.U. after    1 cycles

 Isotropic polarizability for W=    0.000000       41.22 Bohr**3.
 End of Minotr F.D. properties file   721 does not exist.

                      1                      2                      3
                      A                      A                      A
 Frequencies --     59.8897               186.5734               193.2131
 Red. masses --     13.4105                 6.8664                15.1708
 Frc consts  --      0.0283                 0.1408                 0.3337
 IR Inten    --      1.4554                10.3468                 3.8675

                      4                      5                      6
                      A                      A                      A
 Frequencies --    309.3937               316.9893               342.2163
 Red. masses --      7.8633                 2.7049                13.3105
 Frc consts  --      0.4435                 0.1601                 0.9184
 IR Inten    --      2.8803                38.2453                 1.8773

                      7                      8                      9
                      A                      A                      A
 Frequencies --    369.2305               469.9229               506.7828
 Red. masses --      2.4670                 4.5614                15.1016
 Frc consts  --      0.1982                 0.5935                 2.2852
 IR Inten    --     41.1045                26.6208                26.8485

                     10                     11                     12
                      A                      A                      A
 Frequencies --    571.0966               576.9523               631.7275
 Red. masses --     15.6922                16.3632                19.9981
 Frc consts  --      3.0155                 3.2092                 4.7022
 IR Inten    --      0.8929                 2.8285               159.0320

                     13                     14                     15
                      A                      A                      A
 Frequencies --    794.3709               906.4867              1136.5473
 Red. masses --     17.7110                17.6415                 1.1845
 Frc consts  --      6.5848                 8.5410                 0.9015
 IR Inten    --      3.7866               218.2220                87.0408

                     16                     17                     18
                      A                      A                      A
 Frequencies --   1197.8702              1274.9952              1295.3010
 Red. masses --     14.8509                13.3930                13.4095
 Frc consts  --     12.5551                12.8276                13.2557
 IR Inten    --    265.6829               162.4562               129.1256

                     19                     20                     21
                      A                      A                      A
 Frequencies --   1308.4224              1503.4982              3811.1310
 Red. masses --     15.2202                15.4455                 1.0657
 Frc consts  --     15.3521                20.5711                 9.1199
 IR Inten    --    240.6741               292.2397               185.9840

 - Thermochemistry -
 -------------------
 Temperature   298.150 Kelvin.  Pressure   1.00000 Atm.
 Atom     1 has atomic number  6 and mass  12.00000

 Molecular mass:   149.95985 amu.
 Principal axes and moments of inertia in atomic units:
                           1         2         3
     Eigenvalues --   673.836271131.967721139.40812
           X            0.98772   0.01123  -0.15583
           Y            0.15398   0.09875   0.98313
           Z           -0.02643   0.99505  -0.09581
 This molecule is an asymmetric top.
 Rotational symmetry number  1.
 Warning -- assumption of classical behavior for rotation
           may cause significant error
 Rotational temperatures (Kelvin)      0.12854     0.07652     0.07602
 Rotational constants (GHZ):           2.67831     1.59434     1.58393
 Zero-point vibrational energy     106244.0 (Joules/Mol)
                                   25.39293 (Kcal/Mol)
 Warning -- explicit consideration of  11 degrees of freedom as
           vibrations may cause significant error
 Vibrational temperatures:     86.17   268.44   277.99   445.15   456.08
          (Kelvin)            492.37   531.24   676.11   729.15   821.68
                              830.11   908.91  1142.92  1304.23  1635.24
                             1723.47  1834.43  1863.65  1882.53  2163.20
                             5483.37

 Zero-point correction=                           0.040466 (Hartree/Particle)
 Thermal correction to Energy=                    0.047955
 Thermal correction to Enthalpy=                  0.048899
 Thermal correction to Gibbs Free Energy=         0.007855
 Sum of electronic and zero-point Energies=           -962.085424
 Sum of electronic and thermal Energies=              -962.077935
 Sum of electronic and thermal Enthalpies=            -962.076990
 Sum of electronic and thermal Free Energies=         -962.118035

                     E (Thermal)             CV                S
                      KCal/Mol        Cal/Mol-Kelvin    Cal/Mol-Kelvin
 Total                   30.092             25.895             86.385
 Electronic               0.000              0.000              0.000
 Translational            0.889              2.981             40.926
 Rotational               0.889              2.981             28.254
 Vibrational             28.315             19.933             17.205
 Vibration     1          0.597              1.973              4.461
 Vibration     2          0.632              1.858              2.262
 Vibration     3          0.635              1.849              2.197
 Vibration     4          0.699              1.656              1.366
 Vibration     5          0.704              1.641              1.326
 Vibration     6          0.721              1.591              1.202
 Vibration     7          0.742              1.535              1.083
 Vibration     8          0.827              1.317              0.738
 Vibration     9          0.862              1.235              0.641
 Vibration    10          0.927              1.094              0.502
 Vibration    11          0.933              1.081              0.491

 Optimization completed.
    -- Stationary point found.
 Normal termination of Gaussian 16 at Sun May 25 04:19:23 2025.
