 Gaussian 16, Revision C.01,
 Gaussian 16:  ES64L-G16RevC.01  3-Jul-2019

 ----------------------------------------------------------------------
 #P M062X/Def2TZVPP Symm(None) scf(xqc) pop(None) opt(NoFreeze,TS,CalcA
 ll,NoEigentest,MaxCycle=999)
 ----------------------------------------------------------------------

 ------------------------------
 Gaussian input prepared by ASE
 ------------------------------
 Symbolic Z-matrix:
 Charge =  0 Multiplicity = 1

 SCF Done:  E(RM062X) =  -961.937513000     A.U. after   18 cycles
 SCF Done:  E(RM062X) =  -961.937309835     A.U. after   16 cycles
 SCF Done:  E(RM062X) =  -961.928907216     A.U. after   19 cycles
 SCF Done:  E(RM062X) =  -961.909228163     A.U. after   20 cycles
 SCF Done:  E(RM062X) =  -961.891308048     A.U. after   23 cycles
 SCF Done:  E(RM062X) =  -961.881468442     A.U. after   27 cycles
 SCF Done:  E(RM062X) =  -961.875162857     A.U. after   33 cycles
 SCF Done:  E(RM062X) =  -961.875162857     a.u. after    2 cycles
 SCF Done:  E(RM062X) =  -961.867630678     A.U. after   33 cycles
 SCF Done:  E(RM062X) =  -961.874470954     a.u. after    7 cycles
 SCF Done:  E(RM062X) =  -961.917651836     A.U. after   20 cycles
 SCF Done:  E(RM062X) =  -961.918138828     A.U. after   20 cycles
 SCF Done:  E(RM062X) =  -961.918239871     A.U. after   20 cycles
 SCF Done:  E(RM062X) =  -961.920478069     A.U. after   20 cycles
 SCF Done:  E(RM062X) =  -961.923613987     A.U. after   18 cycles
 SCF Done:  E(RM062X) =  -961.920782352     A.U. after   19 cycles
 SCF Done:  E(RM062X) =  -961.921090719     A.U. after   18 cycles
 SCF Done:  E(RM062X) =  -961.921319212     A.U. after   17 cycles
 SCF Done:  E(RM062X) =  -961.921345870     A.U. after   14 cycles
 SCF Done:  E(RM062X) =  -961.921345948     A.U. after   11 cycles

 Isotropic polarizability for W=    0.000000       60.90 Bohr**3.
 End of Minotr F.D. properties file   721 does not exist.

 Optimization completed.
    -- Stationary point found.

                          Input orientation:
 ---------------------------------------------------------------------
 Center     Atomic      Atomic             Coordinates (Angstroms)
 Number     Number       Type             X           Y           Z
 ---------------------------------------------------------------------
      1          6           0        3.365883    0.498987    1.248385
      2          9           0        3.738736   -0.655225    0.755074
      3          9           0        3.000454    0.379587    2.506575
      4          9           0        4.384503    1.343130    1.169510
      5         16           0        1.883326    1.752395    0.156871
      6          8           0       -0.023259    1.143791   -0.344548
      7          8           0        2.464156    1.971878   -1.121872
      8          8           0        1.435783    0.326898    0.403706
      9          1           0       -0.586600    1.137845    0.441354
 ---------------------------------------------------------------------

 ******    1 imaginary frequencies (negative Signs) ******

                      1                      2                      3
                      A                      A                      A
 Frequencies --   -888.3560                31.1829               120.3020
 Red. masses --     15.9432                13.9720                11.3483
 Frc consts  --      7.4131                 0.0080                 0.0968
 IR Inten    --    594.6587                 2.0644                 4.3448

                      4                      5                      6
                      A                      A                      A
 Frequencies --    132.0904               229.9333               240.9821
 Red. masses --     14.1399                14.1001                17.2726
 Frc consts  --      0.1454                 0.4392                 0.5910
 IR Inten    --      5.6088                 2.9498                 2.6363

                      7                      8                      9
                      A                      A                      A
 Frequencies --    311.7188               317.6344               470.1774
 Red. masses --     15.4660                11.7812                 5.6335
 Frc consts  --      0.8854                 0.7003                 0.7338
 IR Inten    --      2.2102                 9.3628               388.5160

                     10                     11                     12
                      A                      A                      A
 Frequencies --    483.4123               538.5221               548.1359
 Red. masses --      6.9042                17.8780                17.4843
 Frc consts  --      0.9506                 3.0548                 3.0951
 IR Inten    --     29.5503                20.6700                 1.4588

                     13                     14                     15
                      A                      A                      A
 Frequencies --    675.5956               747.6586               828.4470
 Red. masses --      1.3662                14.4081                 1.1321
 Frc consts  --      0.3674                 4.7453                 0.4578
 IR Inten    --    168.4502                32.2123                77.3330

                     16                     17                     18
                      A                      A                      A
 Frequencies --   1052.2952              1110.5429              1241.6196
 Red. masses --     15.3013                16.1265                13.4724
 Frc consts  --      9.9828                11.7182                12.2369
 IR Inten    --    433.0368               177.2722               186.0863

                     19                     20                     21
                      A                      A                      A
 Frequencies --   1310.6753              1375.8952              3832.5594
 Red. masses --     13.3092                19.2287                 1.0676
 Frc consts  --     13.4707                21.4472                 9.2394
 IR Inten    --    277.3760               249.6837               150.2864

 - Thermochemistry -
 -------------------
 Temperature   298.150 Kelvin.  Pressure   1.00000 Atm.
 Atom     1 has atomic number  6 and mass  12.00000

 Molecular mass:   149.95985 amu.
 Principal axes and moments of inertia in atomic units:
                           1         2         3
     Eigenvalues --   599.262011402.573061611.62398
           X            0.79053   0.58882  -0.16839
           Y           -0.31011   0.62196   0.71903
           Z            0.52811  -0.51620   0.67427
 This molecule is an asymmetric top.
 Rotational symmetry number  1.
 Warning -- assumption of classical behavior for rotation
           may cause significant error
 Rotational temperatures (Kelvin)      0.14453     0.06175     0.05374
 Rotational constants (GHZ):           3.01161     1.28674     1.11983
    1 imaginary frequencies ignored.
 Zero-point vibrational energy      93305.0 (Joules/Mol)
                                   22.30043 (Kcal/Mol)
 Warning -- explicit consideration of  11 degrees of freedom as
           vibrations may cause significant error
 Vibrational temperatures:     44.87   173.09   190.05   330.82   346.72
          (Kelvin)            448.49   457.01   676.48   695.52   774.81
                              788.65   972.03  1075.71  1191.95  1514.02
                             1597.82  1786.41  1885.77  1979.61  5514.20

 Zero-point correction=                           0.035538 (Hartree/Particle)
 Thermal correction to Energy=                    0.043683
 Thermal correction to Enthalpy=                  0.044627
 Thermal correction to Gibbs Free Energy=         0.001256
 Sum of electronic and zero-point Energies=           -961.885808
 Sum of electronic and thermal Energies=              -961.877663
 Sum of electronic and thermal Enthalpies=            -961.876719
 Sum of electronic and thermal Free Energies=         -961.920090

                     E (Thermal)             CV                S
                      KCal/Mol        Cal/Mol-Kelvin    Cal/Mol-Kelvin
 Total                   27.412             26.828             91.282
 Electronic               0.000              0.000              0.000
 Translational            0.889              2.981             40.926
 Rotational               0.889              2.981             28.695
 Vibrational             25.634             20.867             21.661
 Vibration     1          0.594              1.983              5.753
 Vibration     2          0.609              1.932              3.096
 Vibration     3          0.612              1.921              2.915
 Vibration     4          0.652              1.795              1.879
 Vibration     5          0.658              1.778              1.796
 Vibration     6          0.700              1.651              1.353
 Vibration     7          0.704              1.640              1.322
 Vibration     8          0.827              1.316              0.737
 Vibration     9          0.840              1.287              0.701
 Vibration    10          0.894              1.165              0.568
 Vibration    11          0.903              1.144              0.548

 Normal termination of Gaussian 16 at Sun May 25 04:38:47 2025.
