 Gaussian 16, Revision C.01,
 Gaussian 16:  ES64L-G16RevC.01  3-Jul-2019

 ----------------------------------------------------------------------
 #P M062X/Def2TZVPP Symm(None) scf(xqc) pop(None) opt(CalcAll,Cartesian
 )
 ----------------------------------------------------------------------

 ------------------------------
 Gaussian input prepared by ASE
 ------------------------------
 Symbolic Z-matrix:
 Charge =  0 Multiplicity = 1

 SCF Done:  E(RM062X) =  -962.125847402     A.U. after   13 cycles
 SCF Done:  E(RM062X) =  -962.125888349     A.U. after   10 cycles
 SCF Done:  E(RM062X) =  -962.125890720     A.U. after    7 cycles

 Isotropic polarizability for W=    0.000000       41.24 Bohr**3.
 End of Minotr F.D. properties file   721 does not exist.

 Optimization completed.
    -- Stationary point found.

                          Input orientation:
 ---------------------------------------------------------------------
 Center     Atomic      Atomic             Coordinates (Angstroms)
 Number     Number       Type             X           Y           Z
 ---------------------------------------------------------------------
      1          6           0       -0.300498   -1.061389   -0.133487
      2          9           0       -1.588827   -1.045506   -0.447858
      3          9           0       -0.142607   -1.679275    1.020750
      4          9           0        0.373056   -1.695326   -1.073572
      5         16           0        0.317955    0.668023   -0.021719
      6          8           0        1.613138    0.611645    0.536027
      7          8           0        0.017608    1.290804   -1.260790
      8          8           0       -0.656905    1.214915    1.084421
      9          1           0       -1.435376    1.616712    0.672737
 ---------------------------------------------------------------------

                      1                      2                      3
                      A                      A                      A
 Frequencies --     60.3352               186.7337               193.6048
 Red. masses --     13.4426                 7.2409                16.6689
 Frc consts  --      0.0288                 0.1488                 0.3681
 IR Inten    --      1.4414                 9.6956                 3.0370

                      4                      5                      6
                      A                      A                      A
 Frequencies --    309.9777               322.2735               342.3574
 Red. masses --     11.1667                 2.9935                13.2090
 Frc consts  --      0.6322                 0.1832                 0.9122
 IR Inten    --      0.7306                31.6216                 1.9327

                      7                      8                      9
                      A                      A                      A
 Frequencies --    375.1235               471.6418               507.1009
 Red. masses --      2.1030                 4.2811                14.9669
 Frc consts  --      0.1744                 0.5611                 2.2676
 IR Inten    --     48.9936                27.8088                26.7568

                     10                     11                     12
                      A                      A                      A
 Frequencies --    571.0821               576.9806               631.9566
 Red. masses --     15.7143                16.3004                19.9263
 Frc consts  --      3.0195                 3.1972                 4.6887
 IR Inten    --      0.8165                 2.9316               159.0761

                     13                     14                     15
                      A                      A                      A
 Frequencies --    794.4353               906.5163              1139.5677
 Red. masses --     17.7010                17.6163                 1.1840
 Frc consts  --      6.5821                 8.5294                 0.9059
 IR Inten    --      3.8368               218.8830                87.7272

                     16                     17                     18
                      A                      A                      A
 Frequencies --   1197.9313              1275.6082              1295.4971
 Red. masses --     14.7794                13.3750                13.3664
 Frc consts  --     12.4960                12.8227                13.2171
 IR Inten    --    265.8003               163.1658               133.8983

                     19                     20                     21
                      A                      A                      A
 Frequencies --   1308.1222              1504.0854              3807.4896
 Red. masses --     15.3020                15.4091                 1.0657
 Frc consts  --     15.4275                20.5387                 9.1025
 IR Inten    --    236.3043               292.8427               186.7563

 - Thermochemistry -
 -------------------
 Temperature   298.150 Kelvin.  Pressure   1.00000 Atm.
 Atom     1 has atomic number  6 and mass  12.00000

 Molecular mass:   149.95985 amu.
 Principal axes and moments of inertia in atomic units:
                           1         2         3
     Eigenvalues --   673.854691131.955721139.41456
           X            0.28600   0.91991  -0.26826
           Y            0.95264  -0.30315  -0.02389
           Z            0.10330   0.24873   0.96305
 This molecule is an asymmetric top.
 Rotational symmetry number  1.
 Warning -- assumption of classical behavior for rotation
           may cause significant error
 Rotational temperatures (Kelvin)      0.12854     0.07652     0.07602
 Rotational constants (GHZ):           2.67823     1.59436     1.58392
 Zero-point vibrational energy     106338.6 (Joules/Mol)
                                   25.41553 (Kcal/Mol)
 Warning -- explicit consideration of  11 degrees of freedom as
           vibrations may cause significant error
 Vibrational temperatures:     86.81   268.67   278.55   445.99   463.68
          (Kelvin)            492.58   539.72   678.59   729.61   821.66
                              830.15   909.24  1143.02  1304.27  1639.58
                             1723.56  1835.32  1863.93  1882.10  2164.04
                             5478.13

 Zero-point correction=                           0.040502 (Hartree/Particle)
 Thermal correction to Energy=                    0.047974
 Thermal correction to Enthalpy=                  0.048918
 Thermal correction to Gibbs Free Energy=         0.007913
 Sum of electronic and zero-point Energies=           -962.085388
 Sum of electronic and thermal Energies=              -962.077917
 Sum of electronic and thermal Enthalpies=            -962.076973
 Sum of electronic and thermal Free Energies=         -962.117978

                     E (Thermal)             CV                S
                      KCal/Mol        Cal/Mol-Kelvin    Cal/Mol-Kelvin
 Total                   30.104             25.862             86.303
 Electronic               0.000              0.000              0.000
 Translational            0.889              2.981             40.926
 Rotational               0.889              2.981             28.254
 Vibrational             28.327             19.900             17.123
 Vibration     1          0.597              1.973              4.446
 Vibration     2          0.632              1.858              2.260
 Vibration     3          0.635              1.849              2.193
 Vibration     4          0.699              1.655              1.362
 Vibration     5          0.707              1.631              1.299
 Vibration     6          0.721              1.591              1.201
 Vibration     7          0.746              1.523              1.059
 Vibration     8          0.829              1.313              0.733
 Vibration     9          0.862              1.234              0.641
 Vibration    10          0.927              1.094              0.502
 Vibration    11          0.933              1.081              0.491

 Normal termination of Gaussian 16 at Sun May 25 05:28:13 2025.
