 Gaussian 16, Revision C.01,
 Gaussian 16:  ES64L-G16RevC.01  3-Jul-2019

 -----------------------------------------------------------------
 #P M062X/Def2TZVPP Symm(None) scf(xqc) pop(None) freq opt(CalcFC)
 -----------------------------------------------------------------

 ------------------------------
 Gaussian input prepared by ASE
 ------------------------------
 Symbolic Z-matrix:
 Charge =  0 Multiplicity = 1

 SCF Done:  E(RM062X) =  -962.125075267     A.U. after   13 cycles
 SCF Done:  E(RM062X) =  -962.125866512     A.U. after   11 cycles
 SCF Done:  E(RM062X) =  -962.125889083     A.U. after   10 cycles
 SCF Done:  E(RM062X) =  -962.125890049     A.U. after    8 cycles
 Optimization completed.
    -- Stationary point found.
 Normal termination of Gaussian 16 at Sun May 25 04:27:37 2025.

 ---------------------------------------------------------------------
 #P Geom=AllCheck Guess=TCheck SCRF=Check GenChk RM062X/def2TZVPP Freq
 ---------------------------------------------------------------------

 Structure from the checkpoint file:  "1502984803620600000001_r12_insertion_R_6_5_1_IRC_R_prod.chk"
 ------------------------------
 Gaussian input prepared by ASE
 ------------------------------
 Charge =  0 Multiplicity = 1

                          Input orientation:
 ---------------------------------------------------------------------
 Center     Atomic      Atomic             Coordinates (Angstroms)
 Number     Number       Type             X           Y           Z
 ---------------------------------------------------------------------
      1          6           0       -0.967856   -0.069497    0.006466
      2          9           0       -1.451927    0.422572   -1.117194
      3          9           0       -1.391434    0.667536    1.024411
      4          9           0       -1.380757   -1.312259    0.162530
      5         16           0        0.871834   -0.053531   -0.029213
      6          8           0        1.309140   -0.495648    1.246213
      7          8           0        1.270293   -0.646945   -1.246124
      8          8           0        1.109599    1.496126   -0.151430
      9          1           0        1.214084    1.887064    0.728017
 ---------------------------------------------------------------------

 SCF Done:  E(RM062X) =  -962.125890049     A.U. after    1 cycles

 Isotropic polarizability for W=    0.000000       41.21 Bohr**3.
 End of Minotr F.D. properties file   721 does not exist.

                      1                      2                      3
                      A                      A                      A
 Frequencies --     60.6060               187.1904               194.2937
 Red. masses --     13.4190                 6.4556                16.8346
 Frc consts  --      0.0290                 0.1333                 0.3744
 IR Inten    --      1.4198                11.4842                 3.0777

                      4                      5                      6
                      A                      A                      A
 Frequencies --    309.2476               315.4821               342.3130
 Red. masses --      6.2814                 2.7817                13.4459
 Frc consts  --      0.3539                 0.1631                 0.9283
 IR Inten    --      5.2554                38.4625                 1.7858

                      7                      8                      9
                      A                      A                      A
 Frequencies --    367.8688               469.7111               506.9006
 Red. masses --      2.6055                 4.5994                15.0970
 Frc consts  --      0.2077                 0.5979                 2.2855
 IR Inten    --     38.7103                26.5767                26.6542

                     10                     11                     12
                      A                      A                      A
 Frequencies --    571.2688               576.9400               631.6647
 Red. masses --     15.7123                16.3791                19.9880
 Frc consts  --      3.0211                 3.2122                 4.6989
 IR Inten    --      0.8740                 2.8248               158.7496

                     13                     14                     15
                      A                      A                      A
 Frequencies --    794.6241               906.3958              1135.6326
 Red. masses --     17.7074                17.6552                 1.1852
 Frc consts  --      6.5876                 8.5459                 0.9005
 IR Inten    --      3.7819               218.5192                86.5556

                     16                     17                     18
                      A                      A                      A
 Frequencies --   1197.4140              1275.5130              1295.7682
 Red. masses --     14.8206                13.3805                13.3829
 Frc consts  --     12.5200                12.8260                13.2390
 IR Inten    --    266.1116               163.2737               130.3542

                     19                     20                     21
                      A                      A                      A
 Frequencies --   1308.4937              1503.0520              3812.0005
 Red. masses --     15.2361                15.4634                 1.0657
 Frc consts  --     15.3697                20.5827                 9.1241
 IR Inten    --    239.6934               292.6612               186.5142

 - Thermochemistry -
 -------------------
 Temperature   298.150 Kelvin.  Pressure   1.00000 Atm.
 Atom     1 has atomic number  6 and mass  12.00000

 Molecular mass:   149.95985 amu.
 Principal axes and moments of inertia in atomic units:
                           1         2         3
     Eigenvalues --   673.840811132.008711139.46864
           X            0.99696  -0.02820  -0.07257
           Y            0.07560   0.57344   0.81575
           Z           -0.01861   0.81876  -0.57383
 This molecule is an asymmetric top.
 Rotational symmetry number  1.
 Warning -- assumption of classical behavior for rotation
           may cause significant error
 Rotational temperatures (Kelvin)      0.12854     0.07651     0.07601
 Rotational constants (GHZ):           2.67829     1.59428     1.58384
 Zero-point vibrational energy     106242.6 (Joules/Mol)
                                   25.39260 (Kcal/Mol)
 Warning -- explicit consideration of  11 degrees of freedom as
           vibrations may cause significant error
 Vibrational temperatures:     87.20   269.33   279.55   444.94   453.91
          (Kelvin)            492.51   529.28   675.81   729.32   821.93
                              830.09   908.82  1143.29  1304.10  1633.92
                             1722.81  1835.18  1864.32  1882.63  2162.56
                             5484.62

 Zero-point correction=                           0.040466 (Hartree/Particle)
 Thermal correction to Energy=                    0.047954
 Thermal correction to Enthalpy=                  0.048898
 Thermal correction to Gibbs Free Energy=         0.007866
 Sum of electronic and zero-point Energies=           -962.085424
 Sum of electronic and thermal Energies=              -962.077936
 Sum of electronic and thermal Enthalpies=            -962.076992
 Sum of electronic and thermal Free Energies=         -962.118024

                     E (Thermal)             CV                S
                      KCal/Mol        Cal/Mol-Kelvin    Cal/Mol-Kelvin
 Total                   30.091             25.898             86.359
 Electronic               0.000              0.000              0.000
 Translational            0.889              2.981             40.926
 Rotational               0.889              2.981             28.254
 Vibrational             28.314             19.937             17.179
 Vibration     1          0.597              1.973              4.437
 Vibration     2          0.632              1.857              2.255
 Vibration     3          0.635              1.848              2.186
 Vibration     4          0.699              1.656              1.366
 Vibration     5          0.703              1.644              1.333
 Vibration     6          0.721              1.591              1.201
 Vibration     7          0.740              1.538              1.089
 Vibration     8          0.827              1.317              0.738
 Vibration     9          0.862              1.235              0.641
 Vibration    10          0.927              1.093              0.502
 Vibration    11          0.933              1.081              0.491

 Optimization completed.
    -- Stationary point found.
 Normal termination of Gaussian 16 at Sun May 25 04:29:45 2025.
