 Gaussian 16, Revision C.01,
 Gaussian 16:  ES64L-G16RevC.01  3-Jul-2019

 ----------------------------------------------------------------------
 #P M062X/Def2TZVPP Symm(None) scf(xqc) pop(None) opt(NoFreeze,TS,CalcA
 ll,NoEigentest,MaxCycle=999)
 ----------------------------------------------------------------------

 ------------------------------
 Gaussian input prepared by ASE
 ------------------------------
 Symbolic Z-matrix:
 Charge =  0 Multiplicity = 1

 SCF Done:  E(RM062X) =  -962.013099660     A.U. after   13 cycles
 SCF Done:  E(RM062X) =  -962.073655112     A.U. after   12 cycles
 SCF Done:  E(RM062X) =  -962.109117625     A.U. after   12 cycles
 SCF Done:  E(RM062X) =  -962.120506331     A.U. after   12 cycles
 SCF Done:  E(RM062X) =  -962.121494994     A.U. after   12 cycles
 SCF Done:  E(RM062X) =  -962.121527552     A.U. after   10 cycles
 SCF Done:  E(RM062X) =  -962.121527157     A.U. after    7 cycles

 Isotropic polarizability for W=    0.000000       41.44 Bohr**3.
 End of Minotr F.D. properties file   721 does not exist.

 Optimization completed.
    -- Stationary point found.

                          Input orientation:
 ---------------------------------------------------------------------
 Center     Atomic      Atomic             Coordinates (Angstroms)
 Number     Number       Type             X           Y           Z
 ---------------------------------------------------------------------
      1          6           0       -0.126129   -0.105169    0.040171
      2          9           0       -0.713935    0.375491   -1.038174
      3          9           0       -0.592396    0.508572    1.110393
      4          9           0       -0.362233   -1.400945    0.133687
      5         16           0        1.698971    0.112685   -0.076495
      6          8           0        2.269951   -0.284765    1.158857
      7          8           0        2.131206   -0.442653   -1.307306
      8          8           0        1.638920    1.684647   -0.173744
      9          1           0        2.526157    2.064963   -0.250514
 ---------------------------------------------------------------------

 ******    1 imaginary frequencies (negative Signs) ******

                      1                      2                      3
                      A                      A                      A
 Frequencies --   -292.4118                59.7734               192.4779
 Red. masses --      1.0707                13.4107                15.3418
 Frc consts  --      0.0539                 0.0282                 0.3349
 IR Inten    --    110.0078                 1.5191                 0.3973

                      4                      5                      6
                      A                      A                      A
 Frequencies --    195.6939               310.2056               339.3151
 Red. masses --     10.4678                13.5716                17.1986
 Frc consts  --      0.2362                 0.7694                 1.1667
 IR Inten    --      2.5273                 2.1550                 1.0891

                      7                      8                      9
                      A                      A                      A
 Frequencies --    342.2091               484.4845               512.3391
 Red. masses --     13.3642                17.7888                13.6825
 Frc consts  --      0.9221                 2.4601                 2.1161
 IR Inten    --      2.8631                23.7844                34.0158

                     10                     11                     12
                      A                      A                      A
 Frequencies --    575.0330               577.0418               607.4182
 Red. masses --     17.9577                17.3941                 7.8745
 Frc consts  --      3.4985                 3.4124                 1.7118
 IR Inten    --      0.6003                 1.3365               135.6473

                     13                     14                     15
                      A                      A                      A
 Frequencies --    794.5975               887.2894              1090.9270
 Red. masses --     14.6356                14.6870                 1.2742
 Frc consts  --      5.4445                 6.8126                 0.8934
 IR Inten    --      3.4230               226.1403               107.1672

                     16                     17                     18
                      A                      A                      A
 Frequencies --   1192.6563              1297.1155              1297.4866
 Red. masses --     14.5304                12.9446                12.5134
 Frc consts  --     12.1775                12.8321                12.4117
 IR Inten    --    248.0493               220.6271               246.4569

                     19                     20                     21
                      A                      A                      A
 Frequencies --   1309.0532              1474.2820              3809.9865
 Red. masses --     12.5210                20.3983                 1.0654
 Frc consts  --     12.6417                26.1220                 9.1123
 IR Inten    --     80.2480               310.7031               211.0684

 - Thermochemistry -
 -------------------
 Temperature   298.150 Kelvin.  Pressure   1.00000 Atm.
 Atom     1 has atomic number  6 and mass  12.00000

 Molecular mass:   149.95985 amu.
 Principal axes and moments of inertia in atomic units:
                           1         2         3
     Eigenvalues --   672.936091130.829871138.45054
           X            0.98361  -0.17136   0.05604
           Y            0.16772   0.98374   0.06420
           Z           -0.06613  -0.05375   0.99636
 This molecule is an asymmetric top.
 Rotational symmetry number  1.
 Warning -- assumption of classical behavior for rotation
           may cause significant error
 Rotational temperatures (Kelvin)      0.12871     0.07659     0.07608
 Rotational constants (GHZ):           2.68189     1.59594     1.58526
    1 imaginary frequencies ignored.
 Zero-point vibrational energy     103772.4 (Joules/Mol)
                                   24.80219 (Kcal/Mol)
 Warning -- explicit consideration of  11 degrees of freedom as
           vibrations may cause significant error
 Vibrational temperatures:     86.00   276.93   281.56   446.32   488.20
          (Kelvin)            492.36   697.07   737.14   827.34   830.23
                              873.94  1143.25  1276.61  1569.60  1715.97
                             1866.26  1866.79  1883.44  2121.16  5481.72

 Zero-point correction=                           0.039525 (Hartree/Particle)
 Thermal correction to Energy=                    0.046636
 Thermal correction to Enthalpy=                  0.047580
 Thermal correction to Gibbs Free Energy=         0.007143
 Sum of electronic and zero-point Energies=           -962.082002
 Sum of electronic and thermal Energies=              -962.074892
 Sum of electronic and thermal Enthalpies=            -962.073947
 Sum of electronic and thermal Free Energies=         -962.114384

                     E (Thermal)             CV                S
                      KCal/Mol        Cal/Mol-Kelvin    Cal/Mol-Kelvin
 Total                   29.264             24.362             85.106
 Electronic               0.000              0.000              0.000
 Translational            0.889              2.981             40.926
 Rotational               0.889              2.981             28.251
 Vibrational             27.487             18.401             15.929
 Vibration     1          0.597              1.973              4.465
 Vibration     2          0.634              1.850              2.204
 Vibration     3          0.636              1.846              2.173
 Vibration     4          0.699              1.654              1.361
 Vibration     5          0.719              1.597              1.215
 Vibration     6          0.721              1.591              1.202
 Vibration     7          0.841              1.284              0.698
 Vibration     8          0.867              1.223              0.628
 Vibration     9          0.931              1.085              0.495
 Vibration    10          0.934              1.081              0.491
 Vibration    11          0.966              1.016              0.437

 Normal termination of Gaussian 16 at Sun May 25 03:41:10 2025.
