 Gaussian 16, Revision C.01,
 Gaussian 16:  ES64L-G16RevC.01  3-Jul-2019

 -----------------------------------------------------------------
 #P M062X/Def2TZVPP Symm(None) scf(xqc) pop(None) freq opt(CalcFC)
 -----------------------------------------------------------------

 ------------------------------
 Gaussian input prepared by ASE
 ------------------------------
 Symbolic Z-matrix:
 Charge =  0 Multiplicity = 1

 SCF Done:  E(RM062X) =  -962.063470257     A.U. after   15 cycles
 SCF Done:  E(RM062X) =  -962.110727860     A.U. after   13 cycles
 SCF Done:  E(RM062X) =  -962.119120264     A.U. after   13 cycles
 SCF Done:  E(RM062X) =  -962.125331106     A.U. after   13 cycles
 SCF Done:  E(RM062X) =  -962.061206690     A.U. after   13 cycles
 SCF Done:  E(RM062X) =  -962.123646893     A.U. after   13 cycles
 SCF Done:  E(RM062X) =  -962.125443389     A.U. after    9 cycles
 SCF Done:  E(RM062X) =  -962.125783344     A.U. after   11 cycles
 SCF Done:  E(RM062X) =  -962.125868897     A.U. after   10 cycles
 SCF Done:  E(RM062X) =  -962.125879190     A.U. after    9 cycles
 SCF Done:  E(RM062X) =  -962.125883137     A.U. after    8 cycles
 Optimization completed.
    -- Stationary point found.
 Normal termination of Gaussian 16 at Sun May 25 03:11:19 2025.

 ---------------------------------------------------------------------
 #P Geom=AllCheck Guess=TCheck SCRF=Check GenChk RM062X/def2TZVPP Freq
 ---------------------------------------------------------------------

 Structure from the checkpoint file:  "1502984803620600000001_well.chk"
 ------------------------------
 Gaussian input prepared by ASE
 ------------------------------
 Charge =  0 Multiplicity = 1

                          Input orientation:
 ---------------------------------------------------------------------
 Center     Atomic      Atomic             Coordinates (Angstroms)
 Number     Number       Type             X           Y           Z
 ---------------------------------------------------------------------
      1          6           0       -1.068032   -0.075090   -0.047238
      2          9           0       -1.448665    0.338250   -1.240351
      3          9           0       -1.331026    0.868824    0.846328
      4          9           0       -1.720682   -1.175853    0.271731
      5         16           0        0.737237   -0.430763   -0.040522
      6          8           0        1.083249   -0.763905    1.294500
      7          8           0        1.002702   -1.259911   -1.151466
      8          8           0        1.280277    1.006806   -0.375148
      9          1           0        1.464941    1.491640    0.442164
 ---------------------------------------------------------------------

 SCF Done:  E(RM062X) =  -962.125883137     A.U. after    1 cycles

 Isotropic polarizability for W=    0.000000       41.21 Bohr**3.
 End of Minotr F.D. properties file   721 does not exist.

                      1                      2                      3
                      A                      A                      A
 Frequencies --     58.0749               186.4726               193.6481
 Red. masses --     13.4130                 6.2545                17.1645
 Frc consts  --      0.0267                 0.1281                 0.3792
 IR Inten    --      1.4438                12.2617                 2.8985

                      4                      5                      6
                      A                      A                      A
 Frequencies --    309.0088               314.2006               342.1527
 Red. masses --      4.7069                 3.1075                13.6466
 Frc consts  --      0.2648                 0.1807                 0.9413
 IR Inten    --      9.7802                35.7696                 1.7023

                      7                      8                      9
                      A                      A                      A
 Frequencies --    366.4591               469.0344               506.4376
 Red. masses --      2.7110                 4.6642                15.1383
 Frc consts  --      0.2145                 0.6046                 2.2876
 IR Inten    --     37.0846                26.1441                26.8604

                     10                     11                     12
                      A                      A                      A
 Frequencies --    571.2200               576.9018               631.2092
 Red. masses --     15.8093                16.3058                20.0012
 Frc consts  --      3.0393                 3.1974                 4.6952
 IR Inten    --      0.7666                 2.8457               158.6331

                     13                     14                     15
                      A                      A                      A
 Frequencies --    794.6458               907.0155              1134.9742
 Red. masses --     17.7105                17.6420                 1.1854
 Frc consts  --      6.5891                 8.5512                 0.8997
 IR Inten    --      3.7037               218.4880                86.7615

                     16                     17                     18
                      A                      A                      A
 Frequencies --   1197.1985              1276.0636              1295.3210
 Red. masses --     14.9292                13.3751                13.3748
 Frc consts  --     12.6072                12.8319                13.2219
 IR Inten    --    263.9562               163.6719               133.3742

                     19                     20                     21
                      A                      A                      A
 Frequencies --   1307.5358              1500.1703              3812.3324
 Red. masses --     15.2020                15.3827                 1.0657
 Frc consts  --     15.3129                20.3969                 9.1258
 IR Inten    --    235.8731               292.7343               186.0514

 - Thermochemistry -
 -------------------
 Temperature   298.150 Kelvin.  Pressure   1.00000 Atm.
 Atom     1 has atomic number  6 and mass  12.00000

 Molecular mass:   149.95985 amu.
 Principal axes and moments of inertia in atomic units:
                           1         2         3
     Eigenvalues --   673.882201132.008491139.37371
           X            0.99179   0.09185   0.08900
           Y           -0.12779   0.68358   0.71860
           Z           -0.00516   0.72407  -0.68971
 This molecule is an asymmetric top.
 Rotational symmetry number  1.
 Warning -- assumption of classical behavior for rotation
           may cause significant error
 Rotational temperatures (Kelvin)      0.12853     0.07651     0.07602
 Rotational constants (GHZ):           2.67813     1.59428     1.58398
 Zero-point vibrational energy     106169.0 (Joules/Mol)
                                   25.37501 (Kcal/Mol)
 Warning -- explicit consideration of  11 degrees of freedom as
           vibrations may cause significant error
 Vibrational temperatures:     83.56   268.29   278.62   444.59   452.06
          (Kelvin)            492.28   527.25   674.84   728.65   821.86
                              830.03   908.17  1143.32  1304.99  1632.97
                             1722.50  1835.97  1863.68  1881.25  2158.41
                             5485.10

 Zero-point correction=                           0.040438 (Hartree/Particle)
 Thermal correction to Energy=                    0.047938
 Thermal correction to Enthalpy=                  0.048882
 Thermal correction to Gibbs Free Energy=         0.007795
 Sum of electronic and zero-point Energies=           -962.085445
 Sum of electronic and thermal Energies=              -962.077945
 Sum of electronic and thermal Enthalpies=            -962.077001
 Sum of electronic and thermal Free Energies=         -962.118088

                     E (Thermal)             CV                S
                      KCal/Mol        Cal/Mol-Kelvin    Cal/Mol-Kelvin
 Total                   30.081             25.912             86.475
 Electronic               0.000              0.000              0.000
 Translational            0.889              2.981             40.926
 Rotational               0.889              2.981             28.254
 Vibrational             28.304             19.951             17.295
 Vibration     1          0.596              1.974              4.522
 Vibration     2          0.632              1.858              2.263
 Vibration     3          0.635              1.849              2.193
 Vibration     4          0.698              1.657              1.368
 Vibration     5          0.702              1.647              1.340
 Vibration     6          0.721              1.591              1.202
 Vibration     7          0.739              1.541              1.095
 Vibration     8          0.826              1.319              0.740
 Vibration     9          0.862              1.236              0.642
 Vibration    10          0.927              1.093              0.502
 Vibration    11          0.933              1.081              0.491

 Optimization completed.
    -- Stationary point found.
 Normal termination of Gaussian 16 at Sun May 25 03:13:15 2025.
