 Gaussian 16, Revision C.01,
 Gaussian 16:  ES64L-G16RevC.01  3-Jul-2019

 ----------------------------------------------------------------------
 #P M062X/Def2TZVPP Symm(None) scf(xqc) pop(None) opt(NoFreeze,TS,CalcA
 ll,NoEigentest,MaxCycle=999)
 ----------------------------------------------------------------------

 ------------------------------
 Gaussian input prepared by ASE
 ------------------------------
 Symbolic Z-matrix:
 Charge =  0 Multiplicity = 1

 SCF Done:  E(RM062X) =  -961.942593976     A.U. after   17 cycles
 SCF Done:  E(RM062X) =  -961.968313499     A.U. after   14 cycles
 SCF Done:  E(RM062X) =  -961.985048106     A.U. after   14 cycles
 SCF Done:  E(RM062X) =  -961.989648658     A.U. after   14 cycles
 SCF Done:  E(RM062X) =  -961.990007892     A.U. after   13 cycles
 SCF Done:  E(RM062X) =  -961.990024630     A.U. after   11 cycles

 Isotropic polarizability for W=    0.000000       44.82 Bohr**3.
 End of Minotr F.D. properties file   721 does not exist.

 Optimization completed.
    -- Stationary point found.

                          Input orientation:
 ---------------------------------------------------------------------
 Center     Atomic      Atomic             Coordinates (Angstroms)
 Number     Number       Type             X           Y           Z
 ---------------------------------------------------------------------
      1          6           0       -0.141362   -0.606060   -0.244627
      2          9           0       -0.918571   -0.403864   -1.233517
      3          9           0        0.083180    1.068107    0.459274
      4          9           0       -0.752433   -1.231239    0.681001
      5         16           0        1.635578    0.248840   -0.021295
      6          8           0        2.091922   -0.731405    0.898034
      7          8           0        1.849950    0.360065   -1.427688
      8          8           0        2.351781    1.544540    0.562691
      9          1           0        2.270470    2.263854   -0.076997
 ---------------------------------------------------------------------

 ******    1 imaginary frequencies (negative Signs) ******

                      1                      2                      3
                      A                      A                      A
 Frequencies --   -420.2658               106.6710               142.3034
 Red. masses --     15.3569                 9.1752                15.6417
 Frc consts  --      1.5981                 0.0615                 0.1866
 IR Inten    --     10.7324                 5.1199                 0.9126

                      4                      5                      6
                      A                      A                      A
 Frequencies --    178.9735               260.6203               321.9525
 Red. masses --     12.8165                 4.0682                 2.9033
 Frc consts  --      0.2419                 0.1628                 0.1773
 IR Inten    --     28.2667                27.7333                41.3524

                      7                      8                      9
                      A                      A                      A
 Frequencies --    374.6423               397.7908               439.1430
 Red. masses --      5.8470                 4.9251                 7.9782
 Frc consts  --      0.4835                 0.4592                 0.9065
 IR Inten    --     32.0790                14.9227                 4.5962

                     10                     11                     12
                      A                      A                      A
 Frequencies --    525.0914               544.8930               620.5296
 Red. masses --      5.5146                15.1224                17.2745
 Frc consts  --      0.8959                 2.6454                 3.9191
 IR Inten    --     19.9463                15.1987               304.2922

                     13                     14                     15
                      A                      A                      A
 Frequencies --    665.1697               709.4234               865.2148
 Red. masses --     12.8446                16.6395                16.6351
 Frc consts  --      3.3484                 4.9340                 7.3371
 IR Inten    --    146.5180                 6.9412               383.4565

                     16                     17                     18
                      A                      A                      A
 Frequencies --   1178.7826              1203.9983              1374.0430
 Red. masses --     16.1671                 1.2118                13.7127
 Frc consts  --     13.2358                 1.0350                15.2536
 IR Inten    --    134.1726                92.9262               147.1549

                     19                     20                     21
                      A                      A                      A
 Frequencies --   1389.9578              1474.8178              3832.8501
 Red. masses --     13.0667                12.5977                 1.0656
 Frc consts  --     14.8737                16.1443                 9.2234
 IR Inten    --    164.2956               402.5081               136.1530

 - Thermochemistry -
 -------------------
 Temperature   298.150 Kelvin.  Pressure   1.00000 Atm.
 Atom     1 has atomic number  6 and mass  12.00000

 Molecular mass:   149.95985 amu.
 Principal axes and moments of inertia in atomic units:
                           1         2         3
     Eigenvalues --   578.282661214.007251318.42572
           X            0.88668   0.09574  -0.45237
           Y            0.44638  -0.43241   0.78343
           Z            0.12061   0.89658   0.42615
 This molecule is an asymmetric top.
 Rotational symmetry number  1.
 Warning -- assumption of classical behavior for rotation
           may cause significant error
 Rotational temperatures (Kelvin)      0.14978     0.07135     0.06569
 Rotational constants (GHZ):           3.12086     1.48660     1.36886
    1 imaginary frequencies ignored.
 Zero-point vibrational energy      99331.1 (Joules/Mol)
                                   23.74071 (Kcal/Mol)
 Warning -- explicit consideration of  11 degrees of freedom as
           vibrations may cause significant error
 Vibrational temperatures:    153.48   204.74   257.50   374.97   463.22
          (Kelvin)            539.03   572.33   631.83   755.49   783.98
                              892.80   957.03  1020.70  1244.85  1696.01
                             1732.29  1976.94  1999.84  2121.93  5514.62

 Zero-point correction=                           0.037833 (Hartree/Particle)
 Thermal correction to Energy=                    0.045326
 Thermal correction to Enthalpy=                  0.046270
 Thermal correction to Gibbs Free Energy=         0.005402
 Sum of electronic and zero-point Energies=           -961.952191
 Sum of electronic and thermal Energies=              -961.944699
 Sum of electronic and thermal Enthalpies=            -961.943754
 Sum of electronic and thermal Free Energies=         -961.984622

                     E (Thermal)             CV                S
                      KCal/Mol        Cal/Mol-Kelvin    Cal/Mol-Kelvin
 Total                   28.442             25.765             86.014
 Electronic               0.000              0.000              0.000
 Translational            0.889              2.981             40.926
 Rotational               0.889              2.981             28.317
 Vibrational             26.665             19.803             16.771
 Vibration     1          0.606              1.944              3.329
 Vibration     2          0.616              1.911              2.773
 Vibration     3          0.629              1.868              2.339
 Vibration     4          0.669              1.745              1.658
 Vibration     5          0.707              1.631              1.300
 Vibration     6          0.746              1.524              1.061
 Vibration     7          0.764              1.475              0.971
 Vibration     8          0.799              1.385              0.829
 Vibration     9          0.880              1.194              0.598
 Vibration    10          0.900              1.151              0.555
 Vibration    11          0.981              0.989              0.416

 Normal termination of Gaussian 16 at Sun May 25 03:45:00 2025.
