 Gaussian 16, Revision C.01,
 Gaussian 16:  ES64L-G16RevC.01  3-Jul-2019

 ----------------------------------------------------------------------
 #P M062X/Def2TZVPP Symm(None) scf(xqc) pop(None) geom(AllCheck,NoKeepC
 onstants) guess(Read) irc(RCFC,forward,MaxPoints=100,StepSize=2)
 ----------------------------------------------------------------------

 Structure from the checkpoint file:  "1502984803620600000001_r12_insertion_R_2_1_5_IRC_F.chk"
 ------------------------------
 Gaussian input prepared by ASE
 ------------------------------
 Charge =  0 Multiplicity = 1

 SCF Done:  E(RM062X) =  -961.990044884     A.U. after   10 cycles
 SCF Done:  E(RM062X) =  -961.990104160     A.U. after   11 cycles
 SCF Done:  E(RM062X) =  -961.990201078     A.U. after   11 cycles
 SCF Done:  E(RM062X) =  -961.990333990     A.U. after   11 cycles
 SCF Done:  E(RM062X) =  -961.990501206     A.U. after   11 cycles
 SCF Done:  E(RM062X) =  -961.990701031     A.U. after   11 cycles
 SCF Done:  E(RM062X) =  -961.990931773     A.U. after   11 cycles
 SCF Done:  E(RM062X) =  -961.991191765     A.U. after   11 cycles
 SCF Done:  E(RM062X) =  -961.991479376     A.U. after   11 cycles
 SCF Done:  E(RM062X) =  -961.991793022     A.U. after   11 cycles
 SCF Done:  E(RM062X) =  -962.038399432     A.U. after   10 cycles
 SCF Done:  E(RM062X) =  -962.038776862     A.U. after   10 cycles
 SCF Done:  E(RM062X) =  -962.039141405     A.U. after   10 cycles
 SCF Done:  E(RM062X) =  -962.039493414     A.U. after   10 cycles
 SCF Done:  E(RM062X) =  -962.039833200     A.U. after   10 cycles
 SCF Done:  E(RM062X) =  -962.040161027     A.U. after   10 cycles
 SCF Done:  E(RM062X) =  -962.040477181     A.U. after   10 cycles
 SCF Done:  E(RM062X) =  -962.040782007     A.U. after   10 cycles
 SCF Done:  E(RM062X) =  -962.041075886     A.U. after   10 cycles
 SCF Done:  E(RM062X) =  -962.041359192     A.U. after   10 cycles

                          Input orientation:
 ---------------------------------------------------------------------
 Center     Atomic      Atomic             Coordinates (Angstroms)
 Number     Number       Type             X           Y           Z
 ---------------------------------------------------------------------
      1          6           0       -1.205375   -1.395965    0.431215
      2          9           0       -0.493799    1.001838   -0.259354
      3          9           0       -1.853193   -0.729099    1.329673
      4          9           0       -1.921440   -1.296484   -0.641782
      5         16           0        0.947240    0.412990   -0.141795
      6          8           0        1.160953    0.121026    1.213668
      7          8           0        1.075487   -0.514101   -1.197061
      8          8           0        1.729809    1.716201   -0.475363
      9          1           0        1.819381    1.818421   -1.433519
 ---------------------------------------------------------------------

 Normal termination of Gaussian 16 at Sun May 25 04:13:06 2025.
