 Gaussian 16, Revision C.01,
 Gaussian 16:  ES64L-G16RevC.01  3-Jul-2019

 ----------------------------------------------------------------------
 #P M062X/Def2TZVPP Symm(None) scf(xqc) pop(None) geom(AllCheck,NoKeepC
 onstants) guess(Read) irc(RCFC,forward,MaxPoints=100,StepSize=2)
 ----------------------------------------------------------------------

 Structure from the checkpoint file:  "1502984803620600000001_r12_insertion_R_1_5_8_IRC_F.chk"
 ------------------------------
 Gaussian input prepared by ASE
 ------------------------------
 Charge =  0 Multiplicity = 1

 SCF Done:  E(RM062X) =  -962.121527929     A.U. after    8 cycles

                          Input orientation:
 ---------------------------------------------------------------------
 Center     Atomic      Atomic             Coordinates (Angstroms)
 Number     Number       Type             X           Y           Z
 ---------------------------------------------------------------------
      1          6           0       -0.928093   -0.171271    0.063248
      2          9           0       -1.515872    0.309366   -1.015122
      3          9           0       -1.394390    0.442489    1.133446
      4          9           0       -1.164196   -1.467048    0.156755
      5         16           0        0.897012    0.046591   -0.053325
      6          8           0        1.467779   -0.351177    1.181959
      7          8           0        1.329449   -0.508445   -1.284267
      8          8           0        0.836984    1.618571   -0.150289
      9          1           0        1.723583    1.998175   -0.237979
 ---------------------------------------------------------------------

 Normal termination of Gaussian 16 at Sun May 25 03:42:17 2025.
