 Gaussian 16, Revision C.01,
 Gaussian 16:  ES64L-G16RevC.01  3-Jul-2019

 ----------------------------------------------------------------------
 #P M062X/Def2TZVPP Symm(None) scf(xqc) pop(None) opt(NoFreeze,TS,CalcA
 ll,NoEigentest,MaxCycle=999)
 ----------------------------------------------------------------------

 ------------------------------
 Gaussian input prepared by ASE
 ------------------------------
 Symbolic Z-matrix:
 Charge =  0 Multiplicity = 1

 SCF Done:  E(RM062X) =  -961.943255102     A.U. after   15 cycles
 SCF Done:  E(RM062X) =  -961.975801094     A.U. after   14 cycles
 SCF Done:  E(RM062X) =  -961.989259756     A.U. after   14 cycles
 SCF Done:  E(RM062X) =  -961.989983088     A.U. after   13 cycles
 SCF Done:  E(RM062X) =  -961.990024870     A.U. after   11 cycles

 Isotropic polarizability for W=    0.000000       44.82 Bohr**3.
 End of Minotr F.D. properties file   721 does not exist.

 Optimization completed.
    -- Stationary point found.

                          Input orientation:
 ---------------------------------------------------------------------
 Center     Atomic      Atomic             Coordinates (Angstroms)
 Number     Number       Type             X           Y           Z
 ---------------------------------------------------------------------
      1          6           0       -0.115777   -0.583311    0.321603
      2          9           0        0.044378    1.165145   -0.193454
      3          9           0       -0.774836   -0.507026    1.408278
      4          9           0       -0.833314   -1.093295   -0.599242
      5         16           0        1.633582    0.304131    0.019980
      6          8           0        2.044408    0.153717    1.370132
      7          8           0        1.932454   -0.491766   -1.126045
      8          8           0        2.296560    1.708979   -0.325560
      9          1           0        2.243059    1.856263   -1.278804
 ---------------------------------------------------------------------

 ******    1 imaginary frequencies (negative Signs) ******

                      1                      2                      3
                      A                      A                      A
 Frequencies --   -419.9408               104.8121               141.8720
 Red. masses --     15.3554                 8.6423                15.5154
 Frc consts  --      1.5955                 0.0559                 0.1840
 IR Inten    --     10.7210                 5.7831                 0.8837

                      4                      5                      6
                      A                      A                      A
 Frequencies --    178.8588               257.3763               318.3873
 Red. masses --     12.4351                 3.5325                 2.9268
 Frc consts  --      0.2344                 0.1379                 0.1748
 IR Inten    --     27.8770                32.5947                39.6327

                      7                      8                      9
                      A                      A                      A
 Frequencies --    373.6930               395.2189               438.1735
 Red. masses --      5.7391                 5.8028                 9.0015
 Frc consts  --      0.4722                 0.5340                 1.0183
 IR Inten    --     28.2264                17.4504                 4.0055

                     10                     11                     12
                      A                      A                      A
 Frequencies --    525.2884               544.4971               620.1508
 Red. masses --      5.5382                15.3034                17.3966
 Frc consts  --      0.9004                 2.6732                 3.9419
 IR Inten    --     20.0105                15.2418               303.9267

                     13                     14                     15
                      A                      A                      A
 Frequencies --    664.6868               709.3121               864.8297
 Red. masses --     12.9476                16.6326                16.6455
 Frc consts  --      3.3703                 4.9304                 7.3352
 IR Inten    --    145.3500                 7.0264               383.5007

                     16                     17                     18
                      A                      A                      A
 Frequencies --   1177.0619              1203.8273              1374.0470
 Red. masses --     16.6800                 1.2094                13.7036
 Frc consts  --     13.6159                 1.0326                15.2437
 IR Inten    --    135.2651                91.2965               146.8416

                     19                     20                     21
                      A                      A                      A
 Frequencies --   1388.9492              1473.3503              3833.4097
 Red. masses --     13.0616                12.5437                 1.0656
 Frc consts  --     14.8464                16.0430                 9.2262
 IR Inten    --    163.5504               403.8390               135.8822

 - Thermochemistry -
 -------------------
 Temperature   298.150 Kelvin.  Pressure   1.00000 Atm.
 Atom     1 has atomic number  6 and mass  12.00000

 Molecular mass:   149.95985 amu.
 Principal axes and moments of inertia in atomic units:
                           1         2         3
     Eigenvalues --   578.251011214.028601318.52036
           X            0.87205   0.04561  -0.48729
           Y            0.46393   0.24007   0.85272
           Z           -0.15588   0.96968  -0.18820
 This molecule is an asymmetric top.
 Rotational symmetry number  1.
 Warning -- assumption of classical behavior for rotation
           may cause significant error
 Rotational temperatures (Kelvin)      0.14979     0.07134     0.06569
 Rotational constants (GHZ):           3.12103     1.48657     1.36876
    1 imaginary frequencies ignored.
 Zero-point vibrational energy      99217.1 (Joules/Mol)
                                   23.71345 (Kcal/Mol)
 Warning -- explicit consideration of  11 degrees of freedom as
           vibrations may cause significant error
 Vibrational temperatures:    150.80   204.12   257.34   370.31   458.09
          (Kelvin)            537.66   568.63   630.43   755.77   783.41
                              892.26   956.34  1020.54  1244.30  1693.53
                             1732.04  1976.95  1998.39  2119.82  5515.42

 Zero-point correction=                           0.037790 (Hartree/Particle)
 Thermal correction to Energy=                    0.045301
 Thermal correction to Enthalpy=                  0.046245
 Thermal correction to Gibbs Free Energy=         0.005330
 Sum of electronic and zero-point Energies=           -961.952235
 Sum of electronic and thermal Energies=              -961.944724
 Sum of electronic and thermal Enthalpies=            -961.943780
 Sum of electronic and thermal Free Energies=         -961.984695

                     E (Thermal)             CV                S
                      KCal/Mol        Cal/Mol-Kelvin    Cal/Mol-Kelvin
 Total                   28.427             25.794             86.114
 Electronic               0.000              0.000              0.000
 Translational            0.889              2.981             40.926
 Rotational               0.889              2.981             28.317
 Vibrational             26.649             19.832             16.871
 Vibration     1          0.605              1.945              3.363
 Vibration     2          0.615              1.911              2.778
 Vibration     3          0.629              1.868              2.340
 Vibration     4          0.667              1.750              1.680
 Vibration     5          0.705              1.638              1.318
 Vibration     6          0.745              1.526              1.065
 Vibration     7          0.762              1.480              0.980
 Vibration     8          0.798              1.387              0.832
 Vibration     9          0.880              1.194              0.598
 Vibration    10          0.900              1.152              0.556
 Vibration    11          0.980              0.989              0.416

 Normal termination of Gaussian 16 at Sun May 25 03:39:32 2025.
