 Gaussian 16, Revision C.01,
 Gaussian 16:  ES64L-G16RevC.01  3-Jul-2019

 -----------------------------------------------------------------
 #P M062X/Def2TZVPP Symm(None) scf(xqc) pop(None) freq opt(CalcFC)
 -----------------------------------------------------------------

 ------------------------------
 Gaussian input prepared by ASE
 ------------------------------
 Symbolic Z-matrix:
 Charge =  0 Multiplicity = 1

 SCF Done:  E(RM062X) =  -962.111861000     A.U. after   13 cycles
 SCF Done:  E(RM062X) =  -962.121898223     A.U. after   12 cycles
 SCF Done:  E(RM062X) =  -962.124355599     A.U. after   13 cycles
 SCF Done:  E(RM062X) =  -962.125659860     A.U. after   13 cycles
 SCF Done:  E(RM062X) =  -962.125795160     A.U. after   11 cycles
 SCF Done:  E(RM062X) =  -962.125892510     A.U. after   10 cycles
 SCF Done:  E(RM062X) =  -962.125895885     A.U. after    8 cycles
 SCF Done:  E(RM062X) =  -962.125896325     A.U. after    6 cycles
 Optimization completed.
    -- Stationary point found.
 Normal termination of Gaussian 16 at Sun May 25 04:15:00 2025.

 ---------------------------------------------------------------------
 #P Geom=AllCheck Guess=TCheck SCRF=Check GenChk RM062X/def2TZVPP Freq
 ---------------------------------------------------------------------

 Structure from the checkpoint file:  "1502984803620600000001_r12_insertion_R_2_1_5_IRC_R_prod.chk"
 ------------------------------
 Gaussian input prepared by ASE
 ------------------------------
 Charge =  0 Multiplicity = 1

                          Input orientation:
 ---------------------------------------------------------------------
 Center     Atomic      Atomic             Coordinates (Angstroms)
 Number     Number       Type             X           Y           Z
 ---------------------------------------------------------------------
      1          6           0       -0.926801   -0.127360    0.022191
      2          9           0       -1.465677    0.613103   -0.937102
      3          9           0       -1.304025    0.340810    1.195900
      4          9           0       -1.329350   -1.376369   -0.109157
      5         16           0        0.906445   -0.073731   -0.127288
      6          8           0        1.436740   -0.670668    1.036441
      7          8           0        1.222021   -0.494454   -1.445083
      8          8           0        1.124808    1.479219   -0.011601
      9          1           0        1.131894    1.880923   -0.892375
 ---------------------------------------------------------------------

 SCF Done:  E(RM062X) =  -962.125896325     A.U. after    1 cycles

 Isotropic polarizability for W=    0.000000       41.22 Bohr**3.
 End of Minotr F.D. properties file   721 does not exist.

                      1                      2                      3
                      A                      A                      A
 Frequencies --     61.1699               188.9838               194.2500
 Red. masses --     13.4648                 7.5323                16.3719
 Frc consts  --      0.0297                 0.1585                 0.3640
 IR Inten    --      1.4370                 9.2880                 3.0865

                      4                      5                      6
                      A                      A                      A
 Frequencies --    310.0695               325.4474               342.5077
 Red. masses --     12.2399                 3.4196                13.0634
 Frc consts  --      0.6933                 0.2134                 0.9029
 IR Inten    --      0.4629                26.1588                 2.0042

                      7                      8                      9
                      A                      A                      A
 Frequencies --    379.4774               472.0836               507.0514
 Red. masses --      1.9158                 4.1711                14.9458
 Frc consts  --      0.1625                 0.5477                 2.2640
 IR Inten    --     54.2704                28.4368                26.8256

                     10                     11                     12
                      A                      A                      A
 Frequencies --    571.3144               576.9622               632.3926
 Red. masses --     15.6653                16.3593                19.9224
 Frc consts  --      3.0126                 3.2085                 4.6942
 IR Inten    --      0.8677                 2.8086               159.8544

                     13                     14                     15
                      A                      A                      A
 Frequencies --    794.6796               906.8845              1140.3228
 Red. masses --     17.7095                17.6095                 1.1840
 Frc consts  --      6.5893                 8.5330                 0.9071
 IR Inten    --      3.7297               217.7529                87.3052

                     16                     17                     18
                      A                      A                      A
 Frequencies --   1198.1312              1275.6261              1295.9152
 Red. masses --     14.7587                13.3621                13.3546
 Frc consts  --     12.4827                12.8106                13.2140
 IR Inten    --    264.9771               165.1124               134.3532

                     19                     20                     21
                      A                      A                      A
 Frequencies --   1308.5669              1503.9188              3807.7746
 Red. masses --     15.3118                15.3848                 1.0657
 Frc consts  --     15.4478                20.5017                 9.1039
 IR Inten    --    234.4323               292.6331               186.8327

 - Thermochemistry -
 -------------------
 Temperature   298.150 Kelvin.  Pressure   1.00000 Atm.
 Atom     1 has atomic number  6 and mass  12.00000

 Molecular mass:   149.95985 amu.
 Principal axes and moments of inertia in atomic units:
                           1         2         3
     Eigenvalues --   673.815611132.043411139.51200
           X            0.99209   0.12195  -0.02979
           Y            0.09592  -0.58332   0.80656
           Z           -0.08099   0.80304   0.59040
 This molecule is an asymmetric top.
 Rotational symmetry number  1.
 Warning -- assumption of classical behavior for rotation
           may cause significant error
 Rotational temperatures (Kelvin)      0.12854     0.07651     0.07601
 Rotational constants (GHZ):           2.67839     1.59423     1.58378
 Zero-point vibrational energy     106428.9 (Joules/Mol)
                                   25.43713 (Kcal/Mol)
 Warning -- explicit consideration of  11 degrees of freedom as
           vibrations may cause significant error
 Vibrational temperatures:     88.01   271.91   279.48   446.12   468.25
          (Kelvin)            492.79   545.98   679.22   729.53   821.99
                              830.12   909.87  1143.37  1304.80  1640.67
                             1723.84  1835.34  1864.53  1882.74  2163.80
                             5478.54

 Zero-point correction=                           0.040537 (Hartree/Particle)
 Thermal correction to Energy=                    0.047993
 Thermal correction to Enthalpy=                  0.048937
 Thermal correction to Gibbs Free Energy=         0.007975
 Sum of electronic and zero-point Energies=           -962.085360
 Sum of electronic and thermal Energies=              -962.077904
 Sum of electronic and thermal Enthalpies=            -962.076960
 Sum of electronic and thermal Free Energies=         -962.117921

                     E (Thermal)             CV                S
                      KCal/Mol        Cal/Mol-Kelvin    Cal/Mol-Kelvin
 Total                   30.116             25.837             86.210
 Electronic               0.000              0.000              0.000
 Translational            0.889              2.981             40.926
 Rotational               0.889              2.981             28.254
 Vibrational             28.338             19.876             17.030
 Vibration     1          0.597              1.973              4.419
 Vibration     2          0.633              1.855              2.238
 Vibration     3          0.635              1.848              2.187
 Vibration     4          0.699              1.655              1.362
 Vibration     5          0.710              1.625              1.283
 Vibration     6          0.722              1.590              1.200
 Vibration     7          0.749              1.514              1.041
 Vibration     8          0.829              1.312              0.732
 Vibration     9          0.862              1.234              0.641
 Vibration    10          0.927              1.093              0.502
 Vibration    11          0.933              1.081              0.491

                           ! Non-Optimized Parameters !
 Normal termination of Gaussian 16 at Sun May 25 04:16:54 2025.
