 Gaussian 16, Revision C.01,
 Gaussian 16:  ES64L-G16RevC.01  3-Jul-2019

 -----------------------------------------------------------------
 #P M062X/Def2TZVPP Symm(None) scf(xqc) pop(None) freq opt(CalcFC)
 -----------------------------------------------------------------

 ------------------------------
 Gaussian input prepared by ASE
 ------------------------------
 Symbolic Z-matrix:
 Charge =  0 Multiplicity = 1

 SCF Done:  E(RM062X) =  -962.121527929     A.U. after   13 cycles
 SCF Done:  E(RM062X) =  -962.122018531     A.U. after   12 cycles
 SCF Done:  E(RM062X) =  -962.123576469     A.U. after   12 cycles
 SCF Done:  E(RM062X) =  -962.125575373     A.U. after   13 cycles
 SCF Done:  E(RM062X) =  -962.125860032     A.U. after   11 cycles
 SCF Done:  E(RM062X) =  -962.125879685     A.U. after   10 cycles
 SCF Done:  E(RM062X) =  -962.125883842     A.U. after    9 cycles
 SCF Done:  E(RM062X) =  -962.125884807     A.U. after    8 cycles
 Optimization completed.
    -- Stationary point found.
 Normal termination of Gaussian 16 at Sun May 25 03:46:28 2025.

 ---------------------------------------------------------------------
 #P Geom=AllCheck Guess=TCheck SCRF=Check GenChk RM062X/def2TZVPP Freq
 ---------------------------------------------------------------------

 Structure from the checkpoint file:  "1502984803620600000001_r12_insertion_R_1_5_8_IRC_F_prod.chk"
 ------------------------------
 Gaussian input prepared by ASE
 ------------------------------
 Charge =  0 Multiplicity = 1

                          Input orientation:
 ---------------------------------------------------------------------
 Center     Atomic      Atomic             Coordinates (Angstroms)
 Number     Number       Type             X           Y           Z
 ---------------------------------------------------------------------
      1          6           0       -0.870050   -0.137397    0.061242
      2          9           0       -1.347589    0.510699   -0.992732
      3          9           0       -1.386990    0.378415    1.159295
      4          9           0       -1.191583   -1.413500   -0.025176
      5         16           0        0.963610    0.014183    0.085905
      6          8           0        1.405996   -0.479326    1.331894
      7          8           0        1.430298   -0.466229   -1.164986
      8          8           0        1.087968    1.581446    0.119823
      9          1           0        1.160597    1.928961   -0.780840
 ---------------------------------------------------------------------

 SCF Done:  E(RM062X) =  -962.125884807     A.U. after    1 cycles

 Isotropic polarizability for W=    0.000000       41.21 Bohr**3.
 End of Minotr F.D. properties file   721 does not exist.

                      1                      2                      3
                      A                      A                      A
 Frequencies --     59.4446               185.6173               193.8622
 Red. masses --     13.4557                 6.5370                16.3645
 Frc consts  --      0.0280                 0.1327                 0.3624
 IR Inten    --      1.4387                11.2386                 3.3165

                      4                      5                      6
                      A                      A                      A
 Frequencies --    309.1792               315.3358               342.1157
 Red. masses --      6.0658                 2.8316                13.5533
 Frc consts  --      0.3416                 0.1659                 0.9346
 IR Inten    --      5.6616                37.8953                 1.7501

                      7                      8                      9
                      A                      A                      A
 Frequencies --    367.9844               470.4802               506.3071
 Red. masses --      2.6065                 4.5888                15.1128
 Frc consts  --      0.2080                 0.5985                 2.2826
 IR Inten    --     38.7698                26.4004                26.6658

                     10                     11                     12
                      A                      A                      A
 Frequencies --    571.2429               576.8477               631.2596
 Red. masses --     15.6904                16.4103                19.9883
 Frc consts  --      3.0166                 3.2173                 4.6929
 IR Inten    --      0.8561                 2.7904               158.5143

                     13                     14                     15
                      A                      A                      A
 Frequencies --    794.2994               907.2333              1139.7084
 Red. masses --     17.7066                17.5877                 1.1848
 Frc consts  --      6.5819                 8.5290                 0.9068
 IR Inten    --      3.7135               217.9627                86.9252

                     16                     17                     18
                      A                      A                      A
 Frequencies --   1197.1845              1275.5674              1295.4776
 Red. masses --     14.8004                13.3904                13.4393
 Frc consts  --     12.4981                12.8366                13.2888
 IR Inten    --    266.1637               160.7909               122.4791

                     19                     20                     21
                      A                      A                      A
 Frequencies --   1307.4190              1500.7012              3811.2776
 Red. masses --     15.0866                15.3197                 1.0657
 Frc consts  --     15.1940                20.3277                 9.1206
 IR Inten    --    249.2717               292.9681               186.4584

 - Thermochemistry -
 -------------------
 Temperature   298.150 Kelvin.  Pressure   1.00000 Atm.
 Atom     1 has atomic number  6 and mass  12.00000

 Molecular mass:   149.95985 amu.
 Principal axes and moments of inertia in atomic units:
                           1         2         3
     Eigenvalues --   673.845791131.974041139.42384
           X            0.98884   0.07150  -0.13069
           Y            0.14871  -0.52607   0.83734
           Z            0.00888   0.84743   0.53083
 This molecule is an asymmetric top.
 Rotational symmetry number  1.
 Warning -- assumption of classical behavior for rotation
           may cause significant error
 Rotational temperatures (Kelvin)      0.12854     0.07652     0.07602
 Rotational constants (GHZ):           2.67827     1.59433     1.58391
 Zero-point vibrational energy     106219.7 (Joules/Mol)
                                   25.38711 (Kcal/Mol)
 Warning -- explicit consideration of  11 degrees of freedom as
           vibrations may cause significant error
 Vibrational temperatures:     85.53   267.06   278.92   444.84   453.70
          (Kelvin)            492.23   529.45   676.92   728.46   821.89
                              829.96   908.24  1142.82  1305.31  1639.79
                             1722.48  1835.26  1863.90  1881.08  2159.17
                             5483.58

 Zero-point correction=                           0.040457 (Hartree/Particle)
 Thermal correction to Energy=                    0.047951
 Thermal correction to Enthalpy=                  0.048895
 Thermal correction to Gibbs Free Energy=         0.007835
 Sum of electronic and zero-point Energies=           -962.085428
 Sum of electronic and thermal Energies=              -962.077934
 Sum of electronic and thermal Enthalpies=            -962.076990
 Sum of electronic and thermal Free Energies=         -962.118050

                     E (Thermal)             CV                S
                      KCal/Mol        Cal/Mol-Kelvin    Cal/Mol-Kelvin
 Total                   30.090             25.900             86.418
 Electronic               0.000              0.000              0.000
 Translational            0.889              2.981             40.926
 Rotational               0.889              2.981             28.254
 Vibrational             28.312             19.939             17.238
 Vibration     1          0.597              1.974              4.476
 Vibration     2          0.632              1.860              2.271
 Vibration     3          0.635              1.848              2.191
 Vibration     4          0.699              1.656              1.367
 Vibration     5          0.703              1.644              1.334
 Vibration     6          0.721              1.591              1.202
 Vibration     7          0.741              1.538              1.088
 Vibration     8          0.828              1.316              0.736
 Vibration     9          0.862              1.236              0.643
 Vibration    10          0.927              1.093              0.502
 Vibration    11          0.933              1.081              0.491

 Optimization completed.
    -- Stationary point found.
 Normal termination of Gaussian 16 at Sun May 25 03:48:24 2025.
