 Gaussian 16, Revision C.01,
 Gaussian 16:  ES64L-G16RevC.01  3-Jul-2019

 ----------------------------------------------------------------------
 #P M062X/Def2TZVPP Symm(None) scf(xqc) pop(None) geom(AllCheck,NoKeepC
 onstants) guess(Read) irc(RCFC,forward,MaxPoints=100,StepSize=2)
 ----------------------------------------------------------------------

 Structure from the checkpoint file:  "1502984803620600000001_intra_H_migration_suprafacial_6_9_IRC_F.chk"
 ------------------------------
 Gaussian input prepared by ASE
 ------------------------------
 Charge =  0 Multiplicity = 1

 SCF Done:  E(RM062X) =  -962.063365495     A.U. after    9 cycles
 SCF Done:  E(RM062X) =  -962.063418535     A.U. after   10 cycles
 SCF Done:  E(RM062X) =  -962.063506440     A.U. after   10 cycles
 SCF Done:  E(RM062X) =  -962.063628834     A.U. after   10 cycles
 SCF Done:  E(RM062X) =  -962.063785152     A.U. after   10 cycles
 SCF Done:  E(RM062X) =  -962.063974381     A.U. after   10 cycles
 SCF Done:  E(RM062X) =  -962.064194759     A.U. after   10 cycles
 SCF Done:  E(RM062X) =  -962.064443563     A.U. after   10 cycles
 SCF Done:  E(RM062X) =  -962.064717214     A.U. after   10 cycles
 SCF Done:  E(RM062X) =  -962.065011793     A.U. after   11 cycles
 SCF Done:  E(RM062X) =  -962.096964901     A.U. after    9 cycles
 SCF Done:  E(RM062X) =  -962.097330238     A.U. after    9 cycles
 SCF Done:  E(RM062X) =  -962.097693594     A.U. after    9 cycles
 SCF Done:  E(RM062X) =  -962.098054952     A.U. after    9 cycles
 SCF Done:  E(RM062X) =  -962.098414295     A.U. after    9 cycles
 SCF Done:  E(RM062X) =  -962.098771612     A.U. after    9 cycles
 SCF Done:  E(RM062X) =  -962.099126890     A.U. after    9 cycles
 SCF Done:  E(RM062X) =  -962.099480120     A.U. after    9 cycles
 SCF Done:  E(RM062X) =  -962.099831292     A.U. after    9 cycles
 SCF Done:  E(RM062X) =  -962.100180398     A.U. after    9 cycles

                          Input orientation:
 ---------------------------------------------------------------------
 Center     Atomic      Atomic             Coordinates (Angstroms)
 Number     Number       Type             X           Y           Z
 ---------------------------------------------------------------------
      1          6           0        0.350294   -0.974599   -0.909225
      2          9           0       -0.429183    0.746183   -1.554248
      3          9           0       -0.811837   -1.525005   -1.064993
      4          9           0        1.057020   -1.045130   -1.981576
      5         16           0       -0.248822    0.917546    1.178131
      6          8           0        0.805704   -0.631697    0.132802
      7          8           0       -1.196408    0.129870    1.885364
      8          8           0        0.879529    1.488116    1.821484
      9          1           0       -0.566750    1.226272   -0.757434
 ---------------------------------------------------------------------

 Normal termination of Gaussian 16 at Sun May 25 04:48:05 2025.
