 Gaussian 16, Revision C.01,
 Gaussian 16:  ES64L-G16RevC.01  3-Jul-2019

 ----------------------------------------------------------------------
 #P M062X/Def2TZVPP Symm(None) scf(xqc) pop(None) geom(AllCheck,NoKeepC
 onstants) guess(Read) irc(RCFC,reverse,MaxPoints=100,StepSize=2)
 ----------------------------------------------------------------------

 Structure from the checkpoint file:  "1502984803620600000001_r12_insertion_R_6_5_7_IRC_R.chk"
 ------------------------------
 Gaussian input prepared by ASE
 ------------------------------
 Charge =  0 Multiplicity = 1

 SCF Done:  E(RM062X) =  -961.922842604     A.U. after   15 cycles
 SCF Done:  E(RM062X) =  -961.923229989     A.U. after   17 cycles
 SCF Done:  E(RM062X) =  -961.923869369     A.U. after   17 cycles
 SCF Done:  E(RM062X) =  -961.924749382     A.U. after   17 cycles
 SCF Done:  E(RM062X) =  -961.925852760     A.U. after   17 cycles
 SCF Done:  E(RM062X) =  -961.927156449     A.U. after   16 cycles
 SCF Done:  E(RM062X) =  -961.928632450     A.U. after   16 cycles
 SCF Done:  E(RM062X) =  -961.930249391     A.U. after   17 cycles
 SCF Done:  E(RM062X) =  -961.931974567     A.U. after   17 cycles
 SCF Done:  E(RM062X) =  -961.933775981     A.U. after   15 cycles
 SCF Done:  E(RM062X) =  -961.963416218     A.U. after   11 cycles
 SCF Done:  E(RM062X) =  -961.963473242     A.U. after   11 cycles
 SCF Done:  E(RM062X) =  -961.963522099     A.U. after   11 cycles
 SCF Done:  E(RM062X) =  -961.963563218     A.U. after   11 cycles
 SCF Done:  E(RM062X) =  -961.963596587     A.U. after   11 cycles
 SCF Done:  E(RM062X) =  -961.963622035     A.U. after   11 cycles
 SCF Done:  E(RM062X) =  -961.963639372     A.U. after   11 cycles
 SCF Done:  E(RM062X) =  -961.963641019     A.U. after    9 cycles
 SCF Done:  E(RM062X) =  -961.963651865     A.U. after   11 cycles
 SCF Done:  E(RM062X) =  -961.963652368     A.U. after    9 cycles

                          Input orientation:
 ---------------------------------------------------------------------
 Center     Atomic      Atomic             Coordinates (Angstroms)
 Number     Number       Type             X           Y           Z
 ---------------------------------------------------------------------
      1          6           0       -1.040838   -0.093836    0.163056
      2          9           0       -1.888682    0.503343   -0.670359
      3          9           0       -1.135362    0.471413    1.353820
      4          9           0       -1.387755   -1.376169    0.268636
      5         16           0        0.693851   -0.055271   -0.593176
      6          8           0        1.388935   -0.789480    0.592166
      7          8           0        2.448117   -0.190838   -0.277608
      8          8           0        0.695358    1.522012   -0.348826
      9          1           0        1.588201    1.852475   -0.516737
 ---------------------------------------------------------------------

 Normal termination of Gaussian 16 at Sun May 25 04:27:02 2025.
