 Gaussian 16, Revision C.01,
 Gaussian 16:  ES64L-G16RevC.01  3-Jul-2019

 ----------------------------------------------------------------------
 #P M062X/Def2TZVPP Symm(None) scf(xqc) pop(None) geom(AllCheck,NoKeepC
 onstants) guess(Read) irc(RCFC,reverse,MaxPoints=100,StepSize=2)
 ----------------------------------------------------------------------

 Structure from the checkpoint file:  "1502984803620600000001_Intra_Diels_alder_R_6_7_IRC_R.chk"
 ------------------------------
 Gaussian input prepared by ASE
 ------------------------------
 Charge =  0 Multiplicity = 1

 SCF Done:  E(RM062X) =  -962.120766716     A.U. after    8 cycles

                          Input orientation:
 ---------------------------------------------------------------------
 Center     Atomic      Atomic             Coordinates (Angstroms)
 Number     Number       Type             X           Y           Z
 ---------------------------------------------------------------------
      1          6           0       -0.957565   -0.137399    0.029948
      2          9           0       -1.520475    1.018632   -0.284035
      3          9           0       -1.356450   -0.505475    1.228868
      4          9           0       -1.322233   -1.046266   -0.853966
      5         16           0        0.911098    0.015725    0.019401
      6          8           0        1.386810   -0.839321   -1.008826
      7          8           0        1.333623   -0.063339    1.364097
      8          8           0        1.089698    1.509355   -0.436363
      9          1           0        1.186398    1.558008   -1.397998
 ---------------------------------------------------------------------

 Normal termination of Gaussian 16 at Sun May 25 04:04:35 2025.
