 Gaussian 16, Revision C.01,
 Gaussian 16:  ES64L-G16RevC.01  3-Jul-2019

 ----------------------------------------------------------------------
 #P M062X/Def2TZVPP Symm(None) scf(xqc) pop(None) opt(NoFreeze,TS,CalcA
 ll,NoEigentest,MaxCycle=999)
 ----------------------------------------------------------------------

 ------------------------------
 Gaussian input prepared by ASE
 ------------------------------
 Symbolic Z-matrix:
 Charge =  0 Multiplicity = 1

 SCF Done:  E(RM062X) =  -962.024285966     A.U. after   14 cycles
 SCF Done:  E(RM062X) =  -962.028642981     A.U. after   13 cycles
 SCF Done:  E(RM062X) =  -962.034706353     A.U. after   13 cycles
 SCF Done:  E(RM062X) =  -962.054817566     A.U. after   12 cycles
 SCF Done:  E(RM062X) =  -962.067199254     A.U. after   12 cycles
 SCF Done:  E(RM062X) =  -962.069689177     A.U. after   12 cycles
 SCF Done:  E(RM062X) =  -962.069702874     A.U. after   10 cycles

 Isotropic polarizability for W=    0.000000       41.73 Bohr**3.
 End of Minotr F.D. properties file   721 does not exist.

 Optimization completed.
    -- Stationary point found.

                          Input orientation:
 ---------------------------------------------------------------------
 Center     Atomic      Atomic             Coordinates (Angstroms)
 Number     Number       Type             X           Y           Z
 ---------------------------------------------------------------------
      1          6           0       -0.119780   -0.035662    0.103003
      2          9           0       -0.657594    0.694995   -0.853409
      3          9           0       -0.633946    0.305996    1.268083
      4          9           0       -0.348505   -1.313234   -0.129384
      5         16           0        1.699952    0.248951    0.145226
      6          8           0        2.221287   -0.554239    1.181450
      7          8           0        2.172430    0.084008   -1.266757
      8          8           0        1.880814    1.735962    0.160027
      9          1           0        2.255856    1.346057   -1.011364
 ---------------------------------------------------------------------

 ******    1 imaginary frequencies (negative Signs) ******

                      1                      2                      3
                      A                      A                      A
 Frequencies --  -1849.5363                53.4090               184.8254
 Red. masses --      1.0966                14.9502                17.0033
 Frc consts  --      2.2103                 0.0251                 0.3422
 IR Inten    --    633.1976                 0.1458                 2.7615

                      4                      5                      6
                      A                      A                      A
 Frequencies --    191.8456               305.6943               326.7015
 Red. masses --     12.6941                13.9063                17.2666
 Frc consts  --      0.2753                 0.7657                 1.0858
 IR Inten    --      2.7914                 0.8232                 0.4219

                      7                      8                      9
                      A                      A                      A
 Frequencies --    356.8377               483.8722               552.7895
 Red. masses --     16.9214                18.1624                12.4435
 Frc consts  --      1.2695                 2.5054                 2.2403
 IR Inten    --      0.8016                20.1347                21.2135

                     10                     11                     12
                      A                      A                      A
 Frequencies --    572.6741               575.2012               711.7148
 Red. masses --     17.9315                10.5672                15.6155
 Frc consts  --      3.4648                 2.0599                 4.6603
 IR Inten    --      0.5497                30.8509               110.4966

                     13                     14                     15
                      A                      A                      A
 Frequencies --    802.7786               969.7970              1060.6171
 Red. masses --     11.9633                 1.2207                14.2288
 Frc consts  --      4.5425                 0.6765                 9.4306
 IR Inten    --      3.8283               103.7817               206.7326

                     16                     17                     18
                      A                      A                      A
 Frequencies --   1202.8102              1245.5358              1296.8611
 Red. masses --     10.5631                13.9010                13.2285
 Frc consts  --      9.0040                12.7060                13.1084
 IR Inten    --    302.3090               103.4588               314.5326

                     19                     20                     21
                      A                      A                      A
 Frequencies --   1301.2016              1440.3748              2202.3797
 Red. masses --     13.0890                17.1891                 1.0293
 Frc consts  --     13.0571                21.0114                 2.9416
 IR Inten    --    187.0258               344.4014               151.4494

 - Thermochemistry -
 -------------------
 Temperature   298.150 Kelvin.  Pressure   1.00000 Atm.
 Atom     1 has atomic number  6 and mass  12.00000

 Molecular mass:   149.95985 amu.
 Principal axes and moments of inertia in atomic units:
                           1         2         3
     Eigenvalues --   658.712031119.400421185.19824
           X            0.97463   0.18053  -0.13228
           Y            0.21750  -0.62468   0.74998
           Z           -0.05276   0.75972   0.64810
 This molecule is an asymmetric top.
 Rotational symmetry number  1.
 Warning -- assumption of classical behavior for rotation
           may cause significant error
 Rotational temperatures (Kelvin)      0.13149     0.07738     0.07308
 Rotational constants (GHZ):           2.73980     1.61224     1.52273
    1 imaginary frequencies ignored.
 Zero-point vibrational energy      94731.8 (Joules/Mol)
                                   22.64145 (Kcal/Mol)
 Warning -- explicit consideration of  10 degrees of freedom as
           vibrations may cause significant error
 Vibrational temperatures:     76.84   265.92   276.02   439.83   470.05
          (Kelvin)            513.41   696.18   795.34   823.95   827.59
                             1024.00  1155.02  1395.32  1525.99  1730.58
                             1792.05  1865.89  1872.14  2072.38  3168.73

 Zero-point correction=                           0.036081 (Hartree/Particle)
 Thermal correction to Energy=                    0.043145
 Thermal correction to Enthalpy=                  0.044089
 Thermal correction to Gibbs Free Energy=         0.003601
 Sum of electronic and zero-point Energies=           -962.033621
 Sum of electronic and thermal Energies=              -962.026558
 Sum of electronic and thermal Enthalpies=            -962.025614
 Sum of electronic and thermal Free Energies=         -962.066101

                     E (Thermal)             CV                S
                      KCal/Mol        Cal/Mol-Kelvin    Cal/Mol-Kelvin
 Total                   27.074             24.045             85.213
 Electronic               0.000              0.000              0.000
 Translational            0.889              2.981             40.926
 Rotational               0.889              2.981             28.260
 Vibrational             25.296             18.083             16.027
 Vibration     1          0.596              1.976              4.687
 Vibration     2          0.631              1.861              2.279
 Vibration     3          0.634              1.851              2.210
 Vibration     4          0.696              1.663              1.386
 Vibration     5          0.710              1.622              1.276
 Vibration     6          0.732              1.561              1.136
 Vibration     7          0.840              1.286              0.700
 Vibration     8          0.908              1.134              0.538
 Vibration     9          0.929              1.090              0.499
 Vibration    10          0.932              1.085              0.494

 Normal termination of Gaussian 16 at Sun May 25 03:35:19 2025.
