 Gaussian 16, Revision C.01,
 Gaussian 16:  ES64L-G16RevC.01  3-Jul-2019

 -----------------------------------------------------------------
 #P M062X/Def2TZVPP Symm(None) scf(xqc) pop(None) freq opt(CalcFC)
 -----------------------------------------------------------------

 ------------------------------
 Gaussian input prepared by ASE
 ------------------------------
 Symbolic Z-matrix:
 Charge =  0 Multiplicity = 1

 SCF Done:  E(RM062X) =  -962.119897075     A.U. after   13 cycles
 SCF Done:  E(RM062X) =  -962.125433676     A.U. after   12 cycles
 SCF Done:  E(RM062X) =  -962.125852074     A.U. after   11 cycles
 SCF Done:  E(RM062X) =  -962.125887833     A.U. after   10 cycles
 SCF Done:  E(RM062X) =  -962.125888548     A.U. after    8 cycles
 SCF Done:  E(RM062X) =  -962.125888593     A.U. after    6 cycles
 Optimization completed.
    -- Stationary point found.
 Normal termination of Gaussian 16 at Sun May 25 04:20:27 2025.

 ---------------------------------------------------------------------
 #P Geom=AllCheck Guess=TCheck SCRF=Check GenChk RM062X/def2TZVPP Freq
 ---------------------------------------------------------------------

 Structure from the checkpoint file:  "1502984803620600000001_r12_insertion_R_9_8_5_IRC_F_prod.chk"
 ------------------------------
 Gaussian input prepared by ASE
 ------------------------------
 Charge =  0 Multiplicity = 1

                          Input orientation:
 ---------------------------------------------------------------------
 Center     Atomic      Atomic             Coordinates (Angstroms)
 Number     Number       Type             X           Y           Z
 ---------------------------------------------------------------------
      1          6           0       -0.897919   -0.183731    0.003607
      2          9           0       -1.429976    0.531891   -0.978050
      3          9           0       -1.503288    0.108838    1.138190
      4          9           0       -1.048097   -1.466421   -0.263144
      5         16           0        0.888086    0.231565    0.157215
      6          8           0        1.460008   -0.709008    1.040407
      7          8           0        1.358318   -0.130735   -1.299027
      8          8           0        0.967221    1.636499    0.339477
      9          1           0        1.318813    0.652909   -1.866049
 ---------------------------------------------------------------------

 SCF Done:  E(RM062X) =  -962.125888593     A.U. after    1 cycles

 Isotropic polarizability for W=    0.000000       41.21 Bohr**3.
 End of Minotr F.D. properties file   721 does not exist.

                      1                      2                      3
                      A                      A                      A
 Frequencies --     59.4351               187.2566               195.7890
 Red. masses --     13.4233                 7.4607                15.2631
 Frc consts  --      0.0279                 0.1541                 0.3447
 IR Inten    --      1.4620                 9.3879                 3.8114

                      4                      5                      6
                      A                      A                      A
 Frequencies --    309.8354               323.0830               342.3463
 Red. masses --     11.5391                 3.0550                13.4613
 Frc consts  --      0.6527                 0.1879                 0.9295
 IR Inten    --      0.6344                30.7951                 1.7296

                      7                      8                      9
                      A                      A                      A
 Frequencies --    375.5388               470.3552               506.4075
 Red. masses --      2.0359                 4.3801                14.9864
 Frc consts  --      0.1692                 0.5709                 2.2644
 IR Inten    --     50.8117                27.5349                26.7926

                     10                     11                     12
                      A                      A                      A
 Frequencies --    571.2221               576.9414               632.3912
 Red. masses --     15.7582                16.3273                19.9378
 Frc consts  --      3.0295                 3.2021                 4.6979
 IR Inten    --      0.7973                 2.8016               159.2942

                     13                     14                     15
                      A                      A                      A
 Frequencies --    794.3980               906.8836              1137.9573
 Red. masses --     17.7133                17.6244                 1.1847
 Frc consts  --      6.5861                 8.5402                 0.9039
 IR Inten    --      3.6290               217.7149                86.9159

                     16                     17                     18
                      A                      A                      A
 Frequencies --   1198.4750              1275.4319              1296.0425
 Red. masses --     14.8372                13.3702                13.3499
 Frc consts  --     12.5562                12.8145                13.2119
 IR Inten    --    264.9253               164.1885               136.1947

                     19                     20                     21
                      A                      A                      A
 Frequencies --   1308.5642              1503.2047              3809.8744
 Red. masses --     15.2799                15.3990                 1.0657
 Frc consts  --     15.4156                20.5012                 9.1139
 IR Inten    --    232.1462               292.3587               186.4893

 - Thermochemistry -
 -------------------
 Temperature   298.150 Kelvin.  Pressure   1.00000 Atm.
 Atom     1 has atomic number  6 and mass  12.00000

 Molecular mass:   149.95985 amu.
 Principal axes and moments of inertia in atomic units:
                           1         2         3
     Eigenvalues --   673.856371131.943041139.40158
           X            0.97696   0.12874  -0.17023
           Y            0.21266  -0.65490   0.72517
           Z            0.01813   0.74467   0.66719
 This molecule is an asymmetric top.
 Rotational symmetry number  1.
 Warning -- assumption of classical behavior for rotation
           may cause significant error
 Rotational temperatures (Kelvin)      0.12853     0.07652     0.07602
 Rotational constants (GHZ):           2.67823     1.59437     1.58394
 Zero-point vibrational energy     106356.6 (Joules/Mol)
                                   25.41983 (Kcal/Mol)
 Warning -- explicit consideration of  11 degrees of freedom as
           vibrations may cause significant error
 Vibrational temperatures:     85.51   269.42   281.70   445.78   464.84
          (Kelvin)            492.56   540.32   676.74   728.61   821.86
                              830.09   909.87  1142.96  1304.80  1637.27
                             1724.34  1835.06  1864.72  1882.73  2162.78
                             5481.56

 Zero-point correction=                           0.040509 (Hartree/Particle)
 Thermal correction to Energy=                    0.047978
 Thermal correction to Enthalpy=                  0.048923
 Thermal correction to Gibbs Free Energy=         0.007916
 Sum of electronic and zero-point Energies=           -962.085380
 Sum of electronic and thermal Energies=              -962.077910
 Sum of electronic and thermal Enthalpies=            -962.076966
 Sum of electronic and thermal Free Energies=         -962.117973

                     E (Thermal)             CV                S
                      KCal/Mol        Cal/Mol-Kelvin    Cal/Mol-Kelvin
 Total                   30.107             25.860             86.307
 Electronic               0.000              0.000              0.000
 Translational            0.889              2.981             40.926
 Rotational               0.889              2.981             28.254
 Vibrational             28.329             19.898             17.127
 Vibration     1          0.597              1.974              4.476
 Vibration     2          0.632              1.857              2.255
 Vibration     3          0.636              1.846              2.172
 Vibration     4          0.699              1.655              1.363
 Vibration     5          0.708              1.629              1.294
 Vibration     6          0.721              1.591              1.201
 Vibration     7          0.746              1.522              1.057
 Vibration     8          0.827              1.316              0.737
 Vibration     9          0.862              1.236              0.642
 Vibration    10          0.927              1.093              0.502
 Vibration    11          0.933              1.081              0.491

 Optimization completed.
    -- Stationary point found.
 Normal termination of Gaussian 16 at Sun May 25 04:22:23 2025.
