 Gaussian 16, Revision C.01,
 Gaussian 16:  ES64L-G16RevC.01  3-Jul-2019

 ----------------------------------------------------------------------
 #P M062X/Def2TZVPP Symm(None) scf(xqc) pop(None) opt(NoFreeze,TS,CalcA
 ll,NoEigentest,MaxCycle=999)
 ----------------------------------------------------------------------

 ------------------------------
 Gaussian input prepared by ASE
 ------------------------------
 Symbolic Z-matrix:
 Charge =  0 Multiplicity = 1

 SCF Done:  E(RM062X) =  -961.676896190     A.U. after   16 cycles
 SCF Done:  E(RM062X) =  -961.792060830     A.U. after   14 cycles
 SCF Done:  E(RM062X) =  -961.883572586     A.U. after   13 cycles
 SCF Done:  E(RM062X) =  -961.986451730     A.U. after   14 cycles
 SCF Done:  E(RM062X) =  -962.058809823     A.U. after   13 cycles
 SCF Done:  E(RM062X) =  -962.101266838     A.U. after   13 cycles
 SCF Done:  E(RM062X) =  -962.123757790     A.U. after   13 cycles
 SCF Done:  E(RM062X) =  -962.133553775     A.U. after   13 cycles
 SCF Done:  E(RM062X) =  -962.138735162     A.U. after   13 cycles
 SCF Done:  E(RM062X) =  -962.141293886     A.U. after   12 cycles
 SCF Done:  E(RM062X) =  -962.142816220     A.U. after   13 cycles
 SCF Done:  E(RM062X) =  -962.144108091     A.U. after   13 cycles
 SCF Done:  E(RM062X) =  -962.144826610     A.U. after   11 cycles
 SCF Done:  E(RM062X) =  -962.144983894     A.U. after   13 cycles
 SCF Done:  E(RM062X) =  -962.144976025     A.U. after   13 cycles
 SCF Done:  E(RM062X) =  -962.144978486     A.U. after   12 cycles
 SCF Done:  E(RM062X) =  -962.144978919     A.U. after    8 cycles

 Isotropic polarizability for W=    0.000000       43.47 Bohr**3.
 End of Minotr F.D. properties file   721 does not exist.

 Optimization completed.
    -- Stationary point found.

                          Input orientation:
 ---------------------------------------------------------------------
 Center     Atomic      Atomic             Coordinates (Angstroms)
 Number     Number       Type             X           Y           Z
 ---------------------------------------------------------------------
      1          6           0        2.052111    0.078125   -2.061957
      2          9           0        3.151202    0.799908   -1.863787
      3          9           0        1.206882    0.828881   -2.768027
      4          9           0        2.363748   -0.988150   -2.772988
      5         16           0        1.093495    0.791391    0.302215
      6          8           0        1.495607   -0.332971   -0.899612
      7          8           0        2.261748    0.881381    1.122181
      8          8           0        0.068291   -0.226787    0.959739
      9          1           0        0.498071   -1.069633    1.183294
 ---------------------------------------------------------------------

                      1                      2                      3
                      A                      A                      A
 Frequencies --     22.4492                49.2977               149.7036
 Red. masses --     13.2118                16.0728                11.4941
 Frc consts  --      0.0039                 0.0230                 0.1518
 IR Inten    --      0.9321                 0.3009                 1.0569

                      4                      5                      6
                      A                      A                      A
 Frequencies --    233.1563               316.7735               357.2986
 Red. masses --      1.4620                15.9462                 4.9882
 Frc consts  --      0.0468                 0.9428                 0.3752
 IR Inten    --     56.2618                 1.1427                13.9055

                      7                      8                      9
                      A                      A                      A
 Frequencies --    430.9123               472.7236               513.2442
 Red. masses --      8.3901                10.4090                 6.9142
 Frc consts  --      0.9179                 1.3705                 1.0731
 IR Inten    --     35.0217                48.0093                61.7216

                     10                     11                     12
                      A                      A                      A
 Frequencies --    558.6633               636.9695               691.8711
 Red. masses --     13.8245                17.1602                14.1400
 Frc consts  --      2.5421                 4.1021                 3.9879
 IR Inten    --     75.6838                 8.9451                 9.4138

                     13                     14                     15
                      A                      A                      A
 Frequencies --    759.2806               873.0269               982.9708
 Red. masses --     17.1218                13.8011                16.7382
 Frc consts  --      5.8157                 6.1975                 9.5288
 IR Inten    --    150.9590               220.4821                36.4969

                     16                     17                     18
                      A                      A                      A
 Frequencies --   1128.9928              1250.3105              1265.7400
 Red. masses --      1.3165                13.0438                 7.7373
 Frc consts  --      0.9887                12.0141                 7.3035
 IR Inten    --    155.7027               283.5851               529.8025

                     19                     20                     21
                      A                      A                      A
 Frequencies --   1320.4701              1343.9234              3741.3181
 Red. masses --     13.0521                15.8410                 1.0647
 Frc consts  --     13.4087                16.8570                 8.7804
 IR Inten    --    502.4897               249.3824               122.5992

 - Thermochemistry -
 -------------------
 Temperature   298.150 Kelvin.  Pressure   1.00000 Atm.
 Atom     1 has atomic number  6 and mass  12.00000

 Molecular mass:   149.95985 amu.
 Principal axes and moments of inertia in atomic units:
                           1         2         3
     Eigenvalues --   518.625581532.423491676.21592
           X           -0.33429   0.81983  -0.46489
           Y            0.11652   0.52543   0.84282
           Z            0.93524   0.22758  -0.27117
 This molecule is an asymmetric top.
 Rotational symmetry number  1.
 Warning -- assumption of classical behavior for rotation
           may cause significant error
 Rotational temperatures (Kelvin)      0.16701     0.05652     0.05167
 Rotational constants (GHZ):           3.47985     1.17770     1.07668
 Zero-point vibrational energy     102275.3 (Joules/Mol)
                                   24.44439 (Kcal/Mol)
 Warning -- explicit consideration of  10 degrees of freedom as
           vibrations may cause significant error
 Vibrational temperatures:     32.30    70.93   215.39   335.46   455.77
          (Kelvin)            514.07   619.99   680.14   738.44   803.79
                              916.46   995.45  1092.44  1256.09  1414.28
                             1624.37  1798.92  1821.12  1899.86  1933.61
                             5382.92

 Zero-point correction=                           0.038955 (Hartree/Particle)
 Thermal correction to Energy=                    0.046864
 Thermal correction to Enthalpy=                  0.047808
 Thermal correction to Gibbs Free Energy=         0.004117
 Sum of electronic and zero-point Energies=           -962.106024
 Sum of electronic and thermal Energies=              -962.098115
 Sum of electronic and thermal Enthalpies=            -962.097170
 Sum of electronic and thermal Free Energies=         -962.140862

                     E (Thermal)             CV                S
                      KCal/Mol        Cal/Mol-Kelvin    Cal/Mol-Kelvin
 Total                   29.408             26.191             91.957
 Electronic               0.000              0.000              0.000
 Translational            0.889              2.981             40.926
 Rotational               0.889              2.981             28.679
 Vibrational             27.630             20.229             22.352
 Vibration     1          0.593              1.985              6.405
 Vibration     2          0.595              1.978              4.845
 Vibration     3          0.618              1.903              2.676
 Vibration     4          0.654              1.790              1.855
 Vibration     5          0.704              1.642              1.327
 Vibration     6          0.732              1.560              1.134
 Vibration     7          0.792              1.403              0.856
 Vibration     8          0.830              1.311              0.730
 Vibration     9          0.868              1.221              0.626
 Vibration    10          0.914              1.121              0.527

 Normal termination of Gaussian 16 at Sun May 25 04:08:35 2025.
