 Gaussian 16, Revision C.01,
 Gaussian 16:  ES64L-G16RevC.01  3-Jul-2019

 -----------------------------------------------------------------
 #P M062X/Def2TZVPP Symm(None) scf(xqc) pop(None) freq opt(CalcFC)
 -----------------------------------------------------------------

 ------------------------------
 Gaussian input prepared by ASE
 ------------------------------
 Symbolic Z-matrix:
 Charge =  0 Multiplicity = 1

 SCF Done:  E(RM062X) =  -962.007711433     A.U. after   15 cycles
 SCF Done:  E(RM062X) =  -962.007770440     A.U. after   13 cycles
 SCF Done:  E(RM062X) =  -962.007770687     A.U. after    8 cycles
 Optimization completed.
    -- Stationary point found.
 Normal termination of Gaussian 16 at Sun May 25 05:08:26 2025.

 ---------------------------------------------------------------------
 #P Geom=AllCheck Guess=TCheck SCRF=Check GenChk RM062X/def2TZVPP Freq
 ---------------------------------------------------------------------

 Structure from the checkpoint file:  "1502984803620600000001_r13_insertion_ROR_9_8_5_6_IRC_F_prod.chk"
 ------------------------------
 Gaussian input prepared by ASE
 ------------------------------
 Charge =  0 Multiplicity = 1

                          Input orientation:
 ---------------------------------------------------------------------
 Center     Atomic      Atomic             Coordinates (Angstroms)
 Number     Number       Type             X           Y           Z
 ---------------------------------------------------------------------
      1          6           0        0.851197   -0.260278    0.596581
      2          9           0        1.132795   -1.395645   -0.008228
      3          9           0        0.370681   -0.506304    1.808495
      4          9           0        1.959187    0.457605    0.711844
      5         16           0       -0.370042    0.777429   -0.377629
      6          8           0       -2.668395   -0.048034   -0.715391
      7          8           0        0.230372    0.930986   -1.679973
      8          8           0       -1.380532   -0.528050   -0.353385
      9          1           0       -3.149486   -0.149639    0.116210
 ---------------------------------------------------------------------

 SCF Done:  E(RM062X) =  -962.007770687     A.U. after    1 cycles

 Isotropic polarizability for W=    0.000000       46.68 Bohr**3.
 End of Minotr F.D. properties file   721 does not exist.

                      1                      2                      3
                      A                      A                      A
 Frequencies --     58.8819                89.0356               163.9212
 Red. masses --     13.7873                 7.2672                17.2942
 Frc consts  --      0.0282                 0.0339                 0.2738
 IR Inten    --      1.3732                 6.0158                 3.7754

                      4                      5                      6
                      A                      A                      A
 Frequencies --    200.3301               282.3054               299.4044
 Red. masses --     15.4293                 1.4658                 3.6373
 Frc consts  --      0.3648                 0.0688                 0.1921
 IR Inten    --      3.7547                70.6827                30.9506

                      7                      8                      9
                      A                      A                      A
 Frequencies --    321.2882               341.4261               450.5545
 Red. masses --     17.3892                13.1814                13.6061
 Frc consts  --      1.0576                 0.9053                 1.6273
 IR Inten    --      5.5263                 0.6501                31.8239

                     10                     11                     12
                      A                      A                      A
 Frequencies --    501.6767               552.6753               591.6491
 Red. masses --     19.1522                17.6455                18.1401
 Frc consts  --      2.8400                 3.1756                 3.7413
 IR Inten    --     29.8856                 4.1975                25.3170

                     13                     14                     15
                      A                      A                      A
 Frequencies --    773.3556               784.6009              1030.0133
 Red. masses --     17.3837                17.7460                14.8756
 Frc consts  --      6.1256                 6.4365                 9.2984
 IR Inten    --     34.9619                78.2364                 1.2466

                     16                     17                     18
                      A                      A                      A
 Frequencies --   1184.0235              1257.7337              1288.6404
 Red. masses --     13.7161                14.1907                14.0302
 Frc consts  --     11.3293                13.2261                13.7271
 IR Inten    --    322.2390                65.2729               230.9957

                     19                     20                     21
                      A                      A                      A
 Frequencies --   1301.6847              1426.7187              3817.7724
 Red. masses --     15.9742                 1.1132                 1.0685
 Frc consts  --     15.9471                 1.3350                 9.1759
 IR Inten    --    332.8013                66.9441                93.4803

 - Thermochemistry -
 -------------------
 Temperature   298.150 Kelvin.  Pressure   1.00000 Atm.
 Atom     1 has atomic number  6 and mass  12.00000

 Molecular mass:   149.95985 amu.
 Principal axes and moments of inertia in atomic units:
                           1         2         3
     Eigenvalues --   635.169841300.061551553.74364
           X            0.88627  -0.42358  -0.18736
           Y           -0.12837  -0.61331   0.77934
           Z            0.44502   0.66666   0.59793
 This molecule is an asymmetric top.
 Rotational symmetry number  1.
 Warning -- assumption of classical behavior for rotation
           may cause significant error
 Rotational temperatures (Kelvin)      0.13636     0.06662     0.05575
 Rotational constants (GHZ):           2.84135     1.38820     1.16154
 Zero-point vibrational energy      99994.0 (Joules/Mol)
                                   23.89914 (Kcal/Mol)
 Warning -- explicit consideration of  12 degrees of freedom as
           vibrations may cause significant error
 Vibrational temperatures:     84.72   128.10   235.85   288.23   406.17
          (Kelvin)            430.78   462.26   491.24   648.25   721.80
                              795.18   851.25  1112.69  1128.87  1481.96
                             1703.55  1809.60  1854.07  1872.83  2052.73
                             5492.92

 Zero-point correction=                           0.038086 (Hartree/Particle)
 Thermal correction to Energy=                    0.046401
 Thermal correction to Enthalpy=                  0.047345
 Thermal correction to Gibbs Free Energy=         0.004128
 Sum of electronic and zero-point Energies=           -961.969685
 Sum of electronic and thermal Energies=              -961.961370
 Sum of electronic and thermal Enthalpies=            -961.960426
 Sum of electronic and thermal Free Energies=         -962.003643

                     E (Thermal)             CV                S
                      KCal/Mol        Cal/Mol-Kelvin    Cal/Mol-Kelvin
 Total                   29.117             27.515             90.958
 Electronic               0.000              0.000              0.000
 Translational            0.889              2.981             40.926
 Rotational               0.889              2.981             28.641
 Vibrational             27.339             21.554             21.391
 Vibration     1          0.596              1.974              4.494
 Vibration     2          0.602              1.957              3.681
 Vibration     3          0.623              1.887              2.504
 Vibration     4          0.638              1.839              2.130
 Vibration     5          0.681              1.706              1.520
 Vibration     6          0.692              1.675              1.420
 Vibration     7          0.707              1.633              1.304
 Vibration     8          0.721              1.593              1.205
 Vibration     9          0.809              1.360              0.794
 Vibration    10          0.857              1.246              0.654
 Vibration    11          0.908              1.134              0.539
 Vibration    12          0.949              1.050              0.464

 Optimization completed.
    -- Stationary point found.
 Normal termination of Gaussian 16 at Sun May 25 05:09:48 2025.
