 Gaussian 16, Revision C.01,
 Gaussian 16:  ES64L-G16RevC.01  3-Jul-2019

 ----------------------------------------------------------------------
 #P M062X/Def2TZVPP Symm(None) scf(xqc) pop(None) geom(AllCheck,NoKeepC
 onstants) guess(Read) irc(RCFC,forward,MaxPoints=100,StepSize=2)
 ----------------------------------------------------------------------

 Structure from the checkpoint file:  "1502984803620600000001_r12_insertion_R_6_5_1_IRC_F.chk"
 ------------------------------
 Gaussian input prepared by ASE
 ------------------------------
 Charge =  0 Multiplicity = 1

 SCF Done:  E(RM062X) =  -962.115955496     A.U. after    8 cycles
 SCF Done:  E(RM062X) =  -962.115961515     A.U. after    9 cycles
 SCF Done:  E(RM062X) =  -962.115971653     A.U. after    8 cycles
 SCF Done:  E(RM062X) =  -962.115985934     A.U. after    8 cycles
 SCF Done:  E(RM062X) =  -962.116004370     A.U. after    8 cycles
 SCF Done:  E(RM062X) =  -962.116026954     A.U. after    8 cycles
 SCF Done:  E(RM062X) =  -962.116053671     A.U. after    8 cycles
 SCF Done:  E(RM062X) =  -962.116084490     A.U. after    9 cycles
 SCF Done:  E(RM062X) =  -962.116119374     A.U. after    9 cycles
 SCF Done:  E(RM062X) =  -962.116158271     A.U. after    9 cycles
 SCF Done:  E(RM062X) =  -962.124494850     A.U. after    9 cycles
 SCF Done:  E(RM062X) =  -962.124567859     A.U. after    9 cycles
 SCF Done:  E(RM062X) =  -962.124638634     A.U. after    9 cycles
 SCF Done:  E(RM062X) =  -962.124707224     A.U. after    9 cycles
 SCF Done:  E(RM062X) =  -962.124773716     A.U. after    9 cycles
 SCF Done:  E(RM062X) =  -962.124838193     A.U. after    9 cycles
 SCF Done:  E(RM062X) =  -962.124900703     A.U. after    9 cycles
 SCF Done:  E(RM062X) =  -962.124961244     A.U. after    9 cycles
 SCF Done:  E(RM062X) =  -962.125019773     A.U. after    9 cycles
 SCF Done:  E(RM062X) =  -962.125076214     A.U. after    8 cycles

                          Input orientation:
 ---------------------------------------------------------------------
 Center     Atomic      Atomic             Coordinates (Angstroms)
 Number     Number       Type             X           Y           Z
 ---------------------------------------------------------------------
      1          6           0       -0.941504   -0.051875    0.038625
      2          9           0       -1.403555    0.518461   -1.069946
      3          9           0       -1.354613    0.644758    1.079732
      4          9           0       -1.392876   -1.286714    0.118391
      5         16           0        0.898988   -0.083390   -0.019064
      6          8           0        1.360242   -0.537890    1.234799
      7          8           0        1.256100   -0.691337   -1.248782
      8          8           0        1.163533    1.466433   -0.070168
      9          1           0        0.956333    1.824690   -0.945903
 ---------------------------------------------------------------------

 Normal termination of Gaussian 16 at Sun May 25 04:17:50 2025.
