 Gaussian 16, Revision C.01,
 Gaussian 16:  ES64L-G16RevC.01  3-Jul-2019

 ----------------------------------------------------------------------
 #P M062X/Def2TZVPP Symm(None) scf(xqc) pop(None) opt(NoFreeze,TS,CalcA
 ll,NoEigentest,MaxCycle=999)
 ----------------------------------------------------------------------

 ------------------------------
 Gaussian input prepared by ASE
 ------------------------------
 Symbolic Z-matrix:
 Charge =  0 Multiplicity = 1

 SCF Done:  E(RM062X) =  -961.629794887     A.U. after   15 cycles
 SCF Done:  E(RM062X) =  -961.781983784     A.U. after   15 cycles
 SCF Done:  E(RM062X) =  -961.973053181     A.U. after   13 cycles
 SCF Done:  E(RM062X) =  -962.051423252     A.U. after   13 cycles
 SCF Done:  E(RM062X) =  -962.068246389     A.U. after   12 cycles
 SCF Done:  E(RM062X) =  -962.069685431     A.U. after   11 cycles
 SCF Done:  E(RM062X) =  -962.069704239     A.U. after   10 cycles

 Isotropic polarizability for W=    0.000000       41.72 Bohr**3.
 End of Minotr F.D. properties file   721 does not exist.

 Optimization completed.
    -- Stationary point found.

                          Input orientation:
 ---------------------------------------------------------------------
 Center     Atomic      Atomic             Coordinates (Angstroms)
 Number     Number       Type             X           Y           Z
 ---------------------------------------------------------------------
      1          6           0       -0.111104   -0.064308    0.101536
      2          9           0       -0.668050    0.655488   -0.852162
      3          9           0       -0.634268    0.259129    1.267818
      4          9           0       -0.305807   -1.346579   -0.135847
      5         16           0        1.700459    0.268343    0.145234
      6          8           0        2.242918   -0.524636    1.178468
      7          8           0        2.177402    0.121518   -1.267227
      8          8           0        1.841659    1.759530    0.165901
      9          1           0        2.227307    1.384351   -1.006843
 ---------------------------------------------------------------------

 ******    1 imaginary frequencies (negative Signs) ******

                      1                      2                      3
                      A                      A                      A
 Frequencies --  -1849.3649                53.6802               185.4469
 Red. masses --      1.0966                14.9524                17.0091
 Frc consts  --      2.2098                 0.0254                 0.3446
 IR Inten    --    633.6376                 0.1471                 2.7510

                      4                      5                      6
                      A                      A                      A
 Frequencies --    192.5631               305.7995               326.8159
 Red. masses --     12.6828                13.9168                17.2678
 Frc consts  --      0.2771                 0.7668                 1.0867
 IR Inten    --      2.8018                 0.8132                 0.4231

                      7                      8                      9
                      A                      A                      A
 Frequencies --    356.9906               484.0295               552.9129
 Red. masses --     16.9142                18.1607                12.4765
 Frc consts  --      1.2700                 2.5068                 2.2473
 IR Inten    --      0.8026                20.1509                20.9852

                     10                     11                     12
                      A                      A                      A
 Frequencies --    572.6958               575.3926               711.8340
 Red. masses --     17.9321                10.5329                15.6304
 Frc consts  --      3.4652                 2.0546                 4.6663
 IR Inten    --      0.5454                30.9838               110.7798

                     13                     14                     15
                      A                      A                      A
 Frequencies --    802.9215               969.7403              1060.9800
 Red. masses --     11.9560                 1.2208                14.2396
 Frc consts  --      4.5413                 0.6764                 9.4441
 IR Inten    --      3.8601               103.9162               206.7207

                     16                     17                     18
                      A                      A                      A
 Frequencies --   1203.2610              1245.9651              1296.7598
 Red. masses --     10.5647                13.9011                13.2283
 Frc consts  --      9.0122                12.7149                13.1061
 IR Inten    --    301.9468               103.0523               315.5356

                     19                     20                     21
                      A                      A                      A
 Frequencies --   1301.4594              1441.6631              2203.5403
 Red. masses --     13.0882                17.1871                 1.0293
 Frc consts  --     13.0615                21.0465                 2.9448
 IR Inten    --    187.4241               343.7015               151.3876

 - Thermochemistry -
 -------------------
 Temperature   298.150 Kelvin.  Pressure   1.00000 Atm.
 Atom     1 has atomic number  6 and mass  12.00000

 Molecular mass:   149.95985 amu.
 Principal axes and moments of inertia in atomic units:
                           1         2         3
     Eigenvalues --   658.698531119.437111185.21317
           X            0.96853   0.19690  -0.15222
           Y            0.24345  -0.62257   0.74373
           Z           -0.05168   0.75739   0.65092
 This molecule is an asymmetric top.
 Rotational symmetry number  1.
 Warning -- assumption of classical behavior for rotation
           may cause significant error
 Rotational temperatures (Kelvin)      0.13149     0.07737     0.07308
 Rotational constants (GHZ):           2.73986     1.61219     1.52271
    1 imaginary frequencies ignored.
 Zero-point vibrational energy      94770.9 (Joules/Mol)
                                   22.65078 (Kcal/Mol)
 Warning -- explicit consideration of  10 degrees of freedom as
           vibrations may cause significant error
 Vibrational temperatures:     77.23   266.82   277.06   439.98   470.22
          (Kelvin)            513.63   696.41   795.52   823.98   827.86
                             1024.17  1155.22  1395.24  1526.51  1731.22
                             1792.67  1865.75  1872.51  2074.23  3170.40

 Zero-point correction=                           0.036096 (Hartree/Particle)
 Thermal correction to Energy=                    0.043156
 Thermal correction to Enthalpy=                  0.044100
 Thermal correction to Gibbs Free Energy=         0.003625
 Sum of electronic and zero-point Energies=           -962.033608
 Sum of electronic and thermal Energies=              -962.026548
 Sum of electronic and thermal Enthalpies=            -962.025604
 Sum of electronic and thermal Free Energies=         -962.066079

                     E (Thermal)             CV                S
                      KCal/Mol        Cal/Mol-Kelvin    Cal/Mol-Kelvin
 Total                   27.081             24.040             85.186
 Electronic               0.000              0.000              0.000
 Translational            0.889              2.981             40.926
 Rotational               0.889              2.981             28.260
 Vibrational             25.303             18.078             16.001
 Vibration     1          0.596              1.976              4.677
 Vibration     2          0.632              1.860              2.273
 Vibration     3          0.635              1.850              2.203
 Vibration     4          0.696              1.663              1.385
 Vibration     5          0.710              1.622              1.276
 Vibration     6          0.732              1.561              1.135
 Vibration     7          0.840              1.285              0.699
 Vibration     8          0.908              1.133              0.538
 Vibration     9          0.929              1.090              0.499
 Vibration    10          0.932              1.084              0.494

 Normal termination of Gaussian 16 at Sun May 25 03:43:17 2025.
