 Gaussian 16, Revision C.01,
 Gaussian 16:  ES64L-G16RevC.01  3-Jul-2019

 -----------------------------------------------------------------
 #P M062X/Def2TZVPP Symm(None) scf(xqc) pop(None) freq opt(CalcFC)
 -----------------------------------------------------------------

 ------------------------------
 Gaussian input prepared by ASE
 ------------------------------
 Symbolic Z-matrix:
 Charge =  0 Multiplicity = 1

 SCF Done:  E(RM062X) =  -962.120766716     A.U. after   13 cycles
 SCF Done:  E(RM062X) =  -962.121230559     A.U. after   12 cycles
 SCF Done:  E(RM062X) =  -962.122755327     A.U. after   12 cycles
 SCF Done:  E(RM062X) =  -962.125119608     A.U. after   13 cycles
 SCF Done:  E(RM062X) =  -962.122207701     A.U. after   14 cycles
 SCF Done:  E(RM062X) =  -962.125845893     A.U. after   12 cycles
 SCF Done:  E(RM062X) =  -962.125885637     A.U. after    9 cycles
 SCF Done:  E(RM062X) =  -962.125889045     A.U. after    8 cycles
 Optimization completed.
    -- Stationary point found.
 Normal termination of Gaussian 16 at Sun May 25 04:08:46 2025.

 ---------------------------------------------------------------------
 #P Geom=AllCheck Guess=TCheck SCRF=Check GenChk RM062X/def2TZVPP Freq
 ---------------------------------------------------------------------

 Structure from the checkpoint file:  "1502984803620600000001_Intra_Diels_alder_R_6_7_IRC_R_prod.chk"
 ------------------------------
 Gaussian input prepared by ASE
 ------------------------------
 Charge =  0 Multiplicity = 1

                          Input orientation:
 ---------------------------------------------------------------------
 Center     Atomic      Atomic             Coordinates (Angstroms)
 Number     Number       Type             X           Y           Z
 ---------------------------------------------------------------------
      1          6           0       -0.933755   -0.099792    0.055815
      2          9           0       -1.537939    0.960783    0.554814
      3          9           0       -1.263713   -1.169336    0.753363
      4          9           0       -1.308500   -0.262710   -1.205880
      5         16           0        0.892503    0.114172    0.122626
      6          8           0        1.459731   -1.014002   -0.524440
      7          8           0        1.217917    0.512777    1.436767
      8          8           0        1.034585    1.373199   -0.808936
      9          1           0        1.190075    1.094829   -1.723002
 ---------------------------------------------------------------------

 SCF Done:  E(RM062X) =  -962.125889045     A.U. after    1 cycles

 Isotropic polarizability for W=    0.000000       41.22 Bohr**3.
 End of Minotr F.D. properties file   721 does not exist.

                      1                      2                      3
                      A                      A                      A
 Frequencies --     59.7957               186.1747               192.6921
 Red. masses --     13.3964                 6.8716                15.4929
 Frc consts  --      0.0282                 0.1403                 0.3389
 IR Inten    --      1.4422                10.3939                 3.6727

                      4                      5                      6
                      A                      A                      A
 Frequencies --    309.5213               317.7439               342.1609
 Red. masses --      8.4867                 2.7002                13.2750
 Frc consts  --      0.4790                 0.1606                 0.9157
 IR Inten    --      2.2552                37.8407                 1.9011

                      7                      8                      9
                      A                      A                      A
 Frequencies --    369.5715               469.5467               506.7642
 Red. masses --      2.3972                 4.5998                15.1044
 Frc consts  --      0.1929                 0.5975                 2.2854
 IR Inten    --     42.6051                26.5995                26.6200

                     10                     11                     12
                      A                      A                      A
 Frequencies --    571.2178               576.9871               631.3343
 Red. masses --     15.6819                16.4097                20.0007
 Frc consts  --      3.0148                 3.2187                 4.6969
 IR Inten    --      0.8807                 2.7659               159.1658

                     13                     14                     15
                      A                      A                      A
 Frequencies --    794.4901               906.8480              1136.8580
 Red. masses --     17.7097                17.6381                 1.1850
 Frc consts  --      6.5862                 8.5462                 0.9023
 IR Inten    --      3.7486               218.0870                86.2103

                     16                     17                     18
                      A                      A                      A
 Frequencies --   1197.7503              1275.2935              1296.0289
 Red. masses --     14.8076                13.4014                13.4288
 Frc consts  --     12.5160                12.8416                13.2898
 IR Inten    --    265.9060               160.5175               125.0897

                     19                     20                     21
                      A                      A                      A
 Frequencies --   1308.1255              1503.2389              3811.7693
 Red. masses --     15.1406                15.4371                 1.0657
 Frc consts  --     15.2648                20.5528                 9.1230
 IR Inten    --    247.1431               292.0235               186.0429

 - Thermochemistry -
 -------------------
 Temperature   298.150 Kelvin.  Pressure   1.00000 Atm.
 Atom     1 has atomic number  6 and mass  12.00000

 Molecular mass:   149.95985 amu.
 Principal axes and moments of inertia in atomic units:
                           1         2         3
     Eigenvalues --   673.828311131.919801139.38240
           X            0.98618  -0.00997  -0.16539
           Y            0.16545   0.11207   0.97983
           Z           -0.00877   0.99365  -0.11217
 This molecule is an asymmetric top.
 Rotational symmetry number  1.
 Warning -- assumption of classical behavior for rotation
           may cause significant error
 Rotational temperatures (Kelvin)      0.12854     0.07652     0.07602
 Rotational constants (GHZ):           2.67834     1.59441     1.58396
 Zero-point vibrational energy     106251.8 (Joules/Mol)
                                   25.39479 (Kcal/Mol)
 Warning -- explicit consideration of  11 degrees of freedom as
           vibrations may cause significant error
 Vibrational temperatures:     86.03   267.86   277.24   445.33   457.16
          (Kelvin)            492.29   531.73   675.57   729.12   821.86
                              830.16   908.35  1143.09  1304.75  1635.69
                             1723.30  1834.86  1864.70  1882.10  2162.83
                             5484.29

 Zero-point correction=                           0.040469 (Hartree/Particle)
 Thermal correction to Energy=                    0.047959
 Thermal correction to Enthalpy=                  0.048903
 Thermal correction to Gibbs Free Energy=         0.007855
 Sum of electronic and zero-point Energies=           -962.085420
 Sum of electronic and thermal Energies=              -962.077930
 Sum of electronic and thermal Enthalpies=            -962.076986
 Sum of electronic and thermal Free Energies=         -962.118034

                     E (Thermal)             CV                S
                      KCal/Mol        Cal/Mol-Kelvin    Cal/Mol-Kelvin
 Total                   30.094             25.894             86.392
 Electronic               0.000              0.000              0.000
 Translational            0.889              2.981             40.926
 Rotational               0.889              2.981             28.254
 Vibrational             28.317             19.932             17.212
 Vibration     1          0.597              1.973              4.464
 Vibration     2          0.632              1.859              2.266
 Vibration     3          0.635              1.850              2.202
 Vibration     4          0.699              1.656              1.365
 Vibration     5          0.704              1.640              1.322
 Vibration     6          0.721              1.591              1.202
 Vibration     7          0.742              1.535              1.082
 Vibration     8          0.827              1.318              0.739
 Vibration     9          0.862              1.235              0.641
 Vibration    10          0.927              1.094              0.502
 Vibration    11          0.933              1.081              0.491

 Optimization completed.
    -- Stationary point found.
 Normal termination of Gaussian 16 at Sun May 25 04:10:42 2025.
