 Gaussian 16, Revision C.01,
 Gaussian 16:  ES64L-G16RevC.01  3-Jul-2019

 ----------------------------------------------------------------------
 #P M062X/Def2TZVPP Symm(None) scf(xqc) pop(None) geom(AllCheck,NoKeepC
 onstants) guess(Read) irc(RCFC,reverse,MaxPoints=100,StepSize=2)
 ----------------------------------------------------------------------

 Structure from the checkpoint file:  "1502984803620600000001_r12_insertion_R_6_5_8_IRC_R.chk"
 ------------------------------
 Gaussian input prepared by ASE
 ------------------------------
 Charge =  0 Multiplicity = 1

 SCF Done:  E(RM062X) =  -962.120764363     A.U. after    8 cycles

                          Input orientation:
 ---------------------------------------------------------------------
 Center     Atomic      Atomic             Coordinates (Angstroms)
 Number     Number       Type             X           Y           Z
 ---------------------------------------------------------------------
      1          6           0       -0.958297   -0.126642    0.047535
      2          9           0       -1.513796    1.040683   -0.236381
      3          9           0       -1.337008   -0.509515    1.248378
      4          9           0       -1.351578   -1.016869   -0.843076
      5         16           0        0.911410    0.004963    0.001204
      6          8           0        1.359760   -0.096461    1.336011
      7          8           0        1.356164   -0.842136   -1.047235
      8          8           0        1.098545    1.502178   -0.439160
      9          1           0        1.177150    1.561928   -1.401811
 ---------------------------------------------------------------------

 Normal termination of Gaussian 16 at Sun May 25 04:13:10 2025.
