 Gaussian 16, Revision C.01,
 Gaussian 16:  ES64L-G16RevC.01  3-Jul-2019

 -----------------------------------------------------------------
 #P M062X/Def2TZVPP Symm(None) scf(xqc) pop(None) freq opt(CalcFC)
 -----------------------------------------------------------------

 ------------------------------
 Gaussian input prepared by ASE
 ------------------------------
 Symbolic Z-matrix:
 Charge =  0 Multiplicity = 1

 SCF Done:  E(RM062X) =  -962.121527952     A.U. after   13 cycles
 SCF Done:  E(RM062X) =  -962.122007682     A.U. after   12 cycles
 SCF Done:  E(RM062X) =  -962.123555535     A.U. after   12 cycles
 SCF Done:  E(RM062X) =  -962.125570750     A.U. after   13 cycles
 SCF Done:  E(RM062X) =  -962.125865215     A.U. after   11 cycles
 SCF Done:  E(RM062X) =  -962.125884384     A.U. after   10 cycles
 SCF Done:  E(RM062X) =  -962.125889088     A.U. after    9 cycles
 SCF Done:  E(RM062X) =  -962.125889858     A.U. after    8 cycles
 Optimization completed.
    -- Stationary point found.
 Normal termination of Gaussian 16 at Sun May 25 03:45:41 2025.

 ---------------------------------------------------------------------
 #P Geom=AllCheck Guess=TCheck SCRF=Check GenChk RM062X/def2TZVPP Freq
 ---------------------------------------------------------------------

 Structure from the checkpoint file:  "1502984803620600000001_r12_insertion_R_8_5_1_IRC_R_prod.chk"
 ------------------------------
 Gaussian input prepared by ASE
 ------------------------------
 Charge =  0 Multiplicity = 1

                          Input orientation:
 ---------------------------------------------------------------------
 Center     Atomic      Atomic             Coordinates (Angstroms)
 Number     Number       Type             X           Y           Z
 ---------------------------------------------------------------------
      1          6           0       -0.870415   -0.139828    0.050476
      2          9           0       -1.506375    0.230831   -1.043661
      3          9           0       -1.238571    0.642604    1.056048
      4          9           0       -1.169176   -1.392150    0.336426
      5         16           0        0.948599   -0.002037   -0.190617
      6          8           0        1.551232   -0.317496    1.054654
      7          8           0        1.258882   -0.656168   -1.402092
      8          8           0        1.054672    1.546721   -0.441680
      9          1           0        1.220627    2.008448    0.392875
 ---------------------------------------------------------------------

 SCF Done:  E(RM062X) =  -962.125889858     A.U. after    1 cycles

 Isotropic polarizability for W=    0.000000       41.22 Bohr**3.
 End of Minotr F.D. properties file   721 does not exist.

                      1                      2                      3
                      A                      A                      A
 Frequencies --     59.2131               185.7209               193.5824
 Red. masses --     13.4087                 6.5175                16.4200
 Frc consts  --      0.0277                 0.1325                 0.3625
 IR Inten    --      1.4412                11.3148                 3.2462

                      4                      5                      6
                      A                      A                      A
 Frequencies --    309.1890               314.6888               342.2942
 Red. masses --      5.7083                 2.8394                13.6868
 Frc consts  --      0.3215                 0.1657                 0.9448
 IR Inten    --      6.5262                38.1990                 1.6099

                      7                      8                      9
                      A                      A                      A
 Frequencies --    367.7041               469.9419               507.0851
 Red. masses --      2.6452                 4.6397                15.1472
 Frc consts  --      0.2107                 0.6037                 2.2948
 IR Inten    --     38.0742                26.1477                26.5760

                     10                     11                     12
                      A                      A                      A
 Frequencies --    571.0216               577.0237               632.3289
 Red. masses --     15.7181                16.3230                20.0112
 Frc consts  --      3.0196                 3.2021                 4.7142
 IR Inten    --      0.8189                 2.8820               158.6575

                     13                     14                     15
                      A                      A                      A
 Frequencies --    794.4851               906.1484              1136.4857
 Red. masses --     17.7147                17.6573                 1.1843
 Frc consts  --      6.5880                 8.5423                 0.9012
 IR Inten    --      3.7742               218.1553                86.9549

                     16                     17                     18
                      A                      A                      A
 Frequencies --   1198.2011              1275.7784              1294.9411
 Red. masses --     14.8410                13.3711                13.3779
 Frc consts  --     12.5537                12.8224                13.2172
 IR Inten    --    264.7257               164.4460               132.8143

                     19                     20                     21
                      A                      A                      A
 Frequencies --   1308.3729              1504.0949              3812.2870
 Red. masses --     15.2989                15.4687                 1.0657
 Frc consts  --     15.4302                20.6184                 9.1254
 IR Inten    --    235.6144               292.4879               186.2830

 - Thermochemistry -
 -------------------
 Temperature   298.150 Kelvin.  Pressure   1.00000 Atm.
 Atom     1 has atomic number  6 and mass  12.00000

 Molecular mass:   149.95985 amu.
 Principal axes and moments of inertia in atomic units:
                           1         2         3
     Eigenvalues --   673.853411132.004691139.44119
           X            0.98080   0.01529  -0.19442
           Y            0.14132   0.63127   0.76258
           Z           -0.13439   0.77541  -0.61699
 This molecule is an asymmetric top.
 Rotational symmetry number  1.
 Warning -- assumption of classical behavior for rotation
           may cause significant error
 Rotational temperatures (Kelvin)      0.12854     0.07651     0.07601
 Rotational constants (GHZ):           2.67824     1.59429     1.58388
 Zero-point vibrational energy     106231.9 (Joules/Mol)
                                   25.39004 (Kcal/Mol)
 Warning -- explicit consideration of  11 degrees of freedom as
           vibrations may cause significant error
 Vibrational temperatures:     85.19   267.21   278.52   444.85   452.77
          (Kelvin)            492.49   529.04   676.14   729.58   821.57
                              830.21   909.78  1143.09  1303.75  1635.15
                             1723.94  1835.56  1863.13  1882.46  2164.06
                             5485.03

 Zero-point correction=                           0.040462 (Hartree/Particle)
 Thermal correction to Energy=                    0.047957
 Thermal correction to Enthalpy=                  0.048901
 Thermal correction to Gibbs Free Energy=         0.007835
 Sum of electronic and zero-point Energies=           -962.085428
 Sum of electronic and thermal Energies=              -962.077933
 Sum of electronic and thermal Enthalpies=            -962.076989
 Sum of electronic and thermal Free Energies=         -962.118055

                     E (Thermal)             CV                S
                      KCal/Mol        Cal/Mol-Kelvin    Cal/Mol-Kelvin
 Total                   30.093             25.901             86.430
 Electronic               0.000              0.000              0.000
 Translational            0.889              2.981             40.926
 Rotational               0.889              2.981             28.254
 Vibrational             28.316             19.940             17.250
 Vibration     1          0.597              1.974              4.483
 Vibration     2          0.632              1.859              2.270
 Vibration     3          0.635              1.849              2.193
 Vibration     4          0.699              1.656              1.367
 Vibration     5          0.702              1.646              1.338
 Vibration     6          0.721              1.591              1.201
 Vibration     7          0.740              1.539              1.089
 Vibration     8          0.827              1.317              0.738
 Vibration     9          0.862              1.234              0.641
 Vibration    10          0.927              1.094              0.502
 Vibration    11          0.933              1.081              0.491

 Optimization completed.
    -- Stationary point found.
 Normal termination of Gaussian 16 at Sun May 25 03:47:37 2025.
