 Gaussian 16, Revision C.01,
 Gaussian 16:  ES64L-G16RevC.01  3-Jul-2019

 ----------------------------------------------------------------------
 #P M062X/Def2TZVPP Symm(None) scf(xqc) pop(None) geom(AllCheck,NoKeepC
 onstants) guess(Read) irc(RCFC,reverse,MaxPoints=100,StepSize=2)
 ----------------------------------------------------------------------

 Structure from the checkpoint file:  "1502984803620600000001_r13_insertion_ROR_9_8_5_6_IRC_R.chk"
 ------------------------------
 Gaussian input prepared by ASE
 ------------------------------
 Charge =  0 Multiplicity = 1

 SCF Done:  E(RM062X) =  -961.921441496     A.U. after   13 cycles
 SCF Done:  E(RM062X) =  -961.921728985     A.U. after   15 cycles
 SCF Done:  E(RM062X) =  -961.922209102     A.U. after   15 cycles
 SCF Done:  E(RM062X) =  -961.922881173     A.U. after   15 cycles
 SCF Done:  E(RM062X) =  -961.923743229     A.U. after   15 cycles
 SCF Done:  E(RM062X) =  -961.924792044     A.U. after   15 cycles
 SCF Done:  E(RM062X) =  -961.926023210     A.U. after   15 cycles
 SCF Done:  E(RM062X) =  -961.927431210     A.U. after   15 cycles
 SCF Done:  E(RM062X) =  -961.929009512     A.U. after   15 cycles
 SCF Done:  E(RM062X) =  -961.930750677     A.U. after   15 cycles
 SCF Done:  E(RM062X) =  -962.130060551     A.U. after   10 cycles
 SCF Done:  E(RM062X) =  -962.130800774     A.U. after   10 cycles
 SCF Done:  E(RM062X) =  -962.131505143     A.U. after   10 cycles
 SCF Done:  E(RM062X) =  -962.132174981     A.U. after   10 cycles
 SCF Done:  E(RM062X) =  -962.132811456     A.U. after   10 cycles
 SCF Done:  E(RM062X) =  -962.133415602     A.U. after    9 cycles
 SCF Done:  E(RM062X) =  -962.133988328     A.U. after   10 cycles
 SCF Done:  E(RM062X) =  -962.134530439     A.U. after   10 cycles
 SCF Done:  E(RM062X) =  -962.135042644     A.U. after   10 cycles
 SCF Done:  E(RM062X) =  -962.135525576     A.U. after   10 cycles

                          Input orientation:
 ---------------------------------------------------------------------
 Center     Atomic      Atomic             Coordinates (Angstroms)
 Number     Number       Type             X           Y           Z
 ---------------------------------------------------------------------
      1          6           0        0.773377   -0.620399    0.681989
      2          9           0        1.359398   -1.719689    0.259133
      3          9           0        0.549555   -0.637656    1.990414
      4          9           0        1.620589    0.389282    0.469749
      5         16           0       -0.867667    0.929967   -0.538791
      6          8           0       -2.323748    0.416603   -0.969980
      7          8           0       -0.100243    1.053996   -1.733933
      8          8           0       -0.430058   -0.553567    0.052576
      9          1           0       -2.921911    0.430661   -0.210390
 ---------------------------------------------------------------------

 Normal termination of Gaussian 16 at Sun May 25 05:11:46 2025.
