 Gaussian 16, Revision C.01,
 Gaussian 16:  ES64L-G16RevC.01  3-Jul-2019

 ----------------------------------------------------------------------
 #P M062X/Def2TZVPP Symm(None) scf(xqc) pop(None) opt(NoFreeze,TS,CalcA
 ll,NoEigentest,MaxCycle=999)
 ----------------------------------------------------------------------

 ------------------------------
 Gaussian input prepared by ASE
 ------------------------------
 Symbolic Z-matrix:
 Charge =  0 Multiplicity = 1

 SCF Done:  E(RM062X) =  -962.043163205     A.U. after   13 cycles
 SCF Done:  E(RM062X) =  -962.096702712     A.U. after   12 cycles
 SCF Done:  E(RM062X) =  -962.118037752     A.U. after   12 cycles
 SCF Done:  E(RM062X) =  -962.121369537     A.U. after   11 cycles
 SCF Done:  E(RM062X) =  -962.121527034     A.U. after   10 cycles
 SCF Done:  E(RM062X) =  -962.121527351     A.U. after    7 cycles

 Isotropic polarizability for W=    0.000000       41.44 Bohr**3.
 End of Minotr F.D. properties file   721 does not exist.

 Optimization completed.
    -- Stationary point found.

                          Input orientation:
 ---------------------------------------------------------------------
 Center     Atomic      Atomic             Coordinates (Angstroms)
 Number     Number       Type             X           Y           Z
 ---------------------------------------------------------------------
      1          6           0       -0.125577   -0.107517    0.036481
      2          9           0       -0.709240    0.367572   -1.046574
      3          9           0       -0.598617    0.509137    1.102046
      4          9           0       -0.358946   -1.403506    0.133786
      5         16           0        1.699533    0.114464   -0.072017
      6          8           0        2.265352   -0.276460    1.167783
      7          8           0        2.139353   -0.444800   -1.298358
      8          8           0        1.636011    1.685856   -0.176033
      9          1           0        2.522642    2.068087   -0.250238
 ---------------------------------------------------------------------

 ******    1 imaginary frequencies (negative Signs) ******

                      1                      2                      3
                      A                      A                      A
 Frequencies --   -291.8542                60.1298               192.6005
 Red. masses --      1.0707                13.4102                15.3346
 Frc consts  --      0.0537                 0.0286                 0.3351
 IR Inten    --    109.9921                 1.5138                 0.3934

                      4                      5                      6
                      A                      A                      A
 Frequencies --    195.6895               310.1956               339.3131
 Red. masses --     10.4653                13.5719                17.1955
 Frc consts  --      0.2361                 0.7694                 1.1665
 IR Inten    --      2.5250                 2.1544                 1.0931

                      7                      8                      9
                      A                      A                      A
 Frequencies --    342.1987               484.5426               512.4793
 Red. masses --     13.3656                17.7877                13.6786
 Frc consts  --      0.9221                 2.4606                 2.1166
 IR Inten    --      2.8582                23.8004                33.9976

                     10                     11                     12
                      A                      A                      A
 Frequencies --    575.0401               577.0955               607.3986
 Red. masses --     17.9579                17.3907                 7.8774
 Frc consts  --      3.4987                 3.4124                 1.7123
 IR Inten    --      0.5998                 1.3423               135.6757

                     13                     14                     15
                      A                      A                      A
 Frequencies --    794.5818               887.2883              1090.9242
 Red. masses --     14.6357                14.6864                 1.2741
 Frc consts  --      5.4443                 6.8123                 0.8934
 IR Inten    --      3.4229               226.1901               107.2503

                     16                     17                     18
                      A                      A                      A
 Frequencies --   1192.7419              1297.2028              1297.4628
 Red. masses --     14.5246                12.9864                12.4678
 Frc consts  --     12.1744                12.8752                12.3660
 IR Inten    --    247.9586               218.2658               248.4411

                     19                     20                     21
                      A                      A                      A
 Frequencies --   1309.1726              1474.4993              3809.8978
 Red. masses --     12.5331                20.3988                 1.0654
 Frc consts  --     12.6562                26.1303                 9.1119
 IR Inten    --     80.7088               310.6696               211.0784

 - Thermochemistry -
 -------------------
 Temperature   298.150 Kelvin.  Pressure   1.00000 Atm.
 Atom     1 has atomic number  6 and mass  12.00000

 Molecular mass:   149.95985 amu.
 Principal axes and moments of inertia in atomic units:
                           1         2         3
     Eigenvalues --   672.932921130.837861138.45793
           X            0.98351  -0.17356   0.05087
           Y            0.16993   0.98305   0.06881
           Z           -0.06195  -0.05903   0.99633
 This molecule is an asymmetric top.
 Rotational symmetry number  1.
 Warning -- assumption of classical behavior for rotation
           may cause significant error
 Rotational temperatures (Kelvin)      0.12871     0.07659     0.07608
 Rotational constants (GHZ):           2.68190     1.59593     1.58525
    1 imaginary frequencies ignored.
 Zero-point vibrational energy     103778.8 (Joules/Mol)
                                   24.80372 (Kcal/Mol)
 Warning -- explicit consideration of  11 degrees of freedom as
           vibrations may cause significant error
 Vibrational temperatures:     86.51   277.11   281.55   446.30   488.20
          (Kelvin)            492.35   697.15   737.34   827.35   830.31
                              873.91  1143.23  1276.61  1569.60  1716.09
                             1866.39  1866.76  1883.61  2121.48  5481.59

 Zero-point correction=                           0.039527 (Hartree/Particle)
 Thermal correction to Energy=                    0.046637
 Thermal correction to Enthalpy=                  0.047581
 Thermal correction to Gibbs Free Energy=         0.007151
 Sum of electronic and zero-point Energies=           -962.082000
 Sum of electronic and thermal Energies=              -962.074890
 Sum of electronic and thermal Enthalpies=            -962.073946
 Sum of electronic and thermal Free Energies=         -962.114377

                     E (Thermal)             CV                S
                      KCal/Mol        Cal/Mol-Kelvin    Cal/Mol-Kelvin
 Total                   29.265             24.361             85.093
 Electronic               0.000              0.000              0.000
 Translational            0.889              2.981             40.926
 Rotational               0.889              2.981             28.251
 Vibrational             27.488             18.400             15.916
 Vibration     1          0.597              1.973              4.453
 Vibration     2          0.635              1.850              2.203
 Vibration     3          0.636              1.846              2.173
 Vibration     4          0.699              1.654              1.361
 Vibration     5          0.719              1.597              1.215
 Vibration     6          0.721              1.591              1.202
 Vibration     7          0.841              1.284              0.698
 Vibration     8          0.868              1.222              0.628
 Vibration     9          0.931              1.085              0.495
 Vibration    10          0.934              1.081              0.491
 Vibration    11          0.966              1.016              0.437

 Normal termination of Gaussian 16 at Sun May 25 03:39:35 2025.
