 Gaussian 16, Revision C.01,
 Gaussian 16:  ES64L-G16RevC.01  3-Jul-2019

 ----------------------------------------------------------------------
 #P mp2/6-31G Symm(None) scf(xqc) pop(None) guess(Read,Mix) geom(AllChe
 ck,NoKeepConstants) irc(RCFC,reverse,MaxPoints=100,StepSize=2)
 ----------------------------------------------------------------------

 Structure from the checkpoint file:  "1502984803620600000001_R_Addition_MultipleBond_5_8_9_IRC_R.chk"
 ------------------------------
 Gaussian input prepared by ASE
 ------------------------------
 Charge =  0 Multiplicity = 1

 SCF Done:  E(RHF) =  -958.249299981     A.U. after   18 cycles
 E2 =    -0.9564229689D+00 EUMP2 =    -0.95920572295037D+03
 SCF Done:  E(RHF) =  -958.249423627     A.U. after   13 cycles
 E2 =    -0.9563697852D+00 EUMP2 =    -0.95920579341247D+03
 SCF Done:  E(RHF) =  -958.249629162     A.U. after   13 cycles
 E2 =    -0.9562814012D+00 EUMP2 =    -0.95920591056273D+03
 SCF Done:  E(RHF) =  -958.249915652     A.U. after   13 cycles
 E2 =    -0.9561584080D+00 EUMP2 =    -0.95920607405967D+03
 SCF Done:  E(RHF) =  -958.250281851     A.U. after   14 cycles
 E2 =    -0.9560015400D+00 EUMP2 =    -0.95920628339077D+03
 SCF Done:  E(RHF) =  -958.250726167     A.U. after   14 cycles
 E2 =    -0.9558117243D+00 EUMP2 =    -0.95920653789117D+03
 SCF Done:  E(RHF) =  -958.251246671     A.U. after   14 cycles
 E2 =    -0.9555900620D+00 EUMP2 =    -0.95920683673307D+03
 SCF Done:  E(RHF) =  -958.251841105     A.U. after   14 cycles
 E2 =    -0.9553378183D+00 EUMP2 =    -0.95920717892371D+03
 SCF Done:  E(RHF) =  -958.252506894     A.U. after   14 cycles
 E2 =    -0.9550564041D+00 EUMP2 =    -0.95920756329850D+03
 SCF Done:  E(RHF) =  -958.253241156     A.U. after   14 cycles
 E2 =    -0.9547473593D+00 EUMP2 =    -0.95920798851544D+03
 E2 =    -0.9544123349D+00 EUMP2 =    -0.95920845305015D+03
 E2 =    -0.9540530757D+00 EUMP2 =    -0.95920895519215D+03
 E2 =    -0.9536714038D+00 EUMP2 =    -0.95920949304253D+03
 E2 =    -0.9532692036D+00 EUMP2 =    -0.95921006451349D+03
 E2 =    -0.9528484084D+00 EUMP2 =    -0.95921066733013D+03
 E2 =    -0.9524109887D+00 EUMP2 =    -0.95921129903469D+03
 E2 =    -0.9519589437D+00 EUMP2 =    -0.95921195699374D+03
 E2 =    -0.9514942948D+00 EUMP2 =    -0.95921263840838D+03
 E2 =    -0.9510190821D+00 EUMP2 =    -0.95921334032818D+03
 E2 =    -0.9505353642D+00 EUMP2 =    -0.95921405966873D+03
 E2 =    -0.9451572981D+00 EUMP2 =    -0.95924276518890D+03
 E2 =    -0.9452824238D+00 EUMP2 =    -0.95924302714356D+03
 E2 =    -0.9454067680D+00 EUMP2 =    -0.95924328544682D+03
 E2 =    -0.9455302211D+00 EUMP2 =    -0.95924354015742D+03
 E2 =    -0.9456526803D+00 EUMP2 =    -0.95924379133336D+03
 E2 =    -0.9457740490D+00 EUMP2 =    -0.95924403903205D+03
 E2 =    -0.9458933235D+00 EUMP2 =    -0.95924428330970D+03
 E2 =    -0.9460146673D+00 EUMP2 =    -0.95924452421957D+03
 E2 =    -0.9461269226D+00 EUMP2 =    -0.95924476181135D+03
 E2 =    -0.9462561265D+00 EUMP2 =    -0.95924499609699D+03
 SCF Done:  E(RHF) =  -958.298888454     A.U. after   12 cycles
 E2 =    -0.9463384379D+00 EUMP2 =    -0.95924522689203D+03
 SCF Done:  E(RHF) =  -958.298933462     A.U. after   12 cycles
 E2 =    -0.9465197902D+00 EUMP2 =    -0.95924545325205D+03
 SCF Done:  E(RHF) =  -958.299178361     A.U. after   13 cycles
 E2 =    -0.9464965490D+00 EUMP2 =    -0.95924567491038D+03
 SCF Done:  E(RHF) =  -958.299182334     A.U. after   12 cycles
 E2 =    -0.9467165669D+00 EUMP2 =    -0.95924589890088D+03
 SCF Done:  E(RHF) =  -958.299335235     A.U. after   12 cycles
 E2 =    -0.9467836338D+00 EUMP2 =    -0.95924611886869D+03
 SCF Done:  E(RHF) =  -958.299428332     A.U. after   12 cycles
 E2 =    -0.9469065593D+00 EUMP2 =    -0.95924633489088D+03
 SCF Done:  E(RHF) =  -958.299539897     A.U. after   12 cycles
 E2 =    -0.9470080254D+00 EUMP2 =    -0.95924654792241D+03
 SCF Done:  E(RHF) =  -958.299645449     A.U. after   12 cycles
 E2 =    -0.9471126372D+00 EUMP2 =    -0.95924675808637D+03
 SCF Done:  E(RHF) =  -958.299751495     A.U. after   12 cycles
 E2 =    -0.9472139447D+00 EUMP2 =    -0.95924696543998D+03
 SCF Done:  E(RHF) =  -958.299856365     A.U. after   12 cycles
 E2 =    -0.9473136610D+00 EUMP2 =    -0.95924717002625D+03

                          Input orientation:
 ---------------------------------------------------------------------
 Center     Atomic      Atomic             Coordinates (Angstroms)
 Number     Number       Type             X           Y           Z
 ---------------------------------------------------------------------
      1          6           0       -1.062283   -0.220348    0.035280
      2          9           0       -1.555597    0.501988   -1.023557
      3          9           0       -1.607076    0.189832    1.227246
      4          9           0       -1.261874   -1.573146   -0.157730
      5         16           0        0.923024    0.051713    0.058168
      6          8           0        1.505883   -0.717161    1.323444
      7          8           0        1.475772   -0.133552   -1.451596
      8          8           0        1.126555    1.839431   -0.012056
      9          1           0        1.572883    1.905813   -0.906037
 ---------------------------------------------------------------------

 Normal termination of Gaussian 16 at Sun May 25 03:38:46 2025.
