 Gaussian 16, Revision C.01,
 Gaussian 16:  ES64L-G16RevC.01  3-Jul-2019

 ----------------------------------------------------------------------
 #P M062X/Def2TZVPP Symm(None) scf(xqc) pop(None) opt(NoFreeze,TS,CalcA
 ll,NoEigentest,MaxCycle=999)
 ----------------------------------------------------------------------

 ------------------------------
 Gaussian input prepared by ASE
 ------------------------------
 Symbolic Z-matrix:
 Charge =  0 Multiplicity = 1

 SCF Done:  E(RM062X) =  -961.053600548     A.U. after   21 cycles
 SCF Done:  E(RM062X) =  -961.305185667     A.U. after   19 cycles
 SCF Done:  E(RM062X) =  -961.501204171     A.U. after   18 cycles
 SCF Done:  E(RM062X) =  -961.667533679     A.U. after   17 cycles
 SCF Done:  E(RM062X) =  -961.785799142     A.U. after   17 cycles
 SCF Done:  E(RM062X) =  -961.864529258     A.U. after   17 cycles
 SCF Done:  E(RM062X) =  -961.918110001     A.U. after   17 cycles
 SCF Done:  E(RM062X) =  -961.951398300     A.U. after   16 cycles
 SCF Done:  E(RM062X) =  -961.968799390     A.U. after   16 cycles
 SCF Done:  E(RM062X) =  -961.976927691     A.U. after   15 cycles
 SCF Done:  E(RM062X) =  -962.013310251     A.U. after   15 cycles
 SCF Done:  E(RM062X) =  -962.024743108     A.U. after   15 cycles
 SCF Done:  E(RM062X) =  -962.034873724     A.U. after   15 cycles
 SCF Done:  E(RM062X) =  -962.043830642     A.U. after   15 cycles
 SCF Done:  E(RM062X) =  -962.052240263     A.U. after   14 cycles
 SCF Done:  E(RM062X) =  -962.059344697     A.U. after   14 cycles
 SCF Done:  E(RM062X) =  -962.062448257     A.U. after   14 cycles
 SCF Done:  E(RM062X) =  -962.063293573     A.U. after   13 cycles
 SCF Done:  E(RM062X) =  -962.063347568     A.U. after   12 cycles
 SCF Done:  E(RM062X) =  -962.063347677     A.U. after    7 cycles

 Isotropic polarizability for W=    0.000000       46.09 Bohr**3.
 End of Minotr F.D. properties file   721 does not exist.

 Optimization completed.
    -- Stationary point found.

                          Input orientation:
 ---------------------------------------------------------------------
 Center     Atomic      Atomic             Coordinates (Angstroms)
 Number     Number       Type             X           Y           Z
 ---------------------------------------------------------------------
      1          6           0        1.838147   -0.770661   -1.615117
      2          9           0        1.200739    0.650551   -2.123339
      3          9           0        0.763888   -1.512477   -1.708839
      4          9           0        2.643362   -1.024789   -2.602059
      5         16           0        1.374423    0.859645    0.492279
      6          8           0        2.336431   -0.547568   -0.484125
      7          8           0        0.374126    0.157947    1.207663
      8          8           0        2.446566    1.515394    1.139770
      9          1           0        1.082380    1.136500   -1.008343
 ---------------------------------------------------------------------

 ******    1 imaginary frequencies (negative Signs) ******

                      1                      2                      3
                      A                      A                      A
 Frequencies --  -1225.3936                59.7561                94.4572
 Red. masses --      1.5725                17.2299                16.0625
 Frc consts  --      1.3912                 0.0362                 0.0844
 IR Inten    --    952.7501                 0.1350                 3.0633

                      4                      5                      6
                      A                      A                      A
 Frequencies --    245.7468               252.5155               314.7698
 Red. masses --     15.8289                15.9630                17.2423
 Frc consts  --      0.5632                 0.5997                 1.0065
 IR Inten    --     51.4537                 4.0773                 2.6935

                      7                      8                      9
                      A                      A                      A
 Frequencies --    391.2532               438.9062               452.8868
 Red. masses --     17.1764                13.4844                16.4110
 Frc consts  --      1.5492                 1.5305                 1.9832
 IR Inten    --      7.3443                63.3251               115.2563

                     10                     11                     12
                      A                      A                      A
 Frequencies --    578.0353               616.9422               633.9716
 Red. masses --     16.9618                16.0165                16.2790
 Frc consts  --      3.3391                 3.5917                 3.8549
 IR Inten    --    189.8617                10.4615                11.1459

                     13                     14                     15
                      A                      A                      A
 Frequencies --    729.4889               890.1531              1078.9457
 Red. masses --     10.0967                 6.1478                 5.8869
 Frc consts  --      3.1657                 2.8701                 4.0377
 IR Inten    --    342.7059               343.6440               370.3731

                     16                     17                     18
                      A                      A                      A
 Frequencies --   1140.8549              1269.3950              1354.3108
 Red. masses --      1.0515                 9.5148                11.8803
 Frc consts  --      0.8063                 9.0332                12.8385
 IR Inten    --      9.7908               107.1141               308.8334

                     19                     20                     21
                      A                      A                      A
 Frequencies --   1499.1490              1555.1152              1626.9849
 Red. masses --     19.1950                 2.6641                 1.4665
 Frc consts  --     25.4172                 3.7960                 2.2872
 IR Inten    --    261.2746               722.3580               789.7006

 - Thermochemistry -
 -------------------
 Temperature   298.150 Kelvin.  Pressure   1.00000 Atm.
 Atom     1 has atomic number  6 and mass  12.00000

 Molecular mass:   149.95985 amu.
 Principal axes and moments of inertia in atomic units:
                           1         2         3
     Eigenvalues --   519.692651544.000761678.35437
           X           -0.09116   0.84779  -0.52243
           Y            0.50384   0.49178   0.71014
           Z            0.85897  -0.19849  -0.47199
 This molecule is an asymmetric top.
 Rotational symmetry number  1.
 Warning -- assumption of classical behavior for rotation
           may cause significant error
 Rotational temperatures (Kelvin)      0.16666     0.05610     0.05161
 Rotational constants (GHZ):           3.47271     1.16887     1.07530
    1 imaginary frequencies ignored.
 Zero-point vibrational energy      91057.6 (Joules/Mol)
                                   21.76328 (Kcal/Mol)
 Warning -- explicit consideration of  10 degrees of freedom as
           vibrations may cause significant error
 Vibrational temperatures:     85.98   135.90   353.57   363.31   452.88
          (Kelvin)            562.93   631.49   651.60   831.66   887.64
                              912.14  1049.57  1280.73  1552.36  1641.44
                             1826.38  1948.55  2156.94  2237.46  2340.87

 Zero-point correction=                           0.034682 (Hartree/Particle)
 Thermal correction to Energy=                    0.042009
 Thermal correction to Enthalpy=                  0.042953
 Thermal correction to Gibbs Free Energy=         0.001620
 Sum of electronic and zero-point Energies=           -962.028666
 Sum of electronic and thermal Energies=              -962.021338
 Sum of electronic and thermal Enthalpies=            -962.020394
 Sum of electronic and thermal Free Energies=         -962.061728

                     E (Thermal)             CV                S
                      KCal/Mol        Cal/Mol-Kelvin    Cal/Mol-Kelvin
 Total                   26.361             24.631             86.994
 Electronic               0.000              0.000              0.000
 Translational            0.889              2.981             40.926
 Rotational               0.889              2.981             28.689
 Vibrational             24.584             18.669             17.379
 Vibration     1          0.597              1.973              4.465
 Vibration     2          0.603              1.953              3.566
 Vibration     3          0.660              1.770              1.761
 Vibration     4          0.664              1.759              1.713
 Vibration     5          0.702              1.645              1.337
 Vibration     6          0.759              1.489              0.995
 Vibration     7          0.799              1.385              0.830
 Vibration     8          0.811              1.355              0.787
 Vibration     9          0.935              1.079              0.489
 Vibration    10          0.977              0.996              0.421

 Normal termination of Gaussian 16 at Sun May 25 04:21:42 2025.
