 Gaussian 16, Revision C.01,
 Gaussian 16:  ES64L-G16RevC.01  3-Jul-2019

 ----------------------------------------------------------------------
 #P M062X/Def2TZVPP Symm(None) scf(xqc) pop(None) opt(NoFreeze,TS,CalcA
 ll,NoEigentest,MaxCycle=999)
 ----------------------------------------------------------------------

 ------------------------------
 Gaussian input prepared by ASE
 ------------------------------
 Symbolic Z-matrix:
 Charge =  0 Multiplicity = 1

 SCF Done:  E(RM062X) =  -961.671666549     A.U. after   27 cycles
 SCF Done:  E(RM062X) =  -961.708864350     A.U. after   24 cycles
 SCF Done:  E(RM062X) =  -961.747139617     A.U. after   21 cycles
 SCF Done:  E(RM062X) =  -961.778028974     A.U. after   20 cycles
 SCF Done:  E(RM062X) =  -961.802292948     A.U. after   20 cycles
 SCF Done:  E(RM062X) =  -961.819811577     A.U. after   18 cycles
 SCF Done:  E(RM062X) =  -961.830167312     A.U. after   18 cycles
 SCF Done:  E(RM062X) =  -961.836295994     A.U. after   17 cycles
 SCF Done:  E(RM062X) =  -961.839558594     A.U. after   17 cycles
 SCF Done:  E(RM062X) =  -961.840321875     A.U. after   17 cycles
 SCF Done:  E(RM062X) =  -961.840358871     A.U. after   15 cycles
 SCF Done:  E(RM062X) =  -961.840358977     A.U. after   10 cycles

 Isotropic polarizability for W=    0.000000       59.63 Bohr**3.
 End of Minotr F.D. properties file   721 does not exist.

 Optimization completed.
    -- Stationary point found.

                          Input orientation:
 ---------------------------------------------------------------------
 Center     Atomic      Atomic             Coordinates (Angstroms)
 Number     Number       Type             X           Y           Z
 ---------------------------------------------------------------------
      1          6           0        2.037928   -0.292150   -0.317032
      2          9           0       -0.325071    0.995402    0.474674
      3          9           0        1.991124   -0.999931    0.782019
      4          9           0        1.196555   -0.750808   -1.208678
      5         16           0        2.077477    1.444115   -0.072302
      6          8           0        0.864861    2.188506    0.401075
      7          8           0        3.240829    1.745229    0.677361
      8          8           0        2.162669    1.924648   -1.552290
      9          1           0        3.036812    1.716114   -1.915615
 ---------------------------------------------------------------------

 ******    1 imaginary frequencies (negative Signs) ******

                      1                      2                      3
                      A                      A                      A
 Frequencies --   -590.2725                85.3668               108.4872
 Red. masses --     17.0158                13.9078                16.1944
 Frc consts  --      3.4931                 0.0597                 0.1123
 IR Inten    --    846.7537                 0.1828                 3.3907

                      4                      5                      6
                      A                      A                      A
 Frequencies --    152.5135               194.7114               235.4652
 Red. masses --     18.3043                 5.1406                 1.3830
 Frc consts  --      0.2509                 0.1148                 0.0452
 IR Inten    --     13.3200                16.7377                68.9980

                      7                      8                      9
                      A                      A                      A
 Frequencies --    284.1871               317.5545               387.6601
 Red. masses --     17.6010                 7.5116                10.4608
 Frc consts  --      0.8375                 0.4463                 0.9262
 IR Inten    --      2.3258                 9.3959                 2.2682

                     10                     11                     12
                      A                      A                      A
 Frequencies --    453.8868               467.0265               483.9997
 Red. masses --     13.7745                 7.1316                14.4267
 Frc consts  --      1.6719                 0.9165                 1.9912
 IR Inten    --     13.3457                46.9388                25.2026

                     13                     14                     15
                      A                      A                      A
 Frequencies --    619.2430               696.2697               878.7171
 Red. masses --     15.6762                18.6249                15.1607
 Frc consts  --      3.5417                 5.3198                 6.8971
 IR Inten    --    100.1317                63.6765                10.3634

                     16                     17                     18
                      A                      A                      A
 Frequencies --    966.5139              1150.2438              1254.4462
 Red. masses --     17.2558                 1.1798                13.7323
 Frc consts  --      9.4973                 0.9197                12.7320
 IR Inten    --    265.0252                63.5142               338.1166

                     19                     20                     21
                      A                      A                      A
 Frequencies --   1319.4176              1398.0672              3795.3762
 Red. masses --     13.5237                16.6919                 1.0655
 Frc consts  --     13.8710                19.2226                 9.0434
 IR Inten    --    177.8076               205.1560               215.5034

 - Thermochemistry -
 -------------------
 Temperature   298.150 Kelvin.  Pressure   1.00000 Atm.
 Atom     1 has atomic number  6 and mass  12.00000

 Molecular mass:   149.95985 amu.
 Principal axes and moments of inertia in atomic units:
                           1         2         3
     Eigenvalues --   843.856691070.008431241.08644
           X            0.23974   0.95571   0.17073
           Y            0.97078  -0.23410  -0.05271
           Z            0.01041  -0.17838   0.98391
 This molecule is an asymmetric top.
 Rotational symmetry number  1.
 Warning -- assumption of classical behavior for rotation
           may cause significant error
 Rotational temperatures (Kelvin)      0.10264     0.08095     0.06979
 Rotational constants (GHZ):           2.13868     1.68666     1.45416
    1 imaginary frequencies ignored.
 Zero-point vibrational energy      91210.2 (Joules/Mol)
                                   21.79976 (Kcal/Mol)
 Warning -- explicit consideration of  12 degrees of freedom as
           vibrations may cause significant error
 Vibrational temperatures:    122.82   156.09   219.43   280.15   338.78
          (Kelvin)            408.88   456.89   557.76   653.04   671.95
                              696.37   890.95  1001.78  1264.28  1390.60
                             1654.94  1804.87  1898.35  2011.51  5460.70

 Zero-point correction=                           0.034740 (Hartree/Particle)
 Thermal correction to Energy=                    0.043092
 Thermal correction to Enthalpy=                  0.044037
 Thermal correction to Gibbs Free Energy=         0.001115
 Sum of electronic and zero-point Energies=           -961.805619
 Sum of electronic and thermal Energies=              -961.797267
 Sum of electronic and thermal Enthalpies=            -961.796322
 Sum of electronic and thermal Free Energies=         -961.839244

                     E (Thermal)             CV                S
                      KCal/Mol        Cal/Mol-Kelvin    Cal/Mol-Kelvin
 Total                   27.041             27.627             90.336
 Electronic               0.000              0.000              0.000
 Translational            0.889              2.981             40.926
 Rotational               0.889              2.981             28.507
 Vibrational             25.263             21.666             20.903
 Vibration     1          0.601              1.959              3.764
 Vibration     2          0.606              1.942              3.296
 Vibration     3          0.619              1.900              2.641
 Vibration     4          0.635              1.847              2.183
 Vibration     5          0.655              1.787              1.837
 Vibration     6          0.683              1.703              1.508
 Vibration     7          0.704              1.640              1.323
 Vibration     8          0.756              1.497              1.009
 Vibration     9          0.812              1.352              0.784
 Vibration    10          0.824              1.323              0.746
 Vibration    11          0.840              1.286              0.699
 Vibration    12          0.979              0.991              0.418

 Normal termination of Gaussian 16 at Sun May 25 04:11:09 2025.
