 Gaussian 16, Revision C.01,
 Gaussian 16:  ES64L-G16RevC.01  3-Jul-2019

 ----------------------------------------------------------------------
 #P M062X/Def2TZVPP Symm(None) scf(xqc) pop(None) geom(AllCheck,NoKeepC
 onstants) guess(Read) irc(RCFC,reverse,MaxPoints=100,StepSize=2)
 ----------------------------------------------------------------------

 Structure from the checkpoint file:  "1502984803620600000001_r12_insertion_R_9_8_5_IRC_R.chk"
 ------------------------------
 Gaussian input prepared by ASE
 ------------------------------
 Charge =  0 Multiplicity = 1

 SCF Done:  E(RM062X) =  -962.069732771     A.U. after    9 cycles
 SCF Done:  E(RM062X) =  -962.069817912     A.U. after    9 cycles
 SCF Done:  E(RM062X) =  -962.069959181     A.U. after    9 cycles
 SCF Done:  E(RM062X) =  -962.070155661     A.U. after    9 cycles
 SCF Done:  E(RM062X) =  -962.070405973     A.U. after    9 cycles
 SCF Done:  E(RM062X) =  -962.070708335     A.U. after    9 cycles
 SCF Done:  E(RM062X) =  -962.071060688     A.U. after   10 cycles
 SCF Done:  E(RM062X) =  -962.071460843     A.U. after   10 cycles
 SCF Done:  E(RM062X) =  -962.071906592     A.U. after   10 cycles
 SCF Done:  E(RM062X) =  -962.072395767     A.U. after   10 cycles
 SCF Done:  E(RM062X) =  -962.118019574     A.U. after    8 cycles
 SCF Done:  E(RM062X) =  -962.118243236     A.U. after    8 cycles
 SCF Done:  E(RM062X) =  -962.118462318     A.U. after    8 cycles
 SCF Done:  E(RM062X) =  -962.118676919     A.U. after    8 cycles
 SCF Done:  E(RM062X) =  -962.118887131     A.U. after    8 cycles
 SCF Done:  E(RM062X) =  -962.119093039     A.U. after    8 cycles
 SCF Done:  E(RM062X) =  -962.119294723     A.U. after    8 cycles
 SCF Done:  E(RM062X) =  -962.119492257     A.U. after    8 cycles
 SCF Done:  E(RM062X) =  -962.119685713     A.U. after    8 cycles
 SCF Done:  E(RM062X) =  -962.119875153     A.U. after    8 cycles

                          Input orientation:
 ---------------------------------------------------------------------
 Center     Atomic      Atomic             Coordinates (Angstroms)
 Number     Number       Type             X           Y           Z
 ---------------------------------------------------------------------
      1          6           0       -0.939449   -0.207841    0.028166
      2          9           0       -1.503094    0.506610   -0.927805
      3          9           0       -1.468221    0.109691    1.193626
      4          9           0       -1.135604   -1.492630   -0.210042
      5         16           0        0.887060    0.085869    0.012381
      6          8           0        1.401538   -0.638165    1.113504
      7          8           0        1.327497   -0.108555   -1.325826
      8          8           0        0.998383    1.649403    0.146059
      9          1           0        1.305323    1.951619   -0.723723
 ---------------------------------------------------------------------

 Normal termination of Gaussian 16 at Sun May 25 04:19:02 2025.
