 Gaussian 16, Revision C.01,
 Gaussian 16:  ES64L-G16RevC.01  3-Jul-2019

 ----------------------------------------------------------------------
 #P mp2/6-31G Symm(None) scf(xqc) pop(None) guess(Mix,Always) freq opt(
 CalcFC)
 ----------------------------------------------------------------------

 ------------------------------
 Gaussian input prepared by ASE
 ------------------------------
 Symbolic Z-matrix:
 Charge =  0 Multiplicity = 1

 SCF Done:  E(RHF) =  -958.299856325     A.U. after   19 cycles
 E2 =    -0.9473137066D+00 EUMP2 =    -0.95924717003134D+03
 E2 =    -0.9473137066D+00 EUMP2 =    -0.95924717003134D+03
 SCF Done:  E(RHF) =  -958.309403078     A.U. after   19 cycles
 E2 =    -0.9483352600D+00 EUMP2 =    -0.95925773833810D+03
 SCF Done:  E(RHF) =  -958.309592897     A.U. after   18 cycles
 E2 =    -0.9497310391D+00 EUMP2 =    -0.95925932393633D+03
 SCF Done:  E(RHF) =  -958.309591405     A.U. after   18 cycles
 E2 =    -0.9501374376D+00 EUMP2 =    -0.95925972884283D+03
 SCF Done:  E(RHF) =  -958.309834623     A.U. after   18 cycles
 E2 =    -0.9503794123D+00 EUMP2 =    -0.95926021403574D+03
 SCF Done:  E(RHF) =  -958.309893174     A.U. after   18 cycles
 E2 =    -0.9505663901D+00 EUMP2 =    -0.95926045956431D+03
 SCF Done:  E(RHF) =  -958.310049236     A.U. after   18 cycles
 E2 =    -0.9505414040D+00 EUMP2 =    -0.95926059063988D+03
 SCF Done:  E(RHF) =  -958.310125547     A.U. after   18 cycles
 E2 =    -0.9504945336D+00 EUMP2 =    -0.95926062008060D+03
 SCF Done:  E(RHF) =  -958.310152430     A.U. after   19 cycles
 E2 =    -0.9504757424D+00 EUMP2 =    -0.95926062817280D+03
 SCF Done:  E(RHF) =  -958.310089011     A.U. after   19 cycles
 E2 =    -0.9505429767D+00 EUMP2 =    -0.95926063198755D+03
 SCF Done:  E(RHF) =  -958.310077553     A.U. after   19 cycles
 E2 =    -0.9505590056D+00 EUMP2 =    -0.95926063655838D+03
 SCF Done:  E(RHF) =  -958.310072388     A.U. after   18 cycles
 E2 =    -0.9505646197D+00 EUMP2 =    -0.95926063700767D+03
 SCF Done:  E(RHF) =  -958.310077190     A.U. after   17 cycles
 E2 =    -0.9505598582D+00 EUMP2 =    -0.95926063704825D+03
 SCF Done:  E(RHF) =  -958.310076965     A.U. after   17 cycles
 E2 =    -0.9505600862D+00 EUMP2 =    -0.95926063705133D+03
 Optimization completed.
    -- Stationary point found.
 Normal termination of Gaussian 16 at Sun May 25 03:39:26 2025.

 -------------------------------------------------------------------
 #P Geom=AllCheck Guess=TCheck SCRF=Check GenChk RMP2(FC)/6-31G Freq
 -------------------------------------------------------------------

 Structure from the checkpoint file:  "1502984803620600000001_R_Addition_MultipleBond_5_8_9_IRC_R_prod.chk"
 ------------------------------
 Gaussian input prepared by ASE
 ------------------------------
 Charge =  0 Multiplicity = 1

                          Input orientation:
 ---------------------------------------------------------------------
 Center     Atomic      Atomic             Coordinates (Angstroms)
 Number     Number       Type             X           Y           Z
 ---------------------------------------------------------------------
      1          6           0       -1.024509   -0.201712   -0.018229
      2          9           0       -1.594157    0.384327   -1.122090
      3          9           0       -1.436845    0.400503    1.145287
      4          9           0       -1.306588   -1.554724    0.010995
      5         16           0        0.945814   -0.034780   -0.156123
      6          8           0        1.626919   -0.548633    1.190679
      7          8           0        1.434856   -0.568592   -1.576571
      8          8           0        0.786228    1.776117   -0.158028
      9          1           0        1.685570    2.192065   -0.222759
 ---------------------------------------------------------------------

 SCF Done:  E(RHF) =  -958.310076965     A.U. after    1 cycles
 E2 =    -0.9505600932D+00 EUMP2 =    -0.95926063705840D+03
 E2 =    -0.9505600932D+00 EUMP2 =    -0.95926063705840D+03

                      1                      2                      3
                      A                      A                      A
 Frequencies --     28.9826                87.6384               143.4544
 Red. masses --      9.1233                 1.3663                 5.2039
 Frc consts  --      0.0045                 0.0062                 0.0631
 IR Inten    --     11.8261               103.4435                10.5705

                      4                      5                      6
                      A                      A                      A
 Frequencies --    160.4492               231.6342               266.4675
 Red. masses --     10.3540                12.3061                11.4520
 Frc consts  --      0.1570                 0.3890                 0.4791
 IR Inten    --      2.3991                 6.8325                22.6873

                      7                      8                      9
                      A                      A                      A
 Frequencies --    268.0326               361.7250               374.1164
 Red. masses --     14.4880                15.4327                13.1967
 Frc consts  --      0.6132                 1.1897                 1.0883
 IR Inten    --      5.7834                42.2787                12.2838

                     10                     11                     12
                      A                      A                      A
 Frequencies --    466.3276               484.2314               491.8953
 Red. masses --     13.4565                17.4850                17.8844
 Frc consts  --      1.7241                 2.4156                 2.5496
 IR Inten    --    103.9308                12.9381                 1.5136

                     13                     14                     15
                      A                      A                      A
 Frequencies --    617.6541               689.5271               965.6805
 Red. masses --     17.9572                16.5739                12.7790
 Frc consts  --      4.0363                 4.6428                 7.0213
 IR Inten    --    174.7606                15.0759               145.1942

                     16                     17                     18
                      A                      A                      A
 Frequencies --   1048.4130              1106.9932              1120.0463
 Red. masses --      3.9940                 1.5544                20.0696
 Frc consts  --      2.5866                 1.1223                14.8341
 IR Inten    --    236.9825               143.3886               166.7627

                     19                     20                     21
                      A                      A                      A
 Frequencies --   1215.6478              1236.2846              3522.4471
 Red. masses --      8.8254                13.3341                 1.0663
 Frc consts  --      7.6843                12.0075                 7.7953
 IR Inten    --    144.6863               234.4550                95.2889

 - Thermochemistry -
 -------------------
 Temperature   298.150 Kelvin.  Pressure   1.00000 Atm.
 Atom     1 has atomic number  6 and mass  12.00000

 Molecular mass:   149.95985 amu.
 Principal axes and moments of inertia in atomic units:
                           1         2         3
     Eigenvalues --   807.269131294.101781311.35824
           X            0.99039  -0.11970   0.06927
           Y            0.11954   0.99281   0.00640
           Z           -0.06954   0.00194   0.99758
 This molecule is an asymmetric top.
 Rotational symmetry number  1.
 Warning -- assumption of classical behavior for rotation
           may cause significant error
 Rotational temperatures (Kelvin)      0.10729     0.06693     0.06605
 Rotational constants (GHZ):           2.23561     1.39459     1.37624
 Zero-point vibrational energy      89047.9 (Joules/Mol)
                                   21.28296 (Kcal/Mol)
 Warning -- explicit consideration of  13 degrees of freedom as
           vibrations may cause significant error
 Vibrational temperatures:     41.70   126.09   206.40   230.85   333.27
          (Kelvin)            383.39   385.64   520.44   538.27   670.94
                              696.70   707.73   888.67   992.08  1389.40
                             1508.43  1592.72  1611.50  1749.05  1778.74
                             5068.02

 Zero-point correction=                           0.033917 (Hartree/Particle)
 Thermal correction to Energy=                    0.042924
 Thermal correction to Enthalpy=                  0.043868
 Thermal correction to Gibbs Free Energy=        -0.001297
 Sum of electronic and zero-point Energies=           -959.226721
 Sum of electronic and thermal Energies=              -959.217713
 Sum of electronic and thermal Enthalpies=            -959.216769
 Sum of electronic and thermal Free Energies=         -959.261934

                     E (Thermal)             CV                S
                      KCal/Mol        Cal/Mol-Kelvin    Cal/Mol-Kelvin
 Total                   26.935             29.419             95.057
 Electronic               0.000              0.000              0.000
 Translational            0.889              2.981             40.926
 Rotational               0.889              2.981             28.706
 Vibrational             25.158             23.458             25.424
 Vibration     1          0.593              1.984              5.898
 Vibration     2          0.601              1.958              3.712
 Vibration     3          0.616              1.910              2.757
 Vibration     4          0.622              1.891              2.544
 Vibration     5          0.653              1.793              1.866
 Vibration     6          0.672              1.735              1.619
 Vibration     7          0.673              1.732              1.609
 Vibration     8          0.736              1.551              1.115
 Vibration     9          0.745              1.525              1.063
 Vibration    10          0.824              1.325              0.748
 Vibration    11          0.840              1.285              0.699
 Vibration    12          0.848              1.268              0.679
 Vibration    13          0.977              0.995              0.420

 Optimization completed.
    -- Stationary point found.
 Normal termination of Gaussian 16 at Sun May 25 03:39:39 2025.
