 Gaussian 16, Revision C.01,
 Gaussian 16:  ES64L-G16RevC.01  3-Jul-2019

 ----------------------------------------------------------------------
 #P mp2/6-31G Symm(None) scf(xqc) pop(None) guess(Mix,Always) freq opt(
 CalcFC)
 ----------------------------------------------------------------------

 ------------------------------
 Gaussian input prepared by ASE
 ------------------------------
 Symbolic Z-matrix:
 Charge =  0 Multiplicity = 1

 SCF Done:  E(RHF) =  -958.304809608     A.U. after   17 cycles
 E2 =    -0.9532758980D+00 EUMP2 =    -0.95925808550572D+03
 E2 =    -0.9532758980D+00 EUMP2 =    -0.95925808550572D+03
 SCF Done:  E(RHF) =  -958.305118128     A.U. after   19 cycles
 E2 =    -0.9531810179D+00 EUMP2 =    -0.95925829914619D+03
 SCF Done:  E(RHF) =  -958.306501544     A.U. after   18 cycles
 E2 =    -0.9525314775D+00 EUMP2 =    -0.95925903302178D+03
 SCF Done:  E(RHF) =  -958.309262324     A.U. after   18 cycles
 E2 =    -0.9509807101D+00 EUMP2 =    -0.95926024303415D+03
 SCF Done:  E(RHF) =  -958.307710583     A.U. after   19 cycles
 E2 =    -0.9494594710D+00 EUMP2 =    -0.95925717005390D+03
 SCF Done:  E(RHF) =  -958.309868369     A.U. after   19 cycles
 E2 =    -0.9506856739D+00 EUMP2 =    -0.95926055404266D+03
 SCF Done:  E(RHF) =  -958.309983975     A.U. after   19 cycles
 E2 =    -0.9506334546D+00 EUMP2 =    -0.95926061742909D+03
 SCF Done:  E(RHF) =  -958.310130491     A.U. after   19 cycles
 E2 =    -0.9505027733D+00 EUMP2 =    -0.95926063326417D+03
 SCF Done:  E(RHF) =  -958.310059152     A.U. after   19 cycles
 E2 =    -0.9505764187D+00 EUMP2 =    -0.95926063557090D+03
 SCF Done:  E(RHF) =  -958.310068830     A.U. after   19 cycles
 E2 =    -0.9505671971D+00 EUMP2 =    -0.95926063602725D+03
 SCF Done:  E(RHF) =  -958.310070737     A.U. after   19 cycles
 E2 =    -0.9505658558D+00 EUMP2 =    -0.95926063659256D+03
 SCF Done:  E(RHF) =  -958.310076562     A.U. after   17 cycles
 E2 =    -0.9505604654D+00 EUMP2 =    -0.95926063702731D+03
 SCF Done:  E(RHF) =  -958.310077357     A.U. after   17 cycles
 E2 =    -0.9505596999D+00 EUMP2 =    -0.95926063705698D+03
 Optimization completed.
    -- Stationary point found.
 Normal termination of Gaussian 16 at Sun May 25 03:37:03 2025.

 -------------------------------------------------------------------
 #P Geom=AllCheck Guess=TCheck SCRF=Check GenChk RMP2(FC)/6-31G Freq
 -------------------------------------------------------------------

 Structure from the checkpoint file:  "1502984803620600000001_R_Addition_MultipleBond_5_1_2_IRC_R_prod.chk"
 ------------------------------
 Gaussian input prepared by ASE
 ------------------------------
 Charge =  0 Multiplicity = 1

                          Input orientation:
 ---------------------------------------------------------------------
 Center     Atomic      Atomic             Coordinates (Angstroms)
 Number     Number       Type             X           Y           Z
 ---------------------------------------------------------------------
      1          6           0       -1.015821   -0.126356    0.035456
      2          9           0       -1.581914    0.466965   -1.066336
      3          9           0       -1.366218    0.519869    1.195656
      4          9           0       -1.367627   -1.461692    0.100227
      5         16           0        0.956379   -0.066727   -0.154075
      6          8           0        1.643857   -0.588807    1.186301
      7          8           0        1.380253   -0.653997   -1.574374
      8          8           0        0.892006    1.749680   -0.190734
      9          1           0        1.809960    2.115968   -0.286725
 ---------------------------------------------------------------------

 SCF Done:  E(RHF) =  -958.310077357     A.U. after    1 cycles
 E2 =    -0.9505597042D+00 EUMP2 =    -0.95926063706125D+03
 E2 =    -0.9505597042D+00 EUMP2 =    -0.95926063706125D+03

                      1                      2                      3
                      A                      A                      A
 Frequencies --     28.9749                87.5958               143.4557
 Red. masses --      9.1184                 1.3663                 5.2063
 Frc consts  --      0.0045                 0.0062                 0.0631
 IR Inten    --     11.8355               103.4329                10.5584

                      4                      5                      6
                      A                      A                      A
 Frequencies --    160.4399               231.6308               266.4699
 Red. masses --     10.3536                12.3064                11.4507
 Frc consts  --      0.1570                 0.3890                 0.4790
 IR Inten    --      2.3980                 6.8348                22.6877

                      7                      8                      9
                      A                      A                      A
 Frequencies --    268.0301               361.7311               374.1154
 Red. masses --     14.4907                15.4307                13.1966
 Frc consts  --      0.6133                 1.1896                 1.0882
 IR Inten    --      5.7802                42.2862                12.2857

                     10                     11                     12
                      A                      A                      A
 Frequencies --    466.3273               484.2332               491.8937
 Red. masses --     13.4563                17.4851                17.8845
 Frc consts  --      1.7241                 2.4156                 2.5496
 IR Inten    --    103.9387                12.9394                 1.5131

                     13                     14                     15
                      A                      A                      A
 Frequencies --    617.6555               689.5267               965.6787
 Red. masses --     17.9579                16.5738                12.7812
 Frc consts  --      4.0364                 4.6427                 7.0224
 IR Inten    --    174.7599                15.0774               145.2089

                     16                     17                     18
                      A                      A                      A
 Frequencies --   1048.4191              1107.0136              1120.0519
 Red. masses --      3.9963                 1.5541                20.0703
 Frc consts  --      2.5881                 1.1221                14.8348
 IR Inten    --    236.9455               143.4277               166.7651

                     19                     20                     21
                      A                      A                      A
 Frequencies --   1215.6365              1236.2952              3522.4241
 Red. masses --      8.8234                13.3341                 1.0663
 Frc consts  --      7.6824                12.0077                 7.7952
 IR Inten    --    144.6562               234.4531                95.2838

 - Thermochemistry -
 -------------------
 Temperature   298.150 Kelvin.  Pressure   1.00000 Atm.
 Atom     1 has atomic number  6 and mass  12.00000

 Molecular mass:   149.95985 amu.
 Principal axes and moments of inertia in atomic units:
                           1         2         3
     Eigenvalues --   807.266321294.113901311.36687
           X            0.99320  -0.06744   0.09495
           Y            0.06557   0.99759   0.02264
           Z           -0.09625  -0.01626   0.99522
 This molecule is an asymmetric top.
 Rotational symmetry number  1.
 Warning -- assumption of classical behavior for rotation
           may cause significant error
 Rotational temperatures (Kelvin)      0.10729     0.06693     0.06605
 Rotational constants (GHZ):           2.23562     1.39458     1.37623
 Zero-point vibrational energy      89047.6 (Joules/Mol)
                                   21.28289 (Kcal/Mol)
 Warning -- explicit consideration of  13 degrees of freedom as
           vibrations may cause significant error
 Vibrational temperatures:     41.69   126.03   206.40   230.84   333.26
          (Kelvin)            383.39   385.64   520.45   538.27   670.94
                              696.70   707.73   888.67   992.08  1389.40
                             1508.44  1592.75  1611.50  1749.03  1778.75
                             5067.98

 Zero-point correction=                           0.033916 (Hartree/Particle)
 Thermal correction to Energy=                    0.042924
 Thermal correction to Enthalpy=                  0.043868
 Thermal correction to Gibbs Free Energy=        -0.001297
 Sum of electronic and zero-point Energies=           -959.226721
 Sum of electronic and thermal Energies=              -959.217713
 Sum of electronic and thermal Enthalpies=            -959.216769
 Sum of electronic and thermal Free Energies=         -959.261934

                     E (Thermal)             CV                S
                      KCal/Mol        Cal/Mol-Kelvin    Cal/Mol-Kelvin
 Total                   26.935             29.419             95.058
 Electronic               0.000              0.000              0.000
 Translational            0.889              2.981             40.926
 Rotational               0.889              2.981             28.706
 Vibrational             25.158             23.458             25.426
 Vibration     1          0.593              1.984              5.898
 Vibration     2          0.601              1.958              3.713
 Vibration     3          0.616              1.910              2.757
 Vibration     4          0.622              1.891              2.545
 Vibration     5          0.653              1.793              1.866
 Vibration     6          0.672              1.735              1.619
 Vibration     7          0.673              1.732              1.609
 Vibration     8          0.736              1.551              1.115
 Vibration     9          0.745              1.525              1.063
 Vibration    10          0.824              1.325              0.748
 Vibration    11          0.840              1.285              0.699
 Vibration    12          0.848              1.268              0.679
 Vibration    13          0.977              0.995              0.420

 Optimization completed.
    -- Stationary point found.
 Normal termination of Gaussian 16 at Sun May 25 03:37:12 2025.
