 Gaussian 16, Revision C.01,
 Gaussian 16:  ES64L-G16RevC.01  3-Jul-2019

 -----------------------------------------------------------------
 #P M062X/Def2TZVPP Symm(None) scf(xqc) pop(None) freq opt(CalcFC)
 -----------------------------------------------------------------

 ------------------------------
 Gaussian input prepared by ASE
 ------------------------------
 Symbolic Z-matrix:
 Charge =  0 Multiplicity = 1

 SCF Done:  E(RM062X) =  -962.121528104     A.U. after   13 cycles
 SCF Done:  E(RM062X) =  -962.122019116     A.U. after   12 cycles
 SCF Done:  E(RM062X) =  -962.123577530     A.U. after   12 cycles
 SCF Done:  E(RM062X) =  -962.125575587     A.U. after   13 cycles
 SCF Done:  E(RM062X) =  -962.125859811     A.U. after   11 cycles
 SCF Done:  E(RM062X) =  -962.125879839     A.U. after   10 cycles
 SCF Done:  E(RM062X) =  -962.125883941     A.U. after    9 cycles
 SCF Done:  E(RM062X) =  -962.125884983     A.U. after    8 cycles
 Optimization completed.
    -- Stationary point found.
 Normal termination of Gaussian 16 at Sun May 25 03:45:35 2025.

 ---------------------------------------------------------------------
 #P Geom=AllCheck Guess=TCheck SCRF=Check GenChk RM062X/def2TZVPP Freq
 ---------------------------------------------------------------------

 Structure from the checkpoint file:  "1502984803620600000001_r12_insertion_R_8_5_1_IRC_F_prod.chk"
 ------------------------------
 Gaussian input prepared by ASE
 ------------------------------
 Charge =  0 Multiplicity = 1

                          Input orientation:
 ---------------------------------------------------------------------
 Center     Atomic      Atomic             Coordinates (Angstroms)
 Number     Number       Type             X           Y           Z
 ---------------------------------------------------------------------
      1          6           0       -0.870022   -0.139345    0.057476
      2          9           0       -1.344075    0.503633   -1.001192
      3          9           0       -1.393599    0.379182    1.151091
      4          9           0       -1.187882   -1.416581   -0.025775
      5         16           0        0.963108    0.016991    0.090589
      6          8           0        1.400451   -0.470148    1.340862
      7          8           0        1.437319   -0.467503   -1.155892
      8          8           0        1.083359    1.584692    0.118533
      9          1           0        1.159757    1.928620   -0.783195
 ---------------------------------------------------------------------

 SCF Done:  E(RM062X) =  -962.125884983     A.U. after    1 cycles

 Isotropic polarizability for W=    0.000000       41.21 Bohr**3.
 End of Minotr F.D. properties file   721 does not exist.

                      1                      2                      3
                      A                      A                      A
 Frequencies --     59.4281               185.6357               193.9035
 Red. masses --     13.4532                 6.5715                16.3296
 Frc consts  --      0.0280                 0.1334                 0.3617
 IR Inten    --      1.4426                11.1465                 3.3235

                      4                      5                      6
                      A                      A                      A
 Frequencies --    309.2560               315.7516               342.1288
 Red. masses --      6.4720                 2.7862                13.5195
 Frc consts  --      0.3647                 0.1637                 0.9324
 IR Inten    --      4.8477                38.1861                 1.7685

                      7                      8                      9
                      A                      A                      A
 Frequencies --    368.2605               470.4637               506.3155
 Red. masses --      2.5722                 4.5919                15.1089
 Frc consts  --      0.2055                 0.5988                 2.2821
 IR Inten    --     39.3682                26.3833                26.6386

                     10                     11                     12
                      A                      A                      A
 Frequencies --    571.2536               576.8283               631.2906
 Red. masses --     15.6891                16.4146                19.9842
 Frc consts  --      3.0165                 3.2179                 4.6924
 IR Inten    --      0.8562                 2.7871               158.5274

                     13                     14                     15
                      A                      A                      A
 Frequencies --    794.3008               907.2538              1140.0002
 Red. masses --     17.7062                17.5851                 1.1848
 Frc consts  --      6.5818                 8.5281                 0.9072
 IR Inten    --      3.7077               217.8948                86.9005

                     16                     17                     18
                      A                      A                      A
 Frequencies --   1197.2312              1275.6129              1295.4010
 Red. masses --     14.7896                13.3899                13.4337
 Frc consts  --     12.4900                12.8370                13.2817
 IR Inten    --    266.2241               161.0225               122.7960

                     19                     20                     21
                      A                      A                      A
 Frequencies --   1307.4437              1500.7588              3811.1375
 Red. masses --     15.0939                15.3139                 1.0657
 Frc consts  --     15.2019                20.3215                 9.1199
 IR Inten    --    248.7876               292.9239               186.4692

 - Thermochemistry -
 -------------------
 Temperature   298.150 Kelvin.  Pressure   1.00000 Atm.
 Atom     1 has atomic number  6 and mass  12.00000

 Molecular mass:   149.95985 amu.
 Principal axes and moments of inertia in atomic units:
                           1         2         3
     Eigenvalues --   673.845611131.980881139.42763
           X            0.98841   0.06863  -0.13543
           Y            0.15125  -0.52238   0.83919
           Z            0.01315   0.84995   0.52670
 This molecule is an asymmetric top.
 Rotational symmetry number  1.
 Warning -- assumption of classical behavior for rotation
           may cause significant error
 Rotational temperatures (Kelvin)      0.12854     0.07652     0.07602
 Rotational constants (GHZ):           2.67827     1.59432     1.58390
 Zero-point vibrational energy     106226.3 (Joules/Mol)
                                   25.38870 (Kcal/Mol)
 Warning -- explicit consideration of  11 degrees of freedom as
           vibrations may cause significant error
 Vibrational temperatures:     85.50   267.09   278.98   444.95   454.30
          (Kelvin)            492.25   529.84   676.89   728.48   821.91
                              829.93   908.29  1142.82  1305.34  1640.21
                             1722.55  1835.32  1863.79  1881.12  2159.26
                             5483.38

 Zero-point correction=                           0.040459 (Hartree/Particle)
 Thermal correction to Energy=                    0.047952
 Thermal correction to Enthalpy=                  0.048896
 Thermal correction to Gibbs Free Energy=         0.007838
 Sum of electronic and zero-point Energies=           -962.085426
 Sum of electronic and thermal Energies=              -962.077933
 Sum of electronic and thermal Enthalpies=            -962.076989
 Sum of electronic and thermal Free Energies=         -962.118047

                     E (Thermal)             CV                S
                      KCal/Mol        Cal/Mol-Kelvin    Cal/Mol-Kelvin
 Total                   30.091             25.899             86.414
 Electronic               0.000              0.000              0.000
 Translational            0.889              2.981             40.926
 Rotational               0.889              2.981             28.254
 Vibrational             28.313             19.937             17.234
 Vibration     1          0.597              1.974              4.476
 Vibration     2          0.632              1.859              2.271
 Vibration     3          0.635              1.848              2.190
 Vibration     4          0.699              1.656              1.366
 Vibration     5          0.703              1.644              1.332
 Vibration     6          0.721              1.591              1.202
 Vibration     7          0.741              1.537              1.087
 Vibration     8          0.827              1.316              0.736
 Vibration     9          0.862              1.236              0.643
 Vibration    10          0.927              1.093              0.502
 Vibration    11          0.933              1.081              0.491

 Optimization completed.
    -- Stationary point found.
 Normal termination of Gaussian 16 at Sun May 25 03:47:30 2025.
