 Gaussian 16, Revision C.01,
 Gaussian 16:  ES64L-G16RevC.01  3-Jul-2019

 ----------------------------------------------------------------------
 #P M062X/Def2TZVPP Symm(None) scf(xqc) pop(None) opt(NoFreeze,TS,CalcA
 ll,NoEigentest,MaxCycle=999)
 ----------------------------------------------------------------------

 ------------------------------
 Gaussian input prepared by ASE
 ------------------------------
 Symbolic Z-matrix:
 Charge =  0 Multiplicity = 1

 SCF Done:  E(RM062X) =  -961.789890478     A.U. after   29 cycles
 SCF Done:  E(RM062X) =  -961.825757105     A.U. after   22 cycles
 SCF Done:  E(RM062X) =  -961.849430521     A.U. after   20 cycles
 SCF Done:  E(RM062X) =  -961.872768018     A.U. after   19 cycles
 SCF Done:  E(RM062X) =  -961.887102138     A.U. after   20 cycles
 SCF Done:  E(RM062X) =  -961.902146604     A.U. after   18 cycles
 SCF Done:  E(RM062X) =  -961.913758632     A.U. after   18 cycles
 SCF Done:  E(RM062X) =  -961.919375460     A.U. after   18 cycles
 SCF Done:  E(RM062X) =  -961.920733827     A.U. after   17 cycles
 SCF Done:  E(RM062X) =  -961.921105529     A.U. after   17 cycles
 SCF Done:  E(RM062X) =  -961.921883040     A.U. after   17 cycles
 SCF Done:  E(RM062X) =  -961.922663304     A.U. after   18 cycles
 SCF Done:  E(RM062X) =  -961.922712885     A.U. after   15 cycles
 SCF Done:  E(RM062X) =  -961.922712978     A.U. after   11 cycles

 Isotropic polarizability for W=    0.000000       53.18 Bohr**3.
 End of Minotr F.D. properties file   721 does not exist.

 Optimization completed.
    -- Stationary point found.

                          Input orientation:
 ---------------------------------------------------------------------
 Center     Atomic      Atomic             Coordinates (Angstroms)
 Number     Number       Type             X           Y           Z
 ---------------------------------------------------------------------
      1          6           0       -0.250528   -0.062081    0.149737
      2          9           0       -1.020149    0.555299   -0.743615
      3          9           0       -0.442738    0.508584    1.326486
      4          9           0       -0.619072   -1.335209    0.205944
      5         16           0        1.605688    0.035058   -0.603567
      6          8           0        2.035780   -0.605392    0.705148
      7          8           0        3.164191   -0.175105   -0.649717
      8          8           0        1.547962    1.621666   -0.400690
      9          1           0        2.449378    1.970016   -0.392856
 ---------------------------------------------------------------------

 ******    1 imaginary frequencies (negative Signs) ******

                      1                      2                      3
                      A                      A                      A
 Frequencies --   -979.6828                80.1324               156.9667
 Red. masses --     17.8550                13.8442                13.2610
 Frc consts  --     10.0968                 0.0524                 0.1925
 IR Inten    --    565.0857                 0.4177                 1.6566

                      4                      5                      6
                      A                      A                      A
 Frequencies --    167.4923               219.9135               287.0484
 Red. masses --      8.2173                 4.1521                 3.2276
 Frc consts  --      0.1358                 0.1183                 0.1567
 IR Inten    --      3.0944                22.7382                39.9818

                      7                      8                      9
                      A                      A                      A
 Frequencies --    299.6673               327.7116               400.8757
 Red. masses --      3.3031                 5.2372                11.4579
 Frc consts  --      0.1748                 0.3314                 1.0849
 IR Inten    --     25.5608                22.0811                10.0179

                     10                     11                     12
                      A                      A                      A
 Frequencies --    465.5251               537.0981               554.5041
 Red. masses --      7.4049                17.3524                17.6317
 Frc consts  --      0.9455                 2.9493                 3.1941
 IR Inten    --     32.2307                 1.0441                 0.7150

                     13                     14                     15
                      A                      A                      A
 Frequencies --    743.3649               801.0283               865.5602
 Red. masses --     16.6996                16.5677                17.2872
 Frc consts  --      5.4370                 6.2634                 7.6308
 IR Inten    --     45.0394                58.5568               155.3947

                     16                     17                     18
                      A                      A                      A
 Frequencies --   1097.5329              1120.9011              1161.9659
 Red. masses --      8.6317                12.2244                 1.3211
 Frc consts  --      6.1261                 9.0492                 1.0509
 IR Inten    --     36.5380               484.4941               177.5974

                     19                     20                     21
                      A                      A                      A
 Frequencies --   1233.4462              1274.9701              3825.6393
 Red. masses --     10.9437                10.3154                 1.0656
 Frc consts  --      9.8097                 9.8796                 9.1887
 IR Inten    --    216.8639               236.9329               163.2137

 - Thermochemistry -
 -------------------
 Temperature   298.150 Kelvin.  Pressure   1.00000 Atm.
 Atom     1 has atomic number  6 and mass  12.00000

 Molecular mass:   149.95985 amu.
 Principal axes and moments of inertia in atomic units:
                           1         2         3
     Eigenvalues --   571.783181282.035931431.27670
           X            0.97785  -0.13388   0.16086
           Y            0.06719   0.92875   0.36456
           Z           -0.19820  -0.34568   0.91718
 This molecule is an asymmetric top.
 Rotational symmetry number  1.
 Warning -- assumption of classical behavior for rotation
           may cause significant error
 Rotational temperatures (Kelvin)      0.15148     0.06756     0.06052
 Rotational constants (GHZ):           3.15634     1.40771     1.26093
    1 imaginary frequencies ignored.
 Zero-point vibrational energy      93436.4 (Joules/Mol)
                                   22.33183 (Kcal/Mol)
 Warning -- explicit consideration of  11 degrees of freedom as
           vibrations may cause significant error
 Vibrational temperatures:    115.29   225.84   240.98   316.41   413.00
          (Kelvin)            431.15   471.50   576.77   669.79   772.76
                              797.81  1069.54  1152.50  1245.35  1579.10
                             1612.73  1671.81  1774.65  1834.40  5504.24

 Zero-point correction=                           0.035588 (Hartree/Particle)
 Thermal correction to Energy=                    0.043488
 Thermal correction to Enthalpy=                  0.044432
 Thermal correction to Gibbs Free Energy=         0.002562
 Sum of electronic and zero-point Energies=           -961.887125
 Sum of electronic and thermal Energies=              -961.879225
 Sum of electronic and thermal Enthalpies=            -961.878281
 Sum of electronic and thermal Free Energies=         -961.920151

                     E (Thermal)             CV                S
                      KCal/Mol        Cal/Mol-Kelvin    Cal/Mol-Kelvin
 Total                   27.289             26.664             88.122
 Electronic               0.000              0.000              0.000
 Translational            0.889              2.981             40.926
 Rotational               0.889              2.981             28.441
 Vibrational             25.511             20.702             18.755
 Vibration     1          0.600              1.963              3.888
 Vibration     2          0.621              1.895              2.586
 Vibration     3          0.624              1.882              2.463
 Vibration     4          0.647              1.811              1.960
 Vibration     5          0.684              1.698              1.491
 Vibration     6          0.692              1.674              1.419
 Vibration     7          0.711              1.620              1.271
 Vibration     8          0.767              1.468              0.959
 Vibration     9          0.823              1.327              0.750
 Vibration    10          0.892              1.168              0.572
 Vibration    11          0.910              1.130              0.535

 Normal termination of Gaussian 16 at Sun May 25 04:02:03 2025.
