 Gaussian 16, Revision C.01,
 Gaussian 16:  ES64L-G16RevC.01  3-Jul-2019

 ----------------------------------------------------------------------
 #P M062X/Def2TZVPP Symm(None) scf(xqc) pop(None) opt(NoFreeze,TS,CalcA
 ll,NoEigentest,MaxCycle=999)
 ----------------------------------------------------------------------

 ------------------------------
 Gaussian input prepared by ASE
 ------------------------------
 Symbolic Z-matrix:
 Charge =  0 Multiplicity = 1

 SCF Done:  E(RM062X) =  -961.958722609     A.U. after   16 cycles
 SCF Done:  E(RM062X) =  -962.036140557     A.U. after   14 cycles
 SCF Done:  E(RM062X) =  -962.090585874     A.U. after   13 cycles
 SCF Done:  E(RM062X) =  -962.116807850     A.U. after   12 cycles
 SCF Done:  E(RM062X) =  -962.121517891     A.U. after   13 cycles
 SCF Done:  E(RM062X) =  -962.119420102     A.U. after   12 cycles
 SCF Done:  E(RM062X) =  -962.115730194     A.U. after   13 cycles
 SCF Done:  E(RM062X) =  -962.115918304     A.U. after   12 cycles
 SCF Done:  E(RM062X) =  -962.115953269     A.U. after   11 cycles
 SCF Done:  E(RM062X) =  -962.115953515     A.U. after    7 cycles

 Isotropic polarizability for W=    0.000000       41.27 Bohr**3.
 End of Minotr F.D. properties file   721 does not exist.

 Optimization completed.
    -- Stationary point found.

                          Input orientation:
 ---------------------------------------------------------------------
 Center     Atomic      Atomic             Coordinates (Angstroms)
 Number     Number       Type             X           Y           Z
 ---------------------------------------------------------------------
      1          6           0       -0.005252    0.004012   -0.001215
      2          9           0       -0.475551    0.574536   -1.103075
      3          9           0       -0.414970    0.711004    1.044356
      4          9           0       -0.452337   -1.227405    0.089805
      5         16           0        1.838572   -0.022869   -0.051503
      6          8           0        2.282514   -0.492626    1.206762
      7          8           0        2.212838   -0.643888   -1.266118
      8          8           0        2.134164    1.522710   -0.154267
      9          1           0        1.350537    2.087362   -0.167865
 ---------------------------------------------------------------------

 ******    1 imaginary frequencies (negative Signs) ******

                      1                      2                      3
                      A                      A                      A
 Frequencies --   -485.3510                38.2415               193.3480
 Red. masses --      1.1212                14.8647                 9.9752
 Frc consts  --      0.1556                 0.0128                 0.2197
 IR Inten    --    103.0579                 0.4386                12.2017

                      4                      5                      6
                      A                      A                      A
 Frequencies --    194.5927               308.0848               334.5344
 Red. masses --     14.9383                14.0481                13.9501
 Frc consts  --      0.3333                 0.7856                 0.9198
 IR Inten    --      6.8054                 0.1135                 0.2981

                      7                      8                      9
                      A                      A                      A
 Frequencies --    344.3172               478.8398               513.3400
 Red. masses --     12.5654                10.9530                16.5701
 Frc consts  --      0.8777                 1.4797                 2.5727
 IR Inten    --      1.4715                 6.8661                24.0589

                     10                     11                     12
                      A                      A                      A
 Frequencies --    571.3621               579.4549               615.9484
 Red. masses --     17.0327                16.7863                10.3805
 Frc consts  --      3.2761                 3.3208                 2.3204
 IR Inten    --      0.3408                 2.6087               113.9602

                     13                     14                     15
                      A                      A                      A
 Frequencies --    785.7256               880.7434              1079.5483
 Red. masses --     14.6884                17.1846                 1.1909
 Frc consts  --      5.3428                 7.8540                 0.8178
 IR Inten    --     19.4056               198.7066               182.6710

                     16                     17                     18
                      A                      A                      A
 Frequencies --   1197.3509              1262.5519              1293.6941
 Red. masses --     14.7889                13.0242                13.8891
 Frc consts  --     12.4919                12.2320                13.6958
 IR Inten    --    286.6322               213.6656                42.3304

                     19                     20                     21
                      A                      A                      A
 Frequencies --   1328.9357              1486.7878              3834.7692
 Red. masses --     11.0680                20.6128                 1.0667
 Frc consts  --     11.5167                26.8463                 9.2424
 IR Inten    --    211.5464               290.6150               174.7371

 - Thermochemistry -
 -------------------
 Temperature   298.150 Kelvin.  Pressure   1.00000 Atm.
 Atom     1 has atomic number  6 and mass  12.00000

 Molecular mass:   149.95985 amu.
 Principal axes and moments of inertia in atomic units:
                           1         2         3
     Eigenvalues --   674.968321133.613901143.33347
           X            0.99898  -0.03530   0.02807
           Y            0.03349   0.99750   0.06227
           Z           -0.03020  -0.06127   0.99766
 This molecule is an asymmetric top.
 Rotational symmetry number  1.
 Warning -- assumption of classical behavior for rotation
           may cause significant error
 Rotational temperatures (Kelvin)      0.12832     0.07641     0.07576
 Rotational constants (GHZ):           2.67382     1.59202     1.57849
    1 imaginary frequencies ignored.
 Zero-point vibrational energy     103609.6 (Joules/Mol)
                                   24.76329 (Kcal/Mol)
 Warning -- explicit consideration of  11 degrees of freedom as
           vibrations may cause significant error
 Vibrational temperatures:     55.02   278.18   279.98   443.27   481.32
          (Kelvin)            495.40   688.94   738.58   822.06   833.71
                              886.21  1130.48  1267.19  1553.23  1722.72
                             1816.53  1861.34  1912.04  2139.16  5517.38

 Zero-point correction=                           0.039463 (Hartree/Particle)
 Thermal correction to Energy=                    0.046630
 Thermal correction to Enthalpy=                  0.047575
 Thermal correction to Gibbs Free Energy=         0.006693
 Sum of electronic and zero-point Energies=           -962.076491
 Sum of electronic and thermal Energies=              -962.069323
 Sum of electronic and thermal Enthalpies=            -962.068379
 Sum of electronic and thermal Free Energies=         -962.109260

                     E (Thermal)             CV                S
                      KCal/Mol        Cal/Mol-Kelvin    Cal/Mol-Kelvin
 Total                   29.261             24.413             86.043
 Electronic               0.000              0.000              0.000
 Translational            0.889              2.981             40.926
 Rotational               0.889              2.981             28.261
 Vibrational             27.484             18.452             16.856
 Vibration     1          0.594              1.982              5.348
 Vibration     2          0.635              1.849              2.195
 Vibration     3          0.635              1.847              2.184
 Vibration     4          0.698              1.658              1.373
 Vibration     5          0.716              1.607              1.238
 Vibration     6          0.723              1.587              1.192
 Vibration     7          0.835              1.297              0.713
 Vibration     8          0.868              1.220              0.626
 Vibration     9          0.928              1.093              0.502
 Vibration    10          0.936              1.076              0.486
 Vibration    11          0.976              0.998              0.423

 Normal termination of Gaussian 16 at Sun May 25 03:49:15 2025.
