 Gaussian 16, Revision C.01,
 Gaussian 16:  ES64L-G16RevC.01  3-Jul-2019

 -----------------------------------------------------------------
 #P M062X/Def2TZVPP Symm(None) scf(xqc) pop(None) freq opt(CalcFC)
 -----------------------------------------------------------------

 ------------------------------
 Gaussian input prepared by ASE
 ------------------------------
 Symbolic Z-matrix:
 Charge =  0 Multiplicity = 1

 SCF Done:  E(RM062X) =  -962.125076213     A.U. after   13 cycles
 SCF Done:  E(RM062X) =  -962.125851676     A.U. after   11 cycles
 SCF Done:  E(RM062X) =  -962.125888356     A.U. after   10 cycles
 SCF Done:  E(RM062X) =  -962.125889197     A.U. after    8 cycles
 Optimization completed.
    -- Stationary point found.
 Normal termination of Gaussian 16 at Sun May 25 04:20:38 2025.

 ---------------------------------------------------------------------
 #P Geom=AllCheck Guess=TCheck SCRF=Check GenChk RM062X/def2TZVPP Freq
 ---------------------------------------------------------------------

 Structure from the checkpoint file:  "1502984803620600000001_r12_insertion_R_6_5_1_IRC_F_prod.chk"
 ------------------------------
 Gaussian input prepared by ASE
 ------------------------------
 Charge =  0 Multiplicity = 1

                          Input orientation:
 ---------------------------------------------------------------------
 Center     Atomic      Atomic             Coordinates (Angstroms)
 Number     Number       Type             X           Y           Z
 ---------------------------------------------------------------------
      1          6           0       -0.966259   -0.066248    0.056473
      2          9           0       -1.448355    0.541205   -1.019382
      3          9           0       -1.388165    0.562618    1.136060
      4          9           0       -1.383358   -1.317206    0.078388
      5         16           0        0.872496   -0.052565   -0.012923
      6          8           0        1.340465   -0.492531    1.243742
      7          8           0        1.239504   -0.650127   -1.246436
      8          8           0        1.111200    1.499523   -0.096396
      9          1           0        1.165121    1.778468   -1.021842
 ---------------------------------------------------------------------

 SCF Done:  E(RM062X) =  -962.125889197     A.U. after    1 cycles

 Isotropic polarizability for W=    0.000000       41.22 Bohr**3.
 End of Minotr F.D. properties file   721 does not exist.

                      1                      2                      3
                      A                      A                      A
 Frequencies --     59.6452               187.9590               195.0266
 Red. masses --     13.4281                 7.1999                16.8080
 Frc consts  --      0.0281                 0.1499                 0.3767
 IR Inten    --      1.4382                10.0323                 3.0321

                      4                      5                      6
                      A                      A                      A
 Frequencies --    309.8834               323.0082               342.4406
 Red. masses --     11.4639                 3.0706                13.5061
 Frc consts  --      0.6486                 0.1888                 0.9332
 IR Inten    --      0.6555                30.4702                 1.7344

                      7                      8                      9
                      A                      A                      A
 Frequencies --    375.7269               471.0824               506.8537
 Red. masses --      2.0391                 4.3261                14.9793
 Frc consts  --      0.1696                 0.5656                 2.2673
 IR Inten    --     50.5034                27.6138                26.9768

                     10                     11                     12
                      A                      A                      A
 Frequencies --    571.2213               576.9482               631.7389
 Red. masses --     15.6934                16.3524                19.9529
 Frc consts  --      3.0170                 3.2070                 4.6917
 IR Inten    --      0.8648                 2.8013               159.4508

                     13                     14                     15
                      A                      A                      A
 Frequencies --    794.6770               906.7654              1138.9894
 Red. masses --     17.7026                17.6177                 1.1845
 Frc consts  --      6.5867                 8.5347                 0.9054
 IR Inten    --      3.7601               217.8602                87.3353

                     16                     17                     18
                      A                      A                      A
 Frequencies --   1197.6024              1276.1880              1296.3959
 Red. masses --     14.8184                13.3948                13.3940
 Frc consts  --     12.5221                12.8533                13.2629
 IR Inten    --    266.3944               161.5663               130.8976

                     19                     20                     21
                      A                      A                      A
 Frequencies --   1308.8168              1502.6590              3809.3490
 Red. masses --     15.2134                15.3675                 1.0657
 Frc consts  --     15.3545                20.4444                 9.1114
 IR Inten    --    239.9175               293.2229               186.3700

 - Thermochemistry -
 -------------------
 Temperature   298.150 Kelvin.  Pressure   1.00000 Atm.
 Atom     1 has atomic number  6 and mass  12.00000

 Molecular mass:   149.95985 amu.
 Principal axes and moments of inertia in atomic units:
                           1         2         3
     Eigenvalues --   673.834981131.979421139.45402
           X            0.99619   0.07589  -0.04302
           Y            0.07375  -0.46924   0.87998
           Z           -0.04659   0.87980   0.47305
 This molecule is an asymmetric top.
 Rotational symmetry number  1.
 Warning -- assumption of classical behavior for rotation
           may cause significant error
 Rotational temperatures (Kelvin)      0.12854     0.07652     0.07601
 Rotational constants (GHZ):           2.67831     1.59432     1.58386
 Zero-point vibrational energy     106365.8 (Joules/Mol)
                                   25.42204 (Kcal/Mol)
 Warning -- explicit consideration of  11 degrees of freedom as
           vibrations may cause significant error
 Vibrational temperatures:     85.82   270.43   280.60   445.85   464.74
          (Kelvin)            492.70   540.59   677.78   729.25   821.86
                              830.10   908.93  1143.36  1304.63  1638.75
                             1723.08  1836.15  1865.22  1883.10  2161.99
                             5480.80

 Zero-point correction=                           0.040513 (Hartree/Particle)
 Thermal correction to Energy=                    0.047981
 Thermal correction to Enthalpy=                  0.048925
 Thermal correction to Gibbs Free Energy=         0.007923
 Sum of electronic and zero-point Energies=           -962.085377
 Sum of electronic and thermal Energies=              -962.077909
 Sum of electronic and thermal Enthalpies=            -962.076964
 Sum of electronic and thermal Free Energies=         -962.117967

                     E (Thermal)             CV                S
                      KCal/Mol        Cal/Mol-Kelvin    Cal/Mol-Kelvin
 Total                   30.108             25.857             86.296
 Electronic               0.000              0.000              0.000
 Translational            0.889              2.981             40.926
 Rotational               0.889              2.981             28.254
 Vibrational             28.331             19.895             17.116
 Vibration     1          0.597              1.974              4.469
 Vibration     2          0.633              1.856              2.248
 Vibration     3          0.636              1.847              2.180
 Vibration     4          0.699              1.655              1.363
 Vibration     5          0.708              1.629              1.295
 Vibration     6          0.722              1.591              1.201
 Vibration     7          0.747              1.522              1.056
 Vibration     8          0.828              1.314              0.735
 Vibration     9          0.862              1.235              0.641
 Vibration    10          0.927              1.093              0.502
 Vibration    11          0.933              1.081              0.491

 Optimization completed.
    -- Stationary point found.
 Normal termination of Gaussian 16 at Sun May 25 04:22:29 2025.
