 Gaussian 16, Revision C.01,
 Gaussian 16:  ES64L-G16RevC.01  3-Jul-2019

 ----------------------------------------------------------------------
 #P M062X/Def2TZVPP Symm(None) scf(xqc) pop(None) opt(CalcAll,Cartesian
 )
 ----------------------------------------------------------------------

 ------------------------------
 Gaussian input prepared by ASE
 ------------------------------
 Symbolic Z-matrix:
 Charge =  0 Multiplicity = 1

 SCF Done:  E(RM062X) =  -962.050066597     A.U. after   13 cycles
 SCF Done:  E(RM062X) =  -962.050066778     A.U. after    8 cycles

 Isotropic polarizability for W=    0.000000       42.33 Bohr**3.
 End of Minotr F.D. properties file   721 does not exist.

 Optimization completed.
    -- Stationary point found.

                          Input orientation:
 ---------------------------------------------------------------------
 Center     Atomic      Atomic             Coordinates (Angstroms)
 Number     Number       Type             X           Y           Z
 ---------------------------------------------------------------------
      1          6           0       -1.755360   -1.175793   -0.594116
      2          9           0       -2.723535   -1.185826    0.263120
      3          9           0       -0.041164    1.781042   -0.615860
      4          9           0       -1.164835   -2.314860   -0.435042
      5         16           0        0.859071    0.740436    0.084774
      6          8           0        0.101362    0.177647    1.127792
      7          8           0        1.476608   -0.014952   -0.933470
      8          8           0        1.894417    1.713434    0.729207
      9          1           0        2.619601    1.885537    0.112050
 ---------------------------------------------------------------------

                      1                      2                      3
                      A                      A                      A
 Frequencies --     21.6711                37.8370                42.5235
 Red. masses --     14.8637                13.9980                13.0499
 Frc consts  --      0.0041                 0.0118                 0.0139
 IR Inten    --      2.2959                 1.9429                 5.5648

                      4                      5                      6
                      A                      A                      A
 Frequencies --     57.6049                62.4895               185.0491
 Red. masses --     15.9887                17.0166                12.4682
 Frc consts  --      0.0313                 0.0392                 0.2516
 IR Inten    --      0.2843                 0.7881                 1.2663

                      7                      8                      9
                      A                      A                      A
 Frequencies --    295.2265               387.6683               426.8346
 Red. masses --      1.3292                15.4478                 3.6292
 Frc consts  --      0.0683                 1.3678                 0.3896
 IR Inten    --     79.3966                 0.2512                26.5161

                     10                     11                     12
                      A                      A                      A
 Frequencies --    529.2202               555.0335               567.5934
 Red. masses --      7.3862                18.1776                15.6493
 Frc consts  --      1.2188                 3.2993                 2.9704
 IR Inten    --     33.0827                25.7631                60.8566

                     13                     14                     15
                      A                      A                      A
 Frequencies --    691.5665               876.0261               944.9824
 Red. masses --     17.6991                19.5780                18.3827
 Frc consts  --      4.9874                 8.8522                 9.6718
 IR Inten    --      3.8251               140.5251               292.2620

                     16                     17                     18
                      A                      A                      A
 Frequencies --   1162.3445              1185.9140              1285.8112
 Red. masses --      1.1923                13.5380                17.6130
 Frc consts  --      0.9491                11.2179                17.1568
 IR Inten    --     91.5513               340.0167               292.6477

                     19                     20                     21
                      A                      A                      A
 Frequencies --   1291.1137              1520.6918              3815.9219
 Red. masses --     14.2984                14.7288                 1.0657
 Frc consts  --     14.0432                20.0678                 9.1428
 IR Inten    --     59.6665               306.9396               193.7537

 - Thermochemistry -
 -------------------
 Temperature   298.150 Kelvin.  Pressure   1.00000 Atm.
 Atom     1 has atomic number  6 and mass  12.00000

 Molecular mass:   149.95985 amu.
 Principal axes and moments of inertia in atomic units:
                           1         2         3
     Eigenvalues --   506.979212036.336062160.98427
           X            0.74662  -0.63933   0.18390
           Y            0.66253   0.68959  -0.29243
           Z            0.06015   0.34017   0.93844
 This molecule is an asymmetric top.
 Rotational symmetry number  1.
 Warning -- assumption of classical behavior for rotation
           may cause significant error
 Rotational temperatures (Kelvin)      0.17084     0.04253     0.04008
 Rotational constants (GHZ):           3.55979     0.88627     0.83515
 Zero-point vibrational energy      95361.1 (Joules/Mol)
                                   22.79184 (Kcal/Mol)
 Warning -- explicit consideration of  12 degrees of freedom as
           vibrations may cause significant error
 Vibrational temperatures:     31.18    54.44    61.18    82.88    89.91
          (Kelvin)            266.24   424.77   557.77   614.12   761.43
                              798.57   816.64   995.01  1260.41  1359.62
                             1672.35  1706.27  1850.00  1857.62  2187.94
                             5490.26

 Zero-point correction=                           0.036321 (Hartree/Particle)
 Thermal correction to Energy=                    0.045859
 Thermal correction to Enthalpy=                  0.046804
 Thermal correction to Gibbs Free Energy=        -0.002606
 Sum of electronic and zero-point Energies=           -962.013746
 Sum of electronic and thermal Energies=              -962.004207
 Sum of electronic and thermal Enthalpies=            -962.003263
 Sum of electronic and thermal Free Energies=         -962.052672

                     E (Thermal)             CV                S
                      KCal/Mol        Cal/Mol-Kelvin    Cal/Mol-Kelvin
 Total                   28.777             28.365            103.991
 Electronic               0.000              0.000              0.000
 Translational            0.889              2.981             40.926
 Rotational               0.889              2.981             29.191
 Vibrational             27.000             22.403             33.874
 Vibration     1          0.593              1.985              6.475
 Vibration     2          0.594              1.982              5.369
 Vibration     3          0.595              1.980              5.138
 Vibration     4          0.596              1.974              4.538
 Vibration     5          0.597              1.972              4.377
 Vibration     6          0.631              1.860              2.277
 Vibration     7          0.689              1.683              1.444
 Vibration     8          0.756              1.497              1.009
 Vibration     9          0.789              1.412              0.869
 Vibration    10          0.884              1.185              0.589
 Vibration    11          0.910              1.129              0.534
 Vibration    12          0.924              1.101              0.509

 Normal termination of Gaussian 16 at Sun May 25 04:36:09 2025.
