 Gaussian 16, Revision C.01,
 Gaussian 16:  ES64L-G16RevC.01  3-Jul-2019

 ----------------------------------------------------------------------
 #P M062X/Def2TZVPP Symm(None) scf(xqc) pop(None) geom(AllCheck,NoKeepC
 onstants) guess(Read) irc(RCFC,forward,MaxPoints=100,StepSize=2)
 ----------------------------------------------------------------------

 Structure from the checkpoint file:  "1502984803620600000001_r13_insertion_ROR_2_1_5_8_IRC_F.chk"
 ------------------------------
 Gaussian input prepared by ASE
 ------------------------------
 Charge =  0 Multiplicity = 1

 SCF Done:  E(RM062X) =  -962.047378497     A.U. after    9 cycles

                          Input orientation:
 ---------------------------------------------------------------------
 Center     Atomic      Atomic             Coordinates (Angstroms)
 Number     Number       Type             X           Y           Z
 ---------------------------------------------------------------------
      1          6           0        0.005120   -0.962520   -0.081862
      2          9           0       -2.069899   -0.484770    0.086131
      3          9           0        0.031160   -1.720532    0.920770
      4          9           0       -0.066257   -1.597142   -1.161475
      5         16           0        0.499849    0.917360    0.025222
      6          8           0        1.728899    0.751556    0.720981
      7          8           0        0.510015    1.245405   -1.354999
      8          8           0       -0.626568    1.383711    0.802304
      9          1           0       -1.826141    0.384126    0.417629
 ---------------------------------------------------------------------

 Normal termination of Gaussian 16 at Sun May 25 05:11:44 2025.
