 Gaussian 16, Revision C.01,
 Gaussian 16:  ES64L-G16RevC.01  3-Jul-2019

 -----------------------------------------------------------------
 #P M062X/Def2TZVPP Symm(None) scf(xqc) pop(None) freq opt(CalcFC)
 -----------------------------------------------------------------

 ------------------------------
 Gaussian input prepared by ASE
 ------------------------------
 Symbolic Z-matrix:
 Charge =  0 Multiplicity = 1

 SCF Done:  E(RM062X) =  -962.041359190     A.U. after   13 cycles
 SCF Done:  E(RM062X) =  -962.043507305     A.U. after   13 cycles
 SCF Done:  E(RM062X) =  -962.046476118     A.U. after   13 cycles
 SCF Done:  E(RM062X) =  -962.046828358     A.U. after   13 cycles
 SCF Done:  E(RM062X) =  -962.045265480     A.U. after   15 cycles
 SCF Done:  E(RM062X) =  -962.047518768     A.U. after   13 cycles
 SCF Done:  E(RM062X) =  -962.047671651     A.U. after   13 cycles
 SCF Done:  E(RM062X) =  -962.047739312     A.U. after   12 cycles
 SCF Done:  E(RM062X) =  -962.047823073     A.U. after   12 cycles
 SCF Done:  E(RM062X) =  -962.047904368     A.U. after   13 cycles
 SCF Done:  E(RM062X) =  -962.050065203     A.U. after   11 cycles
 SCF Done:  E(RM062X) =  -962.050069563     A.U. after   11 cycles
 SCF Done:  E(RM062X) =  -962.050052794     A.U. after   11 cycles
 SCF Done:  E(RM062X) =  -962.050073164     A.U. after   12 cycles
 SCF Done:  E(RM062X) =  -962.050072147     A.U. after   11 cycles
 SCF Done:  E(RM062X) =  -962.050074864     A.U. after   11 cycles
 SCF Done:  E(RM062X) =  -962.050075120     A.U. after    8 cycles
 SCF Done:  E(RM062X) =  -962.050075049     A.U. after    8 cycles
 SCF Done:  E(RM062X) =  -962.050075132     A.U. after    8 cycles
 Optimization completed.
    -- Stationary point found.
 Normal termination of Gaussian 16 at Sun May 25 04:28:12 2025.

 ---------------------------------------------------------------------
 #P Geom=AllCheck Guess=TCheck SCRF=Check GenChk RM062X/def2TZVPP Freq
 ---------------------------------------------------------------------

 Structure from the checkpoint file:  "1502984803620600000001_r12_insertion_R_2_1_5_IRC_F_prod.chk"
 ------------------------------
 Gaussian input prepared by ASE
 ------------------------------
 Charge =  0 Multiplicity = 1

                          Input orientation:
 ---------------------------------------------------------------------
 Center     Atomic      Atomic             Coordinates (Angstroms)
 Number     Number       Type             X           Y           Z
 ---------------------------------------------------------------------
      1          6           0       -1.719839   -1.366423    0.123660
      2          9           0       -0.079285    1.156874   -1.465053
      3          9           0       -1.144189   -2.236930    0.886668
      4          9           0       -2.696571   -0.903281    0.833416
      5         16           0        0.855325    0.670288   -0.336296
      6          8           0        0.114835    0.716653    0.858814
      7          8           0        1.503163   -0.487321   -0.814677
      8          8           0        1.852562    1.869901   -0.316868
      9          1           0        2.573061    1.715067   -0.943982
 ---------------------------------------------------------------------

 SCF Done:  E(RM062X) =  -962.050075132     A.U. after    1 cycles

 Isotropic polarizability for W=    0.000000       42.36 Bohr**3.
 End of Minotr F.D. properties file   721 does not exist.

                      1                      2                      3
                      A                      A                      A
 Frequencies --     30.4662                39.4900                46.8205
 Red. masses --     12.5840                16.3891                12.9125
 Frc consts  --      0.0069                 0.0151                 0.0167
 IR Inten    --      3.5191                 0.9026                 5.8809

                      4                      5                      6
                      A                      A                      A
 Frequencies --     60.0456                64.4620               183.5134
 Red. masses --     17.1690                16.0657                12.4944
 Frc consts  --      0.0365                 0.0393                 0.2479
 IR Inten    --      0.3155                 0.4550                 1.3805

                      7                      8                      9
                      A                      A                      A
 Frequencies --    283.8126               388.0059               424.7921
 Red. masses --      1.2897                15.5126                 3.9721
 Frc consts  --      0.0612                 1.3760                 0.4223
 IR Inten    --     82.9514                 0.2400                23.5276

                     10                     11                     12
                      A                      A                      A
 Frequencies --    529.7667               555.5890               567.5040
 Red. masses --      7.3941                18.1711                15.6962
 Frc consts  --      1.2227                 3.3047                 2.9784
 IR Inten    --     33.8511                25.2213                60.2715

                     13                     14                     15
                      A                      A                      A
 Frequencies --    692.0766               876.0177               945.1829
 Red. masses --     17.6997                19.5816                18.4019
 Frc consts  --      4.9949                 8.8537                 9.6860
 IR Inten    --      3.8535               140.0251               293.1441

                     16                     17                     18
                      A                      A                      A
 Frequencies --   1162.3159              1187.5721              1286.6109
 Red. masses --      1.1919                13.5808                17.3941
 Frc consts  --      0.9487                11.2849                16.9647
 IR Inten    --     90.7005               340.3272               297.9455

                     19                     20                     21
                      A                      A                      A
 Frequencies --   1291.6081              1521.6897              3816.5921
 Red. masses --     14.4529                14.7623                 1.0657
 Frc consts  --     14.2058                20.1398                 9.1461
 IR Inten    --     55.5333               307.4048               193.9283

 - Thermochemistry -
 -------------------
 Temperature   298.150 Kelvin.  Pressure   1.00000 Atm.
 Atom     1 has atomic number  6 and mass  12.00000

 Molecular mass:   149.95985 amu.
 Principal axes and moments of inertia in atomic units:
                           1         2         3
     Eigenvalues --   507.913642039.818772165.59390
           X            0.73487  -0.65547   0.17414
           Y            0.60572   0.74982   0.26623
           Z           -0.30507  -0.09016   0.94805
 This molecule is an asymmetric top.
 Rotational symmetry number  1.
 Warning -- assumption of classical behavior for rotation
           may cause significant error
 Rotational temperatures (Kelvin)      0.17053     0.04246     0.04000
 Rotational constants (GHZ):           3.55324     0.88476     0.83337
 Zero-point vibrational energy      95425.7 (Joules/Mol)
                                   22.80729 (Kcal/Mol)
 Warning -- explicit consideration of  12 degrees of freedom as
           vibrations may cause significant error
 Vibrational temperatures:     43.83    56.82    67.36    86.39    92.75
          (Kelvin)            264.03   408.34   558.25   611.18   762.22
                              799.37   816.51   995.74  1260.39  1359.91
                             1672.31  1708.65  1851.15  1858.34  2189.37
                             5491.22

 Zero-point correction=                           0.036346 (Hartree/Particle)
 Thermal correction to Energy=                    0.045861
 Thermal correction to Enthalpy=                  0.046805
 Thermal correction to Gibbs Free Energy=        -0.002127
 Sum of electronic and zero-point Energies=           -962.013729
 Sum of electronic and thermal Energies=              -962.004214
 Sum of electronic and thermal Enthalpies=            -962.003270
 Sum of electronic and thermal Free Energies=         -962.052202

                     E (Thermal)             CV                S
                      KCal/Mol        Cal/Mol-Kelvin    Cal/Mol-Kelvin
 Total                   28.778             28.381            102.986
 Electronic               0.000              0.000              0.000
 Translational            0.889              2.981             40.926
 Rotational               0.889              2.981             29.197
 Vibrational             27.001             22.419             32.864
 Vibration     1          0.594              1.984              5.799
 Vibration     2          0.594              1.981              5.285
 Vibration     3          0.595              1.979              4.947
 Vibration     4          0.597              1.973              4.456
 Vibration     5          0.597              1.971              4.316
 Vibration     6          0.631              1.862              2.292
 Vibration     7          0.682              1.704              1.511
 Vibration     8          0.756              1.496              1.008
 Vibration     9          0.787              1.416              0.876
 Vibration    10          0.885              1.184              0.588
 Vibration    11          0.911              1.127              0.533
 Vibration    12          0.923              1.102              0.509

 Optimization completed.
    -- Stationary point found.
 Normal termination of Gaussian 16 at Sun May 25 04:29:36 2025.
