 Gaussian 16, Revision C.01,
 Gaussian 16:  ES64L-G16RevC.01  3-Jul-2019

 ----------------------------------------------------------------------
 #P M062X/Def2TZVPP Symm(None) scf(xqc) pop(None) geom(AllCheck,NoKeepC
 onstants) guess(Read) irc(RCFC,reverse,MaxPoints=100,StepSize=2)
 ----------------------------------------------------------------------

 Structure from the checkpoint file:  "1502984803620600000001_r12_insertion_R_8_5_1_IRC_R.chk"
 ------------------------------
 Gaussian input prepared by ASE
 ------------------------------
 Charge =  0 Multiplicity = 1

 SCF Done:  E(RM062X) =  -962.121527952     A.U. after    8 cycles

                          Input orientation:
 ---------------------------------------------------------------------
 Center     Atomic      Atomic             Coordinates (Angstroms)
 Number     Number       Type             X           Y           Z
 ---------------------------------------------------------------------
      1          6           0       -0.927974   -0.173362    0.059305
      2          9           0       -1.511664    0.301750   -1.023726
      3          9           0       -1.400984    0.443272    1.124894
      4          9           0       -1.161343   -1.469350    0.156618
      5         16           0        0.897133    0.048611   -0.049287
      6          8           0        1.463164   -0.341995    1.190581
      7          8           0        1.336750   -0.510956   -1.275496
      8          8           0        0.833588    1.619982   -0.153586
      9          1           0        1.720805    2.002973   -0.216873
 ---------------------------------------------------------------------

 Normal termination of Gaussian 16 at Sun May 25 03:41:26 2025.
