 Gaussian 16, Revision C.01,
 Gaussian 16:  ES64L-G16RevC.01  3-Jul-2019

 ----------------------------------------------------------------------
 #P M062X/Def2TZVPP Symm(None) scf(xqc) pop(None) opt(NoFreeze,TS,CalcA
 ll,NoEigentest,MaxCycle=999)
 ----------------------------------------------------------------------

 ------------------------------
 Gaussian input prepared by ASE
 ------------------------------
 Symbolic Z-matrix:
 Charge =  0 Multiplicity = 1

 SCF Done:  E(RM062X) =  -961.904049857     A.U. after   19 cycles
 SCF Done:  E(RM062X) =  -961.968639501     A.U. after   15 cycles
 SCF Done:  E(RM062X) =  -962.044419043     A.U. after   14 cycles
 SCF Done:  E(RM062X) =  -962.093725860     A.U. after   13 cycles
 SCF Done:  E(RM062X) =  -962.118068854     A.U. after   12 cycles
 SCF Done:  E(RM062X) =  -962.120030160     A.U. after   12 cycles
 SCF Done:  E(RM062X) =  -962.120719872     A.U. after   12 cycles
 SCF Done:  E(RM062X) =  -962.120762316     A.U. after   10 cycles
 SCF Done:  E(RM062X) =  -962.120762772     A.U. after    8 cycles

 Isotropic polarizability for W=    0.000000       41.48 Bohr**3.
 End of Minotr F.D. properties file   721 does not exist.

 Optimization completed.
    -- Stationary point found.

                          Input orientation:
 ---------------------------------------------------------------------
 Center     Atomic      Atomic             Coordinates (Angstroms)
 Number     Number       Type             X           Y           Z
 ---------------------------------------------------------------------
      1          6           0       -0.099391   -0.016943    0.149980
      2          9           0       -0.654653    1.148944   -0.140499
      3          9           0       -0.478895   -0.393385    1.352559
      4          9           0       -0.492213   -0.911784   -0.736128
      5         16           0        1.770405    0.114351    0.103421
      6          8           0        2.219733    0.005467    1.437293
      7          8           0        2.213955   -0.727164   -0.949979
      8          8           0        1.957928    1.613897   -0.328647
      9          1           0        2.033646    1.679450   -1.291129
 ---------------------------------------------------------------------

 ******    1 imaginary frequencies (negative Signs) ******

                      1                      2                      3
                      A                      A                      A
 Frequencies --    -60.2330               218.0240               233.3263
 Red. masses --     13.0125                 4.8245                10.1787
 Frc consts  --      0.0278                 0.1351                 0.3265
 IR Inten    --      1.9925                16.1806                 4.4982

                      4                      5                      6
                      A                      A                      A
 Frequencies --    287.9388               319.5473               328.6812
 Red. masses --      2.2378                15.4794                14.8865
 Frc consts  --      0.1093                 0.9313                 0.9475
 IR Inten    --     44.4687                 0.3864                 1.7366

                      7                      8                      9
                      A                      A                      A
 Frequencies --    365.3302               471.2375               505.4381
 Red. masses --      3.2393                 4.6760                15.3580
 Frc consts  --      0.2547                 0.6118                 2.3116
 IR Inten    --     30.3582                25.9297                28.3128

                     10                     11                     12
                      A                      A                      A
 Frequencies --    571.7561               575.8969               630.0644
 Red. masses --     15.6583                16.6208                20.0154
 Frc consts  --      3.0159                 3.2478                 4.6815
 IR Inten    --      0.8882                 2.2142               163.2184

                     13                     14                     15
                      A                      A                      A
 Frequencies --    788.6280               907.7760              1138.5683
 Red. masses --     17.4339                17.6355                 1.1852
 Frc consts  --      6.3883                 8.5624                 0.9052
 IR Inten    --      5.7713               227.4274                79.7282

                     16                     17                     18
                      A                      A                      A
 Frequencies --   1182.6034              1275.6334              1293.1518
 Red. masses --     14.3682                13.8453                15.1245
 Frc consts  --     11.8395                13.2741                14.9015
 IR Inten    --    271.7610                74.3264               233.0415

                     19                     20                     21
                      A                      A                      A
 Frequencies --   1303.4992              1501.5178              3815.3031
 Red. masses --     13.3771                15.4646                 1.0658
 Frc consts  --     13.3916                20.5423                 9.1406
 IR Inten    --    225.2212               288.8273               185.3876

 - Thermochemistry -
 -------------------
 Temperature   298.150 Kelvin.  Pressure   1.00000 Atm.
 Atom     1 has atomic number  6 and mass  12.00000

 Molecular mass:   149.95985 amu.
 Principal axes and moments of inertia in atomic units:
                           1         2         3
     Eigenvalues --   670.854791161.226061169.23408
           X            0.98959   0.06937  -0.12607
           Y            0.13490  -0.14232   0.98059
           Z           -0.05008   0.98739   0.15019
 This molecule is an asymmetric top.
 Rotational symmetry number  1.
 Warning -- assumption of classical behavior for rotation
           may cause significant error
 Rotational temperatures (Kelvin)      0.12911     0.07459     0.07408
 Rotational constants (GHZ):           2.69021     1.55417     1.54352
    1 imaginary frequencies ignored.
 Zero-point vibrational energy     105952.8 (Joules/Mol)
                                   25.32332 (Kcal/Mol)
 Warning -- explicit consideration of  10 degrees of freedom as
           vibrations may cause significant error
 Vibrational temperatures:    313.69   335.70   414.28   459.76   472.90
          (Kelvin)            525.63   678.01   727.21   822.63   828.59
                              906.52  1134.66  1306.09  1638.15  1701.50
                             1835.35  1860.56  1875.44  2160.35  5489.37

 Zero-point correction=                           0.040355 (Hartree/Particle)
 Thermal correction to Energy=                    0.046967
 Thermal correction to Enthalpy=                  0.047911
 Thermal correction to Gibbs Free Energy=         0.009169
 Sum of electronic and zero-point Energies=           -962.080407
 Sum of electronic and thermal Energies=              -962.073796
 Sum of electronic and thermal Enthalpies=            -962.072852
 Sum of electronic and thermal Free Energies=         -962.111594

                     E (Thermal)             CV                S
                      KCal/Mol        Cal/Mol-Kelvin    Cal/Mol-Kelvin
 Total                   29.472             23.913             81.540
 Electronic               0.000              0.000              0.000
 Translational            0.889              2.981             40.926
 Rotational               0.889              2.981             28.301
 Vibrational             27.695             17.951             12.313
 Vibration     1          0.646              1.814              1.975
 Vibration     2          0.654              1.790              1.853
 Vibration     3          0.685              1.696              1.486
 Vibration     4          0.705              1.636              1.312
 Vibration     5          0.712              1.618              1.267
 Vibration     6          0.739              1.544              1.099
 Vibration     7          0.828              1.314              0.734
 Vibration     8          0.861              1.238              0.645
 Vibration     9          0.928              1.092              0.501
 Vibration    10          0.932              1.083              0.493

 Normal termination of Gaussian 16 at Sun May 25 04:03:22 2025.
