 Gaussian 16, Revision C.01,
 Gaussian 16:  ES64L-G16RevC.01  3-Jul-2019

 -----------------------------------------------------------
 #P mp2/6-31G Symm(None) scf(xqc) pop(None) freq opt(CalcFC)
 -----------------------------------------------------------

 ------------------------------
 Gaussian input prepared by ASE
 ------------------------------
 Symbolic Z-matrix:
 Charge =  0 Multiplicity = 1

 SCF Done:  E(RHF) =  -958.235141973     A.U. after   14 cycles
 E2 =    -0.9037536229D+00 EUMP2 =    -0.95913889559584D+03
 E2 =    -0.9037536229D+00 EUMP2 =    -0.95913889559584D+03
 SCF Done:  E(RHF) =  -958.298064766     A.U. after   15 cycles
 E2 =    -0.9255856809D+00 EUMP2 =    -0.95922365044667D+03
 SCF Done:  E(RHF) =  -958.305897985     A.U. after   17 cycles
 E2 =    -0.9524048329D+00 EUMP2 =    -0.95925830281817D+03
 SCF Done:  E(RHF) =  -958.309355419     A.U. after   14 cycles
 E2 =    -0.9499720398D+00 EUMP2 =    -0.95925932745915D+03
 SCF Done:  E(RHF) =  -958.311666251     A.U. after   16 cycles
 E2 =    -0.9484866385D+00 EUMP2 =    -0.95926015288962D+03
 SCF Done:  E(RHF) =  -958.311186830     A.U. after   15 cycles
 E2 =    -0.9491763056D+00 EUMP2 =    -0.95926036313526D+03
 SCF Done:  E(RHF) =  -958.309966962     A.U. after   15 cycles
 E2 =    -0.9505668795D+00 EUMP2 =    -0.95926053384183D+03
 SCF Done:  E(RHF) =  -958.309728719     A.U. after   14 cycles
 E2 =    -0.9508448246D+00 EUMP2 =    -0.95926057354378D+03
 SCF Done:  E(RHF) =  -958.309824322     A.U. after   15 cycles
 E2 =    -0.9507922367D+00 EUMP2 =    -0.95926061655824D+03
 SCF Done:  E(RHF) =  -958.309834774     A.U. after   13 cycles
 E2 =    -0.9507900011D+00 EUMP2 =    -0.95926062477478D+03
 SCF Done:  E(RHF) =  -958.309972141     A.U. after   13 cycles
 E2 =    -0.9506611339D+00 EUMP2 =    -0.95926063327508D+03
 SCF Done:  E(RHF) =  -958.310076191     A.U. after   13 cycles
 E2 =    -0.9505606184D+00 EUMP2 =    -0.95926063680908D+03
 SCF Done:  E(RHF) =  -958.310100844     A.U. after   12 cycles
 E2 =    -0.9505361930D+00 EUMP2 =    -0.95926063703677D+03
 Optimization completed.
    -- Stationary point found.
 Normal termination of Gaussian 16 at Sun May 25 03:14:02 2025.

 -------------------------------------------------------------------
 #P Geom=AllCheck Guess=TCheck SCRF=Check GenChk RMP2(FC)/6-31G Freq
 -------------------------------------------------------------------

 Structure from the checkpoint file:  "1502984803620600000001_well_mp2.chk"
 ------------------------------
 Gaussian input prepared by ASE
 ------------------------------
 Charge =  0 Multiplicity = 1

                          Input orientation:
 ---------------------------------------------------------------------
 Center     Atomic      Atomic             Coordinates (Angstroms)
 Number     Number       Type             X           Y           Z
 ---------------------------------------------------------------------
      1          6           0       -1.217909   -0.081814   -0.042815
      2          9           0       -1.477105    0.454515   -1.280406
      3          9           0       -1.577871    0.776360    0.967292
      4          9           0       -1.861171   -1.296780    0.102358
      5         16           0        0.725347   -0.447313    0.096440
      6          8           0        1.083210   -0.907221    1.580472
      7          8           0        1.206702   -1.298090   -1.163201
      8          8           0        1.069232    1.321818   -0.140329
      9          1           0        2.049565    1.478523   -0.119813
 ---------------------------------------------------------------------

 SCF Done:  E(RHF) =  -958.310100844     A.U. after    1 cycles
 E2 =    -0.9505361928D+00 EUMP2 =    -0.95926063703653D+03
 E2 =    -0.9505361928D+00 EUMP2 =    -0.95926063703653D+03

                      1                      2                      3
                      A                      A                      A
 Frequencies --     29.2599                87.7233               143.5678
 Red. masses --      9.2420                 1.3650                 5.1931
 Frc consts  --      0.0047                 0.0062                 0.0631
 IR Inten    --     11.5633               103.5335                10.5991

                      4                      5                      6
                      A                      A                      A
 Frequencies --    160.4093               231.6267               266.5066
 Red. masses --     10.3515                12.3116                11.4305
 Frc consts  --      0.1569                 0.3892                 0.4783
 IR Inten    --      2.3918                 6.8342                22.6926

                      7                      8                      9
                      A                      A                      A
 Frequencies --    268.0343               361.7929               374.1723
 Red. masses --     14.4816                15.4069                13.1983
 Frc consts  --      0.6130                 1.1882                 1.0887
 IR Inten    --      5.8091                42.3797                12.3142

                     10                     11                     12
                      A                      A                      A
 Frequencies --    466.3469               484.2442               491.8992
 Red. masses --     13.4560                17.4857                17.8848
 Frc consts  --      1.7242                 2.4158                 2.5497
 IR Inten    --    103.9532                12.9121                 1.5120

                     13                     14                     15
                      A                      A                      A
 Frequencies --    617.9150               689.5461               965.4947
 Red. masses --     17.9551                16.5732                12.8042
 Frc consts  --      4.0392                 4.6428                 7.0324
 IR Inten    --    174.6983                15.1299               145.2480

                     16                     17                     18
                      A                      A                      A
 Frequencies --   1048.4439              1107.1645              1119.7842
 Red. masses --      4.0143                 1.5512                20.0692
 Frc consts  --      2.5998                 1.1203                14.8268
 IR Inten    --    237.0084               143.4512               166.8898

                     19                     20                     21
                      A                      A                      A
 Frequencies --   1215.7271              1236.3358              3522.3724
 Red. masses --      8.8187                13.3338                 1.0663
 Frc consts  --      7.6794                12.0082                 7.7949
 IR Inten    --    144.6279               234.3256                95.3304

 - Thermochemistry -
 -------------------
 Temperature   298.150 Kelvin.  Pressure   1.00000 Atm.
 Atom     1 has atomic number  6 and mass  12.00000

 Molecular mass:   149.95985 amu.
 Principal axes and moments of inertia in atomic units:
                           1         2         3
     Eigenvalues --   807.241141294.192371311.38313
           X            0.98656   0.15741  -0.04395
           Y           -0.14973   0.97835   0.14286
           Z            0.06549  -0.13436   0.98877
 This molecule is an asymmetric top.
 Rotational symmetry number  1.
 Warning -- assumption of classical behavior for rotation
           may cause significant error
 Rotational temperatures (Kelvin)      0.10730     0.06693     0.06605
 Rotational constants (GHZ):           2.23569     1.39449     1.37621
 Zero-point vibrational energy      89052.2 (Joules/Mol)
                                   21.28399 (Kcal/Mol)
 Warning -- explicit consideration of  13 degrees of freedom as
           vibrations may cause significant error
 Vibrational temperatures:     42.10   126.21   206.56   230.79   333.26
          (Kelvin)            383.44   385.64   520.54   538.35   670.97
                              696.72   707.73   889.04   992.10  1389.13
                             1508.48  1592.96  1611.12  1749.16  1778.81
                             5067.91

 Zero-point correction=                           0.033918 (Hartree/Particle)
 Thermal correction to Energy=                    0.042924
 Thermal correction to Enthalpy=                  0.043868
 Thermal correction to Gibbs Free Energy=        -0.001285
 Sum of electronic and zero-point Energies=           -959.226719
 Sum of electronic and thermal Energies=              -959.217713
 Sum of electronic and thermal Enthalpies=            -959.216769
 Sum of electronic and thermal Free Energies=         -959.261922

                     E (Thermal)             CV                S
                      KCal/Mol        Cal/Mol-Kelvin    Cal/Mol-Kelvin
 Total                   26.935             29.418             95.034
 Electronic               0.000              0.000              0.000
 Translational            0.889              2.981             40.926
 Rotational               0.889              2.981             28.706
 Vibrational             25.158             23.457             25.401
 Vibration     1          0.593              1.984              5.879
 Vibration     2          0.601              1.958              3.710
 Vibration     3          0.616              1.910              2.756
 Vibration     4          0.622              1.891              2.545
 Vibration     5          0.653              1.793              1.866
 Vibration     6          0.672              1.735              1.619
 Vibration     7          0.673              1.732              1.609
 Vibration     8          0.736              1.551              1.114
 Vibration     9          0.745              1.525              1.063
 Vibration    10          0.824              1.325              0.748
 Vibration    11          0.840              1.285              0.699
 Vibration    12          0.848              1.268              0.679
 Vibration    13          0.978              0.994              0.420

 Optimization completed.
    -- Stationary point found.
 Normal termination of Gaussian 16 at Sun May 25 03:14:14 2025.
