 Gaussian 16, Revision C.01,
 Gaussian 16:  ES64L-G16RevC.01  3-Jul-2019

 ----------------------------------------------------------------------
 #P M062X/Def2TZVPP Symm(None) scf(xqc) pop(None) geom(AllCheck,NoKeepC
 onstants) guess(Read) irc(RCFC,forward,MaxPoints=100,StepSize=2)
 ----------------------------------------------------------------------

 Structure from the checkpoint file:  "1502984803620600000001_r12_insertion_R_8_5_1_IRC_F.chk"
 ------------------------------
 Gaussian input prepared by ASE
 ------------------------------
 Charge =  0 Multiplicity = 1

 SCF Done:  E(RM062X) =  -962.121528104     A.U. after    8 cycles

                          Input orientation:
 ---------------------------------------------------------------------
 Center     Atomic      Atomic             Coordinates (Angstroms)
 Number     Number       Type             X           Y           Z
 ---------------------------------------------------------------------
      1          6           0       -0.927972   -0.173361    0.059344
      2          9           0       -1.511609    0.301705   -1.023736
      3          9           0       -1.401042    0.443313    1.124884
      4          9           0       -1.161341   -1.469351    0.156641
      5         16           0        0.897142    0.048628   -0.049062
      6          8           0        1.462747   -0.342614    1.190671
      7          8           0        1.337164   -0.510333   -1.275534
      8          8           0        0.833641    1.620040   -0.152793
      9          1           0        1.719687    2.001513   -0.237917
 ---------------------------------------------------------------------

 Normal termination of Gaussian 16 at Sun May 25 03:41:22 2025.
