 Gaussian 16, Revision C.01,
 Gaussian 16:  ES64L-G16RevC.01  3-Jul-2019

 ----------------------------------------------------------------------
 #P mp2/6-31G Symm(None) scf(xqc) pop(None) guess(Mix,Always) opt(NoFre
 eze,TS,CalcAll,NoEigentest,MaxCycle=999)
 ----------------------------------------------------------------------

 ------------------------------
 Gaussian input prepared by ASE
 ------------------------------
 Symbolic Z-matrix:
 Charge =  0 Multiplicity = 1

 SCF Done:  E(RHF) =  -958.150766305     A.U. after   16 cycles
 E2 =    -0.9256085117D+00 EUMP2 =    -0.95907637481637D+03
 E2 =    -0.9256085117D+00 EUMP2 =    -0.95907637481637D+03
 SCF Done:  E(RHF) =  -958.173802531     A.U. after   17 cycles
 E2 =    -0.9415742899D+00 EUMP2 =    -0.95911537682048D+03
 E2 =    -0.9415742899D+00 EUMP2 =    -0.95911537682048D+03
 SCF Done:  E(RHF) =  -958.222933714     A.U. after   17 cycles
 E2 =    -0.9513151891D+00 EUMP2 =    -0.95917424890263D+03
 E2 =    -0.9513151891D+00 EUMP2 =    -0.95917424890263D+03
 SCF Done:  E(RHF) =  -958.246730794     A.U. after   18 cycles
 E2 =    -0.9545745190D+00 EUMP2 =    -0.95920130531256D+03
 E2 =    -0.9545745190D+00 EUMP2 =    -0.95920130531256D+03
 SCF Done:  E(RHF) =  -958.249537572     A.U. after   19 cycles
 E2 =    -0.9560222272D+00 EUMP2 =    -0.95920555979949D+03
 E2 =    -0.9560222272D+00 EUMP2 =    -0.95920555979949D+03
 SCF Done:  E(RHF) =  -958.249261726     A.U. after   18 cycles
 E2 =    -0.9564351516D+00 EUMP2 =    -0.95920569687721D+03
 E2 =    -0.9564351516D+00 EUMP2 =    -0.95920569687721D+03
 SCF Done:  E(RHF) =  -958.249258658     A.U. after   18 cycles
 E2 =    -0.9564407873D+00 EUMP2 =    -0.95920569944499D+03
 E2 =    -0.9564407873D+00 EUMP2 =    -0.95920569944499D+03
 Optimization completed.
    -- Stationary point found.

                          Input orientation:
 ---------------------------------------------------------------------
 Center     Atomic      Atomic             Coordinates (Angstroms)
 Number     Number       Type             X           Y           Z
 ---------------------------------------------------------------------
      1          6           0       -0.257119   -0.123432    0.118893
      2          9           0       -0.744810    0.606769   -0.934037
      3          9           0       -0.796682    0.294238    1.313581
      4          9           0       -0.454628   -1.471876   -0.069641
      5         16           0        1.705136    0.186309    0.208666
      6          8           0        2.325754   -0.637358    1.413245
      7          8           0        2.307287    0.062831   -1.399616
      8          8           0        1.955248    1.879764    0.024110
      9          1           0        2.400378    1.387158   -1.151924
 ---------------------------------------------------------------------

 ******    1 imaginary frequencies (negative Signs) ******

                      1                      2                      3
                      A                      A                      A
 Frequencies --  -1685.8974                30.3984               124.6524
 Red. masses --      1.0931                15.2766                16.9145
 Frc consts  --      1.8306                 0.0083                 0.1548
 IR Inten    --    384.0795                 0.0000                 4.4203

                      4                      5                      6
                      A                      A                      A
 Frequencies --    148.2771               228.7716               250.8918
 Red. masses --     13.4139                14.2082                17.2064
 Frc consts  --      0.1738                 0.4381                 0.6381
 IR Inten    --      4.7519                 6.0972                 3.0065

                      7                      8                      9
                      A                      A                      A
 Frequencies --    292.4356               357.7479               435.0139
 Red. masses --     17.4284                18.3964                13.7650
 Frc consts  --      0.8782                 1.3872                 1.5347
 IR Inten    --      0.2767                13.0135                53.0424

                     10                     11                     12
                      A                      A                      A
 Frequencies --    486.8531               487.8221               587.1731
 Red. masses --     17.9250                17.7922                17.3223
 Frc consts  --      2.5033                 2.4946                 3.5188
 IR Inten    --      3.5697                 7.1988                77.4956

                     13                     14                     15
                      A                      A                      A
 Frequencies --    685.7894               810.9351               899.7915
 Red. masses --     16.4164                16.4239                10.8232
 Frc consts  --      4.5489                 6.3635                 5.1628
 IR Inten    --     16.1659                70.1951               182.5750

                     16                     17                     18
                      A                      A                      A
 Frequencies --    995.0907              1032.1265              1079.0536
 Red. masses --      1.1371                13.6855                11.8016
 Frc consts  --      0.6634                 8.5897                 8.0961
 IR Inten    --    118.4698               285.9783               170.0801

                     19                     20                     21
                      A                      A                      A
 Frequencies --   1220.7346              1238.2030              2006.2316
 Red. masses --     13.3128                12.5559                 1.0292
 Frc consts  --     11.6886                11.3418                 2.4406
 IR Inten    --    204.2755               221.2707               121.2928

 - Thermochemistry -
 -------------------
 Temperature   298.150 Kelvin.  Pressure   1.00000 Atm.
 Atom     1 has atomic number  6 and mass  12.00000

 Molecular mass:   149.95985 amu.
 Principal axes and moments of inertia in atomic units:
                           1         2         3
     Eigenvalues --   781.050921297.831261418.09727
           X            0.96707   0.20508  -0.15072
           Y            0.24401  -0.57877   0.77813
           Z           -0.07235   0.78928   0.60975
 This molecule is an asymmetric top.
 Rotational symmetry number  1.
 Warning -- assumption of classical behavior for rotation
           may cause significant error
 Rotational temperatures (Kelvin)      0.11089     0.06674     0.06108
 Rotational constants (GHZ):           2.31066     1.39058     1.27265
    1 imaginary frequencies ignored.
 Zero-point vibrational energy      80137.8 (Joules/Mol)
                                   19.15339 (Kcal/Mol)
 Warning -- explicit consideration of  11 degrees of freedom as
           vibrations may cause significant error
 Vibrational temperatures:     43.74   179.35   213.34   329.15   360.98
          (Kelvin)            420.75   514.72   625.89   700.47   701.87
                              844.81   986.70  1166.75  1294.60  1431.71
                             1485.00  1552.52  1756.36  1781.50  2886.52

 Zero-point correction=                           0.030523 (Hartree/Particle)
 Thermal correction to Energy=                    0.038638
 Thermal correction to Enthalpy=                  0.039582
 Thermal correction to Gibbs Free Energy=        -0.003696
 Sum of electronic and zero-point Energies=           -959.175177
 Sum of electronic and thermal Energies=              -959.167061
 Sum of electronic and thermal Enthalpies=            -959.166117
 Sum of electronic and thermal Free Energies=         -959.209395

                     E (Thermal)             CV                S
                      KCal/Mol        Cal/Mol-Kelvin    Cal/Mol-Kelvin
 Total                   24.246             26.992             91.087
 Electronic               0.000              0.000              0.000
 Translational            0.889              2.981             40.926
 Rotational               0.889              2.981             28.754
 Vibrational             22.468             21.030             21.407
 Vibration     1          0.594              1.984              5.803
 Vibration     2          0.610              1.928              3.027
 Vibration     3          0.618              1.905              2.694
 Vibration     4          0.651              1.797              1.889
 Vibration     5          0.663              1.761              1.724
 Vibration     6          0.688              1.688              1.460
 Vibration     7          0.733              1.559              1.132
 Vibration     8          0.796              1.394              0.842
 Vibration     9          0.843              1.279              0.692
 Vibration    10          0.844              1.277              0.689
 Vibration    11          0.944              1.059              0.472

 Normal termination of Gaussian 16 at Sun May 25 03:31:02 2025.
