 Gaussian 16, Revision C.01,
 Gaussian 16:  ES64L-G16RevC.01  3-Jul-2019

 -----------------------------------------------------------------
 #P M062X/Def2TZVPP Symm(None) scf(xqc) pop(None) freq opt(CalcFC)
 -----------------------------------------------------------------

 ------------------------------
 Gaussian input prepared by ASE
 ------------------------------
 Symbolic Z-matrix:
 Charge =  0 Multiplicity = 1

 SCF Done:  E(RM062X) =  -962.111860370     A.U. after   13 cycles
 SCF Done:  E(RM062X) =  -962.121891960     A.U. after   12 cycles
 SCF Done:  E(RM062X) =  -962.124351777     A.U. after   13 cycles
 SCF Done:  E(RM062X) =  -962.125656735     A.U. after   13 cycles
 SCF Done:  E(RM062X) =  -962.125783025     A.U. after   11 cycles
 SCF Done:  E(RM062X) =  -962.125883156     A.U. after   10 cycles
 SCF Done:  E(RM062X) =  -962.125886079     A.U. after    8 cycles
 SCF Done:  E(RM062X) =  -962.125886548     A.U. after    7 cycles
 Optimization completed.
    -- Stationary point found.
 Normal termination of Gaussian 16 at Sun May 25 04:21:21 2025.

 ---------------------------------------------------------------------
 #P Geom=AllCheck Guess=TCheck SCRF=Check GenChk RM062X/def2TZVPP Freq
 ---------------------------------------------------------------------

 Structure from the checkpoint file:  "1502984803620600000001_r12_insertion_R_5_1_3_IRC_F_prod.chk"
 ------------------------------
 Gaussian input prepared by ASE
 ------------------------------
 Charge =  0 Multiplicity = 1

                          Input orientation:
 ---------------------------------------------------------------------
 Center     Atomic      Atomic             Coordinates (Angstroms)
 Number     Number       Type             X           Y           Z
 ---------------------------------------------------------------------
      1          6           0       -0.930535   -0.100755   -0.007173
      2          9           0       -1.397524   -0.977666   -0.874492
      3          9           0       -1.470417    1.086809   -0.246185
      4          9           0       -1.238390   -0.479307    1.217957
      5         16           0        0.895809    0.013055   -0.200665
      6          8           0        1.442331   -1.194888    0.283106
      7          8           0        1.138057    0.524556   -1.501822
      8          8           0        1.194158    1.133437    0.861779
      9          1           0        1.186686    2.004112    0.438651
 ---------------------------------------------------------------------

 SCF Done:  E(RM062X) =  -962.125886548     A.U. after    1 cycles

 Isotropic polarizability for W=    0.000000       41.22 Bohr**3.
 End of Minotr F.D. properties file   721 does not exist.

                      1                      2                      3
                      A                      A                      A
 Frequencies --     59.4371               186.8528               193.0358
 Red. masses --     13.4342                 7.3735                15.4721
 Frc consts  --      0.0280                 0.1517                 0.3397
 IR Inten    --      1.4166                 9.4898                 3.5641

                      4                      5                      6
                      A                      A                      A
 Frequencies --    309.7596               322.3377               342.3040
 Red. masses --     11.0681                 3.0114                13.1263
 Frc consts  --      0.6257                 0.1844                 0.9062
 IR Inten    --      0.7703                31.5463                 1.9669

                      7                      8                      9
                      A                      A                      A
 Frequencies --    374.6302               470.6011               506.8948
 Red. masses --      2.0802                 4.4053                14.9624
 Frc consts  --      0.1720                 0.5748                 2.2651
 IR Inten    --     49.8988                27.5234                26.5120

                     10                     11                     12
                      A                      A                      A
 Frequencies --    571.0406               576.9387               631.7836
 Red. masses --     15.7067                16.3916                19.9452
 Frc consts  --      3.0177                 3.2146                 4.6906
 IR Inten    --      0.8135                 2.8166               158.6269

                     13                     14                     15
                      A                      A                      A
 Frequencies --    794.5719               907.1244              1140.0087
 Red. masses --     17.7034                17.6096                 1.1850
 Frc consts  --      6.5853                 8.5376                 0.9073
 IR Inten    --      3.7517               217.5108                86.0383

                     16                     17                     18
                      A                      A                      A
 Frequencies --   1197.5958              1275.1186              1295.9234
 Red. masses --     14.6988                13.3884                13.4586
 Frc consts  --     12.4209                12.8257                13.3171
 IR Inten    --    267.6124               163.8432               116.5789

                     19                     20                     21
                      A                      A                      A
 Frequencies --   1308.4946              1502.7827              3810.7462
 Red. masses --     15.0973                15.3675                 1.0657
 Frc consts  --     15.2298                20.4478                 9.1181
 IR Inten    --    252.2787               292.5301               186.6379

 - Thermochemistry -
 -------------------
 Temperature   298.150 Kelvin.  Pressure   1.00000 Atm.
 Atom     1 has atomic number  6 and mass  12.00000

 Molecular mass:   149.95985 amu.
 Principal axes and moments of inertia in atomic units:
                           1         2         3
     Eigenvalues --   673.824401132.102971139.56700
           X            0.99162  -0.12498   0.03264
           Y            0.11322   0.96258   0.24623
           Z           -0.06219  -0.24047   0.96866
 This molecule is an asymmetric top.
 Rotational symmetry number  1.
 Warning -- assumption of classical behavior for rotation
           may cause significant error
 Rotational temperatures (Kelvin)      0.12854     0.07651     0.07601
 Rotational constants (GHZ):           2.67836     1.59415     1.58371
 Zero-point vibrational energy     106335.9 (Joules/Mol)
                                   25.41490 (Kcal/Mol)
 Warning -- explicit consideration of  11 degrees of freedom as
           vibrations may cause significant error
 Vibrational temperatures:     85.52   268.84   277.74   445.67   463.77
          (Kelvin)            492.50   539.01   677.09   729.31   821.60
                              830.09   909.00  1143.21  1305.15  1640.22
                             1723.07  1834.61  1864.54  1882.63  2162.17
                             5482.81

 Zero-point correction=                           0.040501 (Hartree/Particle)
 Thermal correction to Energy=                    0.047977
 Thermal correction to Enthalpy=                  0.048921
 Thermal correction to Gibbs Free Energy=         0.007897
 Sum of electronic and zero-point Energies=           -962.085385
 Sum of electronic and thermal Energies=              -962.077909
 Sum of electronic and thermal Enthalpies=            -962.076965
 Sum of electronic and thermal Free Energies=         -962.117990

                     E (Thermal)             CV                S
                      KCal/Mol        Cal/Mol-Kelvin    Cal/Mol-Kelvin
 Total                   30.106             25.867             86.344
 Electronic               0.000              0.000              0.000
 Translational            0.889              2.981             40.926
 Rotational               0.889              2.981             28.254
 Vibrational             28.329             19.905             17.164
 Vibration     1          0.597              1.974              4.476
 Vibration     2          0.632              1.858              2.259
 Vibration     3          0.635              1.850              2.198
 Vibration     4          0.699              1.655              1.364
 Vibration     5          0.707              1.631              1.298
 Vibration     6          0.721              1.591              1.201
 Vibration     7          0.746              1.524              1.061
 Vibration     8          0.828              1.315              0.736
 Vibration     9          0.862              1.235              0.641
 Vibration    10          0.927              1.094              0.502
 Vibration    11          0.933              1.081              0.491

                           ! Non-Optimized Parameters !
 Normal termination of Gaussian 16 at Sun May 25 04:23:10 2025.
