 Gaussian 16, Revision C.01,
 Gaussian 16:  ES64L-G16RevC.01  3-Jul-2019

 ----------------------------------------------------------------------
 #P mp2/6-31G Symm(None) scf(xqc) pop(None) guess(Mix,Always) freq opt(
 CalcFC)
 ----------------------------------------------------------------------

 ------------------------------
 Gaussian input prepared by ASE
 ------------------------------
 Symbolic Z-matrix:
 Charge =  0 Multiplicity = 1

 SCF Done:  E(RHF) =  -958.299855300     A.U. after   19 cycles
 E2 =    -0.9473133353D+00 EUMP2 =    -0.95924716863575D+03
 E2 =    -0.9473133353D+00 EUMP2 =    -0.95924716863575D+03
 SCF Done:  E(RHF) =  -958.309403036     A.U. after   19 cycles
 E2 =    -0.9483344563D+00 EUMP2 =    -0.95925773749227D+03
 SCF Done:  E(RHF) =  -958.309593298     A.U. after   18 cycles
 E2 =    -0.9497306129D+00 EUMP2 =    -0.95925932391079D+03
 SCF Done:  E(RHF) =  -958.309591793     A.U. after   18 cycles
 E2 =    -0.9501366562D+00 EUMP2 =    -0.95925972844916D+03
 SCF Done:  E(RHF) =  -958.309834566     A.U. after   18 cycles
 E2 =    -0.9503792800D+00 EUMP2 =    -0.95926021384641D+03
 SCF Done:  E(RHF) =  -958.309893185     A.U. after   18 cycles
 E2 =    -0.9505662011D+00 EUMP2 =    -0.95926045938584D+03
 SCF Done:  E(RHF) =  -958.310048604     A.U. after   18 cycles
 E2 =    -0.9505419924D+00 EUMP2 =    -0.95926059059672D+03
 SCF Done:  E(RHF) =  -958.310126098     A.U. after   18 cycles
 E2 =    -0.9504940391D+00 EUMP2 =    -0.95926062013727D+03
 SCF Done:  E(RHF) =  -958.310152389     A.U. after   19 cycles
 E2 =    -0.9504757948D+00 EUMP2 =    -0.95926062818420D+03
 SCF Done:  E(RHF) =  -958.310089105     A.U. after   19 cycles
 E2 =    -0.9505429000D+00 EUMP2 =    -0.95926063200526D+03
 SCF Done:  E(RHF) =  -958.310077573     A.U. after   19 cycles
 E2 =    -0.9505589910D+00 EUMP2 =    -0.95926063656450D+03
 SCF Done:  E(RHF) =  -958.310072702     A.U. after   18 cycles
 E2 =    -0.9505642971D+00 EUMP2 =    -0.95926063699866D+03
 SCF Done:  E(RHF) =  -958.310077193     A.U. after   17 cycles
 E2 =    -0.9505598546D+00 EUMP2 =    -0.95926063704750D+03
 SCF Done:  E(RHF) =  -958.310076933     A.U. after   17 cycles
 E2 =    -0.9505601189D+00 EUMP2 =    -0.95926063705147D+03
 Optimization completed.
    -- Stationary point found.
 Normal termination of Gaussian 16 at Sun May 25 03:39:28 2025.

 -------------------------------------------------------------------
 #P Geom=AllCheck Guess=TCheck SCRF=Check GenChk RMP2(FC)/6-31G Freq
 -------------------------------------------------------------------

 Structure from the checkpoint file:  "1502984803620600000001_R_Addition_MultipleBond_5_8_9_IRC_F_prod.chk"
 ------------------------------
 Gaussian input prepared by ASE
 ------------------------------
 Charge =  0 Multiplicity = 1

                          Input orientation:
 ---------------------------------------------------------------------
 Center     Atomic      Atomic             Coordinates (Angstroms)
 Number     Number       Type             X           Y           Z
 ---------------------------------------------------------------------
      1          6           0       -1.028625   -0.180455   -0.001592
      2          9           0       -1.637781    0.609602   -0.945621
      3          9           0       -1.609962    0.011302    1.237899
      4          9           0       -1.067062   -1.508382   -0.350280
      5         16           0        0.865967    0.377407    0.166817
      6          8           0        1.643097   -0.632254    1.125187
      7          8           0        1.138164   -0.040578   -1.581331
      8          8           0        0.946458    1.952690    0.398754
      9          1           0        2.082296    0.144127   -1.827332
 ---------------------------------------------------------------------

 SCF Done:  E(RHF) =  -958.310076933     A.U. after    1 cycles
 E2 =    -0.9505601260D+00 EUMP2 =    -0.95926063705855D+03
 E2 =    -0.9505601260D+00 EUMP2 =    -0.95926063705855D+03

                      1                      2                      3
                      A                      A                      A
 Frequencies --     28.9848                87.6395               143.4548
 Red. masses --      9.1244                 1.3663                 5.2035
 Frc consts  --      0.0045                 0.0062                 0.0631
 IR Inten    --     11.8233               103.4421                10.5722

                      4                      5                      6
                      A                      A                      A
 Frequencies --    160.4495               231.6346               266.4682
 Red. masses --     10.3540                12.3060                11.4514
 Frc consts  --      0.1570                 0.3890                 0.4791
 IR Inten    --      2.3992                 6.8326                22.6891

                      7                      8                      9
                      A                      A                      A
 Frequencies --    268.0327               361.7255               374.1163
 Red. masses --     14.4884                15.4323                13.1967
 Frc consts  --      0.6133                 1.1897                 1.0883
 IR Inten    --      5.7821                42.2801                12.2838

                     10                     11                     12
                      A                      A                      A
 Frequencies --    466.3277               484.2314               491.8952
 Red. masses --     13.4566                17.4850                17.8844
 Frc consts  --      1.7241                 2.4156                 2.5496
 IR Inten    --    103.9308                12.9383                 1.5136

                     13                     14                     15
                      A                      A                      A
 Frequencies --    617.6537               689.5272               965.6816
 Red. masses --     17.9572                16.5739                12.7792
 Frc consts  --      4.0363                 4.6428                 7.0213
 IR Inten    --    174.7607                15.0758               145.1955

                     16                     17                     18
                      A                      A                      A
 Frequencies --   1048.4138              1106.9949              1120.0470
 Red. masses --      3.9941                 1.5544                20.0700
 Frc consts  --      2.5866                 1.1223                14.8344
 IR Inten    --    236.9802               143.3898               166.7623

                     19                     20                     21
                      A                      A                      A
 Frequencies --   1215.6481              1236.2843              3522.4456
 Red. masses --      8.8253                13.3341                 1.0663
 Frc consts  --      7.6842                12.0075                 7.7953
 IR Inten    --    144.6852               234.4553                95.2878

 - Thermochemistry -
 -------------------
 Temperature   298.150 Kelvin.  Pressure   1.00000 Atm.
 Atom     1 has atomic number  6 and mass  12.00000

 Molecular mass:   149.95985 amu.
 Principal axes and moments of inertia in atomic units:
                           1         2         3
     Eigenvalues --   807.268851294.101241311.35807
           X            0.96064  -0.11900  -0.25101
           Y            0.27311   0.23941   0.93172
           Z            0.05078   0.96360  -0.26248
 This molecule is an asymmetric top.
 Rotational symmetry number  1.
 Warning -- assumption of classical behavior for rotation
           may cause significant error
 Rotational temperatures (Kelvin)      0.10729     0.06693     0.06605
 Rotational constants (GHZ):           2.23561     1.39459     1.37624
 Zero-point vibrational energy      89048.0 (Joules/Mol)
                                   21.28297 (Kcal/Mol)
 Warning -- explicit consideration of  13 degrees of freedom as
           vibrations may cause significant error
 Vibrational temperatures:     41.70   126.09   206.40   230.85   333.27
          (Kelvin)            383.39   385.64   520.44   538.27   670.94
                              696.70   707.73   888.67   992.08  1389.40
                             1508.43  1592.72  1611.50  1749.05  1778.74
                             5068.01

 Zero-point correction=                           0.033917 (Hartree/Particle)
 Thermal correction to Energy=                    0.042924
 Thermal correction to Enthalpy=                  0.043868
 Thermal correction to Gibbs Free Energy=        -0.001297
 Sum of electronic and zero-point Energies=           -959.226720
 Sum of electronic and thermal Energies=              -959.217713
 Sum of electronic and thermal Enthalpies=            -959.216769
 Sum of electronic and thermal Free Energies=         -959.261934

                     E (Thermal)             CV                S
                      KCal/Mol        Cal/Mol-Kelvin    Cal/Mol-Kelvin
 Total                   26.935             29.419             95.056
 Electronic               0.000              0.000              0.000
 Translational            0.889              2.981             40.926
 Rotational               0.889              2.981             28.706
 Vibrational             25.158             23.458             25.424
 Vibration     1          0.593              1.984              5.898
 Vibration     2          0.601              1.958              3.712
 Vibration     3          0.616              1.910              2.757
 Vibration     4          0.622              1.891              2.544
 Vibration     5          0.653              1.793              1.866
 Vibration     6          0.672              1.735              1.619
 Vibration     7          0.673              1.732              1.609
 Vibration     8          0.736              1.551              1.115
 Vibration     9          0.745              1.525              1.063
 Vibration    10          0.824              1.325              0.748
 Vibration    11          0.840              1.285              0.699
 Vibration    12          0.848              1.268              0.679
 Vibration    13          0.977              0.995              0.420

 Optimization completed.
    -- Stationary point found.
 Normal termination of Gaussian 16 at Sun May 25 03:39:46 2025.
