 Gaussian 16, Revision C.01,
 Gaussian 16:  ES64L-G16RevC.01  3-Jul-2019

 -----------------------------------------------------------------
 #P M062X/Def2TZVPP Symm(None) scf(xqc) pop(None) freq opt(CalcFC)
 -----------------------------------------------------------------

 ------------------------------
 Gaussian input prepared by ASE
 ------------------------------
 Symbolic Z-matrix:
 Charge =  0 Multiplicity = 1

 SCF Done:  E(RM062X) =  -962.119898796     A.U. after   13 cycles
 SCF Done:  E(RM062X) =  -962.125441595     A.U. after   12 cycles
 SCF Done:  E(RM062X) =  -962.125857682     A.U. after   11 cycles
 SCF Done:  E(RM062X) =  -962.125890804     A.U. after   10 cycles
 SCF Done:  E(RM062X) =  -962.125891497     A.U. after    8 cycles
 SCF Done:  E(RM062X) =  -962.125891545     A.U. after    6 cycles
 Optimization completed.
    -- Stationary point found.
 Normal termination of Gaussian 16 at Sun May 25 04:10:08 2025.

 ---------------------------------------------------------------------
 #P Geom=AllCheck Guess=TCheck SCRF=Check GenChk RM062X/def2TZVPP Freq
 ---------------------------------------------------------------------

 Structure from the checkpoint file:  "1502984803620600000001_intra_H_migration_5_9_IRC_F_prod.chk"
 ------------------------------
 Gaussian input prepared by ASE
 ------------------------------
 Charge =  0 Multiplicity = 1

                          Input orientation:
 ---------------------------------------------------------------------
 Center     Atomic      Atomic             Coordinates (Angstroms)
 Number     Number       Type             X           Y           Z
 ---------------------------------------------------------------------
      1          6           0       -0.902449   -0.159769    0.004419
      2          9           0       -1.415611    0.566961   -0.979159
      3          9           0       -1.499431    0.152036    1.138322
      4          9           0       -1.086784   -1.438765   -0.258650
      5         16           0        0.893979    0.208635    0.156261
      6          8           0        1.440978   -0.742838    1.043548
      7          8           0        1.354322   -0.172280   -1.298364
      8          8           0        1.010080    1.611775    0.332421
      9          1           0        1.335026    0.609536   -1.868951
 ---------------------------------------------------------------------

 SCF Done:  E(RM062X) =  -962.125891545     A.U. after    1 cycles

 Isotropic polarizability for W=    0.000000       41.21 Bohr**3.
 End of Minotr F.D. properties file   721 does not exist.

                      1                      2                      3
                      A                      A                      A
 Frequencies --     59.9697               187.5659               195.8992
 Red. masses --     13.4395                 7.7085                15.2561
 Frc consts  --      0.0285                 0.1598                 0.3450
 IR Inten    --      1.4364                 8.9112                 3.7399

                      4                      5                      6
                      A                      A                      A
 Frequencies --    309.9807               325.0630               342.4443
 Red. masses --     12.1163                 3.3558                13.2234
 Frc consts  --      0.6859                 0.2089                 0.9136
 IR Inten    --      0.4930                26.9927                 1.8716

                      7                      8                      9
                      A                      A                      A
 Frequencies --    378.7781               471.3575               506.6336
 Red. masses --      1.9292                 4.2216                14.9124
 Frc consts  --      0.1631                 0.5526                 2.2552
 IR Inten    --     53.9846                28.5314                26.6503

                     10                     11                     12
                      A                      A                      A
 Frequencies --    571.3318               576.9420               632.5483
 Red. masses --     15.7330                16.3303                19.9323
 Frc consts  --      3.0258                 3.2026                 4.6989
 IR Inten    --      0.8217                 2.8087               159.4349

                     13                     14                     15
                      A                      A                      A
 Frequencies --    794.5522               906.9685              1138.9321
 Red. masses --     17.7175                17.6067                 1.1847
 Frc consts  --      6.5902                 8.5332                 0.9055
 IR Inten    --      3.6191               217.6425                86.8128

                     16                     17                     18
                      A                      A                      A
 Frequencies --   1198.6537              1275.0952              1296.1445
 Red. masses --     14.7715                13.3549                13.3294
 Frc consts  --     12.5044                12.7931                13.1938
 IR Inten    --    264.9893               165.1489               138.3495

                     19                     20                     21
                      A                      A                      A
 Frequencies --   1308.6644              1503.9980              3808.8818
 Red. masses --     15.3205                15.4025                 1.0657
 Frc consts  --     15.4590                20.5274                 9.1091
 IR Inten    --    229.5450               291.9278               186.5932

 - Thermochemistry -
 -------------------
 Temperature   298.150 Kelvin.  Pressure   1.00000 Atm.
 Atom     1 has atomic number  6 and mass  12.00000

 Molecular mass:   149.95985 amu.
 Principal axes and moments of inertia in atomic units:
                           1         2         3
     Eigenvalues --   673.861831131.936821139.39145
           X            0.98227   0.11134  -0.15084
           Y            0.18669  -0.65486   0.73233
           Z            0.01725   0.74750   0.66403
 This molecule is an asymmetric top.
 Rotational symmetry number  1.
 Warning -- assumption of classical behavior for rotation
           may cause significant error
 Rotational temperatures (Kelvin)      0.12853     0.07652     0.07602
 Rotational constants (GHZ):           2.67821     1.59438     1.58395
 Zero-point vibrational energy     106410.2 (Joules/Mol)
                                   25.43266 (Kcal/Mol)
 Warning -- explicit consideration of  11 degrees of freedom as
           vibrations may cause significant error
 Vibrational temperatures:     86.28   269.87   281.86   445.99   467.69
          (Kelvin)            492.70   544.98   678.18   728.93   822.02
                              830.09   910.10  1143.18  1304.93  1638.67
                             1724.60  1834.58  1864.86  1882.88  2163.92
                             5480.13

 Zero-point correction=                           0.040530 (Hartree/Particle)
 Thermal correction to Energy=                    0.047990
 Thermal correction to Enthalpy=                  0.048934
 Thermal correction to Gibbs Free Energy=         0.007951
 Sum of electronic and zero-point Energies=           -962.085362
 Sum of electronic and thermal Energies=              -962.077902
 Sum of electronic and thermal Enthalpies=            -962.076958
 Sum of electronic and thermal Free Energies=         -962.117941

                     E (Thermal)             CV                S
                      KCal/Mol        Cal/Mol-Kelvin    Cal/Mol-Kelvin
 Total                   30.114             25.843             86.256
 Electronic               0.000              0.000              0.000
 Translational            0.889              2.981             40.926
 Rotational               0.889              2.981             28.254
 Vibrational             28.337             19.882             17.076
 Vibration     1          0.597              1.973              4.458
 Vibration     2          0.632              1.857              2.252
 Vibration     3          0.636              1.846              2.171
 Vibration     4          0.699              1.655              1.362
 Vibration     5          0.709              1.625              1.285
 Vibration     6          0.722              1.591              1.201
 Vibration     7          0.749              1.515              1.044
 Vibration     8          0.828              1.314              0.734
 Vibration     9          0.862              1.235              0.642
 Vibration    10          0.927              1.093              0.502
 Vibration    11          0.933              1.081              0.491

 Optimization completed.
    -- Stationary point found.
 Normal termination of Gaussian 16 at Sun May 25 04:11:56 2025.
