 Gaussian 16, Revision C.01,
 Gaussian 16:  ES64L-G16RevC.01  3-Jul-2019

 ----------------------------------------------------------------------
 #P M062X/Def2TZVPP Symm(None) scf(xqc) pop(None) geom(AllCheck,NoKeepC
 onstants) guess(Read) irc(RCFC,reverse,MaxPoints=100,StepSize=2)
 ----------------------------------------------------------------------

 Structure from the checkpoint file:  "1502984803620600000001_r13_insertion_ROR_2_1_5_8_IRC_R.chk"
 ------------------------------
 Gaussian input prepared by ASE
 ------------------------------
 Charge =  0 Multiplicity = 1

 SCF Done:  E(RM062X) =  -962.047378780     A.U. after    9 cycles

                          Input orientation:
 ---------------------------------------------------------------------
 Center     Atomic      Atomic             Coordinates (Angstroms)
 Number     Number       Type             X           Y           Z
 ---------------------------------------------------------------------
      1          6           0       -0.001023   -0.961193   -0.081762
      2          9           0       -2.057291   -0.485181    0.086978
      3          9           0        0.030278   -1.719789    0.920791
      4          9           0       -0.069553   -1.595704   -1.162036
      5         16           0        0.498853    0.915809    0.024856
      6          8           0        1.726729    0.751588    0.722775
      7          8           0        0.510387    1.245223   -1.355028
      8          8           0       -0.629089    1.383738    0.800734
      9          1           0       -1.811745    0.386112    0.419201
 ---------------------------------------------------------------------

 Normal termination of Gaussian 16 at Sun May 25 05:11:40 2025.
