 Gaussian 16, Revision C.01,
 Gaussian 16:  ES64L-G16RevC.01  3-Jul-2019

 -----------------------------------------------------------------
 #P M062X/Def2TZVPP Symm(None) scf(xqc) pop(None) freq opt(CalcFC)
 -----------------------------------------------------------------

 ------------------------------
 Gaussian input prepared by ASE
 ------------------------------
 Symbolic Z-matrix:
 Charge =  0 Multiplicity = 1

 SCF Done:  E(RM062X) =  -962.121527745     A.U. after   13 cycles
 SCF Done:  E(RM062X) =  -962.122008755     A.U. after   12 cycles
 SCF Done:  E(RM062X) =  -962.123558024     A.U. after   12 cycles
 SCF Done:  E(RM062X) =  -962.125572338     A.U. after   13 cycles
 SCF Done:  E(RM062X) =  -962.125866570     A.U. after   11 cycles
 SCF Done:  E(RM062X) =  -962.125884839     A.U. after   10 cycles
 SCF Done:  E(RM062X) =  -962.125889448     A.U. after    9 cycles
 SCF Done:  E(RM062X) =  -962.125890212     A.U. after    8 cycles
 Optimization completed.
    -- Stationary point found.
 Normal termination of Gaussian 16 at Sun May 25 03:46:43 2025.

 ---------------------------------------------------------------------
 #P Geom=AllCheck Guess=TCheck SCRF=Check GenChk RM062X/def2TZVPP Freq
 ---------------------------------------------------------------------

 Structure from the checkpoint file:  "1502984803620600000001_r12_insertion_R_1_5_8_IRC_R_prod.chk"
 ------------------------------
 Gaussian input prepared by ASE
 ------------------------------
 Charge =  0 Multiplicity = 1

                          Input orientation:
 ---------------------------------------------------------------------
 Center     Atomic      Atomic             Coordinates (Angstroms)
 Number     Number       Type             X           Y           Z
 ---------------------------------------------------------------------
      1          6           0       -0.870551   -0.137900    0.054274
      2          9           0       -1.510951    0.239447   -1.034984
      3          9           0       -1.231750    0.640761    1.065266
      4          9           0       -1.171080   -1.390786    0.335875
      5         16           0        0.947593   -0.003598   -0.195147
      6          8           0        1.555475   -0.325131    1.046019
      7          8           0        1.250418   -0.653971   -1.410531
      8          8           0        1.056213    1.545837   -0.440901
      9          1           0        1.228042    2.003892    0.394489
 ---------------------------------------------------------------------

 SCF Done:  E(RM062X) =  -962.125890212     A.U. after    1 cycles

 Isotropic polarizability for W=    0.000000       41.22 Bohr**3.
 End of Minotr F.D. properties file   721 does not exist.

                      1                      2                      3
                      A                      A                      A
 Frequencies --     59.2403               185.9250               193.6623
 Red. masses --     13.4072                 6.5623                16.3319
 Frc consts  --      0.0277                 0.1337                 0.3609
 IR Inten    --      1.4418                11.2040                 3.2847

                      4                      5                      6
                      A                      A                      A
 Frequencies --    309.2815               315.0198               342.3287
 Red. masses --      6.1259                 2.7771                13.6639
 Frc consts  --      0.3452                 0.1624                 0.9434
 IR Inten    --      5.5581                38.6896                 1.6216

                      7                      8                      9
                      A                      A                      A
 Frequencies --    367.9342               469.9630               507.1028
 Red. masses --      2.6139                 4.6403                15.1365
 Frc consts  --      0.2085                 0.6038                 2.2933
 IR Inten    --     38.6031                26.1462                26.5635

                     10                     11                     12
                      A                      A                      A
 Frequencies --    571.0110               577.0128               632.3800
 Red. masses --     15.7177                16.3250                20.0042
 Frc consts  --      3.0195                 3.2024                 4.7133
 IR Inten    --      0.8157                 2.8806               158.6797

                     13                     14                     15
                      A                      A                      A
 Frequencies --    794.5112               906.2135              1136.8414
 Red. masses --     17.7142                17.6565                 1.1843
 Frc consts  --      6.5883                 8.5431                 0.9018
 IR Inten    --      3.7652               218.1449                86.8737

                     16                     17                     18
                      A                      A                      A
 Frequencies --   1198.3164              1275.8827              1295.0615
 Red. masses --     14.8299                13.3666                13.3712
 Frc consts  --     12.5468                12.8201                13.2130
 IR Inten    --    264.6617               164.9971               133.1989

                     19                     20                     21
                      A                      A                      A
 Frequencies --   1308.4806              1504.3272              3812.2702
 Red. masses --     15.3089                15.4668                 1.0657
 Frc consts  --     15.4429                20.6222                 9.1253
 IR Inten    --    234.9493               292.4027               186.3128

 - Thermochemistry -
 -------------------
 Temperature   298.150 Kelvin.  Pressure   1.00000 Atm.
 Atom     1 has atomic number  6 and mass  12.00000

 Molecular mass:   149.95985 amu.
 Principal axes and moments of inertia in atomic units:
                           1         2         3
     Eigenvalues --   673.853111131.996351139.44632
           X            0.98048   0.02056  -0.19556
           Y            0.13946   0.62839   0.76530
           Z           -0.13862   0.77763  -0.61325
 This molecule is an asymmetric top.
 Rotational symmetry number  1.
 Warning -- assumption of classical behavior for rotation
           may cause significant error
 Rotational temperatures (Kelvin)      0.12854     0.07651     0.07601
 Rotational constants (GHZ):           2.67824     1.59430     1.58388
 Zero-point vibrational energy     106244.9 (Joules/Mol)
                                   25.39315 (Kcal/Mol)
 Warning -- explicit consideration of  11 degrees of freedom as
           vibrations may cause significant error
 Vibrational temperatures:     85.23   267.50   278.64   444.99   453.24
          (Kelvin)            492.53   529.38   676.17   729.61   821.56
                              830.19   909.85  1143.12  1303.84  1635.66
                             1724.11  1835.71  1863.30  1882.61  2164.39
                             5485.01

 Zero-point correction=                           0.040467 (Hartree/Particle)
 Thermal correction to Energy=                    0.047960
 Thermal correction to Enthalpy=                  0.048904
 Thermal correction to Gibbs Free Energy=         0.007842
 Sum of electronic and zero-point Energies=           -962.085424
 Sum of electronic and thermal Energies=              -962.077930
 Sum of electronic and thermal Enthalpies=            -962.076986
 Sum of electronic and thermal Free Energies=         -962.118048

                     E (Thermal)             CV                S
                      KCal/Mol        Cal/Mol-Kelvin    Cal/Mol-Kelvin
 Total                   30.095             25.899             86.423
 Electronic               0.000              0.000              0.000
 Translational            0.889              2.981             40.926
 Rotational               0.889              2.981             28.254
 Vibrational             28.318             19.937             17.243
 Vibration     1          0.597              1.974              4.482
 Vibration     2          0.632              1.859              2.268
 Vibration     3          0.635              1.849              2.192
 Vibration     4          0.699              1.656              1.366
 Vibration     5          0.702              1.645              1.336
 Vibration     6          0.721              1.591              1.201
 Vibration     7          0.741              1.538              1.088
 Vibration     8          0.827              1.317              0.738
 Vibration     9          0.862              1.234              0.641
 Vibration    10          0.927              1.094              0.502
 Vibration    11          0.933              1.081              0.491

 Optimization completed.
    -- Stationary point found.
 Normal termination of Gaussian 16 at Sun May 25 03:48:40 2025.
