 Gaussian 16, Revision C.01,
 Gaussian 16:  ES64L-G16RevC.01  3-Jul-2019

 -----------------------------------------------------------------
 #P M062X/Def2TZVPP Symm(None) scf(xqc) pop(None) freq opt(CalcFC)
 -----------------------------------------------------------------

 ------------------------------
 Gaussian input prepared by ASE
 ------------------------------
 Symbolic Z-matrix:
 Charge =  0 Multiplicity = 1

 SCF Done:  E(RM062X) =  -962.135525567     A.U. after   14 cycles
 SCF Done:  E(RM062X) =  -962.140808818     A.U. after   14 cycles
 SCF Done:  E(RM062X) =  -962.140697000     A.U. after   14 cycles
 SCF Done:  E(RM062X) =  -962.141209117     A.U. after   13 cycles
 SCF Done:  E(RM062X) =  -962.141227613     A.U. after   11 cycles
 SCF Done:  E(RM062X) =  -962.141235230     A.U. after   12 cycles
 SCF Done:  E(RM062X) =  -962.141236856     A.U. after   10 cycles
 SCF Done:  E(RM062X) =  -962.141238290     A.U. after    8 cycles
 SCF Done:  E(RM062X) =  -962.141239641     A.U. after    9 cycles
 SCF Done:  E(RM062X) =  -962.141239722     A.U. after    8 cycles
 Optimization completed.
    -- Stationary point found.
 Normal termination of Gaussian 16 at Sun May 25 05:16:37 2025.

 ---------------------------------------------------------------------
 #P Geom=AllCheck Guess=TCheck SCRF=Check GenChk RM062X/def2TZVPP Freq
 ---------------------------------------------------------------------

 Structure from the checkpoint file:  "1502984803620600000001_r13_insertion_ROR_9_8_5_6_IRC_R_prod.chk"
 ------------------------------
 Gaussian input prepared by ASE
 ------------------------------
 Charge =  0 Multiplicity = 1

                          Input orientation:
 ---------------------------------------------------------------------
 Center     Atomic      Atomic             Coordinates (Angstroms)
 Number     Number       Type             X           Y           Z
 ---------------------------------------------------------------------
      1          6           0        0.762736   -0.664116    0.648523
      2          9           0        1.209173   -1.904138    0.621536
      3          9           0        0.376104   -0.382734    1.896329
      4          9           0        1.763909    0.161914    0.352499
      5         16           0       -0.849314    1.023217   -0.515520
      6          8           0       -2.305295    0.480887   -0.894344
      7          8           0       -0.292552    1.441318   -1.757200
      8          8           0       -0.264745   -0.551857   -0.224162
      9          1           0       -2.740724    0.084707   -0.126895
 ---------------------------------------------------------------------

 SCF Done:  E(RM062X) =  -962.141239722     A.U. after    1 cycles

 Isotropic polarizability for W=    0.000000       43.79 Bohr**3.
 End of Minotr F.D. properties file   721 does not exist.

                      1                      2                      3
                      A                      A                      A
 Frequencies --     32.1949                60.0306               156.3549
 Red. masses --     10.9114                13.4233                 8.7538
 Frc consts  --      0.0067                 0.0285                 0.1261
 IR Inten    --      4.9853                 3.6822                 2.0607

                      4                      5                      6
                      A                      A                      A
 Frequencies --    200.3952               304.3860               343.1658
 Red. masses --      1.3852                12.5645                 4.6370
 Frc consts  --      0.0328                 0.6859                 0.3217
 IR Inten    --     87.2547                12.7140                22.2432

                      7                      8                      9
                      A                      A                      A
 Frequencies --    416.2446               466.8601               501.2521
 Red. masses --     16.6263                14.9237                11.0336
 Frc consts  --      1.6972                 1.9165                 1.6334
 IR Inten    --     38.8335                 5.0812                14.1536

                     10                     11                     12
                      A                      A                      A
 Frequencies --    560.3348               636.8632               691.1787
 Red. masses --     18.9229                17.4677                16.9487
 Frc consts  --      3.5005                 4.1742                 4.7705
 IR Inten    --     71.4547                 7.0821                 8.6130

                     13                     14                     15
                      A                      A                      A
 Frequencies --    752.0819               869.7594               968.6885
 Red. masses --     17.0316                13.2273                17.4472
 Frc consts  --      5.6759                 5.8955                 9.6459
 IR Inten    --    196.3760               133.2256                27.8171

                     16                     17                     18
                      A                      A                      A
 Frequencies --   1103.5207              1240.7551              1258.4643
 Red. masses --      1.1704                13.0276                13.2750
 Frc consts  --      0.8398                11.8165                12.3870
 IR Inten    --    173.6642               360.4463               535.0229

                     19                     20                     21
                      A                      A                      A
 Frequencies --   1323.3092              1366.2732              3816.2607
 Red. masses --     13.2382                14.9111                 1.0659
 Frc consts  --     13.6584                16.3997                 9.1459
 IR Inten    --    532.3331               150.8657               143.8093

 - Thermochemistry -
 -------------------
 Temperature   298.150 Kelvin.  Pressure   1.00000 Atm.
 Atom     1 has atomic number  6 and mass  12.00000

 Molecular mass:   149.95985 amu.
 Principal axes and moments of inertia in atomic units:
                           1         2         3
     Eigenvalues --   513.664611530.489121681.57803
           X            0.65355   0.75578  -0.04084
           Y           -0.52853   0.49434   0.69013
           Z            0.54178  -0.42946   0.72253
 This molecule is an asymmetric top.
 Rotational symmetry number  1.
 Warning -- assumption of classical behavior for rotation
           may cause significant error
 Rotational temperatures (Kelvin)      0.16862     0.05659     0.05151
 Rotational constants (GHZ):           3.51346     1.17919     1.07324
 Zero-point vibrational energy     102091.5 (Joules/Mol)
                                   24.40047 (Kcal/Mol)
 Warning -- explicit consideration of  10 degrees of freedom as
           vibrations may cause significant error
 Vibrational temperatures:     46.32    86.37   224.96   288.32   437.94
          (Kelvin)            493.74   598.88   671.71   721.19   806.20
                              916.30   994.45  1082.08  1251.39  1393.73
                             1587.72  1785.17  1810.65  1903.95  1965.76
                             5490.75

 Zero-point correction=                           0.038885 (Hartree/Particle)
 Thermal correction to Energy=                    0.046853
 Thermal correction to Enthalpy=                  0.047797
 Thermal correction to Gibbs Free Energy=         0.004428
 Sum of electronic and zero-point Energies=           -962.102355
 Sum of electronic and thermal Energies=              -962.094386
 Sum of electronic and thermal Enthalpies=            -962.093442
 Sum of electronic and thermal Free Energies=         -962.136812

                     E (Thermal)             CV                S
                      KCal/Mol        Cal/Mol-Kelvin    Cal/Mol-Kelvin
 Total                   29.401             26.402             91.280
 Electronic               0.000              0.000              0.000
 Translational            0.889              2.981             40.926
 Rotational               0.889              2.981             28.671
 Vibrational             27.623             20.440             21.683
 Vibration     1          0.594              1.983              5.689
 Vibration     2          0.597              1.973              4.456
 Vibration     3          0.620              1.896              2.593
 Vibration     4          0.638              1.839              2.129
 Vibration     5          0.695              1.665              1.393
 Vibration     6          0.722              1.589              1.197
 Vibration     7          0.779              1.435              0.905
 Vibration     8          0.824              1.324              0.746
 Vibration     9          0.857              1.247              0.655
 Vibration    10          0.916              1.117              0.523

 Optimization completed.
    -- Stationary point found.
 Normal termination of Gaussian 16 at Sun May 25 05:18:40 2025.
