 Gaussian 16, Revision C.01,
 Gaussian 16:  ES64L-G16RevC.01  3-Jul-2019

 ----------------------------------------------------------------------
 #P M062X/Def2TZVPP Symm(None) scf(xqc) pop(None) geom(AllCheck,NoKeepC
 onstants) guess(Read) irc(RCFC,reverse,MaxPoints=100,StepSize=2)
 ----------------------------------------------------------------------

 Structure from the checkpoint file:  "1502984803620600000001_intra_H_migration_5_9_IRC_R.chk"
 ------------------------------
 Gaussian input prepared by ASE
 ------------------------------
 Charge =  0 Multiplicity = 1

 SCF Done:  E(RM062X) =  -962.069731347     A.U. after    9 cycles
 SCF Done:  E(RM062X) =  -962.069816382     A.U. after    9 cycles
 SCF Done:  E(RM062X) =  -962.069957467     A.U. after    9 cycles
 SCF Done:  E(RM062X) =  -962.070153688     A.U. after    9 cycles
 SCF Done:  E(RM062X) =  -962.070403711     A.U. after    9 cycles
 SCF Done:  E(RM062X) =  -962.070705820     A.U. after    9 cycles
 SCF Done:  E(RM062X) =  -962.071057990     A.U. after   10 cycles
 SCF Done:  E(RM062X) =  -962.071458015     A.U. after   10 cycles
 SCF Done:  E(RM062X) =  -962.071903647     A.U. after   10 cycles
 SCF Done:  E(RM062X) =  -962.072392692     A.U. after   10 cycles
 SCF Done:  E(RM062X) =  -962.118034107     A.U. after    8 cycles
 SCF Done:  E(RM062X) =  -962.118258710     A.U. after    8 cycles
 SCF Done:  E(RM062X) =  -962.118478658     A.U. after    8 cycles
 SCF Done:  E(RM062X) =  -962.118694049     A.U. after    8 cycles
 SCF Done:  E(RM062X) =  -962.118904976     A.U. after    8 cycles
 SCF Done:  E(RM062X) =  -962.119111525     A.U. after    8 cycles
 SCF Done:  E(RM062X) =  -962.119313776     A.U. after    8 cycles
 SCF Done:  E(RM062X) =  -962.119511807     A.U. after    8 cycles
 SCF Done:  E(RM062X) =  -962.119705689     A.U. after    8 cycles
 SCF Done:  E(RM062X) =  -962.119895489     A.U. after    8 cycles

                          Input orientation:
 ---------------------------------------------------------------------
 Center     Atomic      Atomic             Coordinates (Angstroms)
 Number     Number       Type             X           Y           Z
 ---------------------------------------------------------------------
      1          6           0       -0.944623   -0.182808    0.028985
      2          9           0       -1.489252    0.542784   -0.929589
      3          9           0       -1.464502    0.153184    1.193317
      4          9           0       -1.174903   -1.462805   -0.204137
      5         16           0        0.889006    0.062557    0.012000
      6          8           0        1.384257   -0.670990    1.115561
      7          8           0        1.324134   -0.148901   -1.326180
      8          8           0        1.041891    1.622416    0.140191
      9          1           0        1.353954    1.911033   -0.731385
 ---------------------------------------------------------------------

 Normal termination of Gaussian 16 at Sun May 25 04:06:58 2025.
