 Gaussian 16, Revision C.01,
 Gaussian 16:  ES64L-G16RevC.01  3-Jul-2019

 ----------------------------------------------------------------------
 #P M062X/Def2TZVPP Symm(None) scf(xqc) pop(None) geom(AllCheck,NoKeepC
 onstants) guess(Read) irc(RCFC,forward,MaxPoints=100,StepSize=2)
 ----------------------------------------------------------------------

 Structure from the checkpoint file:  "1502984803620600000001_r13_insertion_ROR_9_8_5_6_IRC_F.chk"
 ------------------------------
 Gaussian input prepared by ASE
 ------------------------------
 Charge =  0 Multiplicity = 1

 SCF Done:  E(RM062X) =  -961.921440522     A.U. after   13 cycles
 SCF Done:  E(RM062X) =  -961.921721886     A.U. after   15 cycles
 SCF Done:  E(RM062X) =  -961.922185699     A.U. after   15 cycles
 SCF Done:  E(RM062X) =  -961.922826499     A.U. after   15 cycles
 SCF Done:  E(RM062X) =  -961.923637853     A.U. after   15 cycles
 SCF Done:  E(RM062X) =  -961.924612454     A.U. after   15 cycles
 SCF Done:  E(RM062X) =  -961.925742243     A.U. after   15 cycles
 SCF Done:  E(RM062X) =  -961.927018525     A.U. after   15 cycles
 SCF Done:  E(RM062X) =  -961.928432084     A.U. after   15 cycles
 SCF Done:  E(RM062X) =  -961.929973288     A.U. after   15 cycles
 SCF Done:  E(RM062X) =  -962.007574305     A.U. after    8 cycles
 SCF Done:  E(RM062X) =  -962.007597627     A.U. after   10 cycles
 SCF Done:  E(RM062X) =  -962.007619550     A.U. after   10 cycles
 SCF Done:  E(RM062X) =  -962.007638664     A.U. after   10 cycles
 SCF Done:  E(RM062X) =  -962.007656131     A.U. after   10 cycles
 SCF Done:  E(RM062X) =  -962.007671517     A.U. after   10 cycles
 SCF Done:  E(RM062X) =  -962.007672309     A.U. after    8 cycles
 SCF Done:  E(RM062X) =  -962.007686588     A.U. after    9 cycles
 SCF Done:  E(RM062X) =  -962.007699807     A.U. after   10 cycles
 SCF Done:  E(RM062X) =  -962.007711434     A.U. after    9 cycles

                          Input orientation:
 ---------------------------------------------------------------------
 Center     Atomic      Atomic             Coordinates (Angstroms)
 Number     Number       Type             X           Y           Z
 ---------------------------------------------------------------------
      1          6           0        0.856756   -0.263058    0.600752
      2          9           0        1.097006   -1.415394    0.010190
      3          9           0        0.413330   -0.477083    1.833104
      4          9           0        1.980609    0.435661    0.663465
      5         16           0       -0.379655    0.783299   -0.347802
      6          8           0       -2.658019   -0.061542   -0.744118
      7          8           0        0.209328    0.963863   -1.651713
      8          8           0       -1.379563   -0.530960   -0.338673
      9          1           0       -3.164014   -0.156716    0.073318
 ---------------------------------------------------------------------

 Normal termination of Gaussian 16 at Sun May 25 05:06:11 2025.
