 Gaussian 16, Revision C.01,
 Gaussian 16:  ES64L-G16RevC.01  3-Jul-2019

 -----------------------------------------------------------------
 #P M062X/Def2TZVPP Symm(None) scf(xqc) pop(None) freq opt(CalcFC)
 -----------------------------------------------------------------

 ------------------------------
 Gaussian input prepared by ASE
 ------------------------------
 Symbolic Z-matrix:
 Charge =  0 Multiplicity = 1

 SCF Done:  E(RM062X) =  -962.108096569     A.U. after   13 cycles
 SCF Done:  E(RM062X) =  -962.122037710     A.U. after   14 cycles
 SCF Done:  E(RM062X) =  -962.094946291     A.U. after   14 cycles
 SCF Done:  E(RM062X) =  -962.120306277     A.U. after   14 cycles
 SCF Done:  E(RM062X) =  -962.123810809     A.U. after   11 cycles
 SCF Done:  E(RM062X) =  -962.124607845     A.U. after   11 cycles
 SCF Done:  E(RM062X) =  -962.125099783     A.U. after   11 cycles
 SCF Done:  E(RM062X) =  -962.125359423     A.U. after   11 cycles
 SCF Done:  E(RM062X) =  -962.125420760     A.U. after   10 cycles
 SCF Done:  E(RM062X) =  -962.125453337     A.U. after   10 cycles
 SCF Done:  E(RM062X) =  -962.125468419     A.U. after   10 cycles
 SCF Done:  E(RM062X) =  -962.125483921     A.U. after    9 cycles
 SCF Done:  E(RM062X) =  -962.125486635     A.U. after    8 cycles
 Optimization completed.
    -- Stationary point found.
 Normal termination of Gaussian 16 at Sun May 25 04:57:26 2025.

 ---------------------------------------------------------------------
 #P Geom=AllCheck Guess=TCheck SCRF=Check GenChk RM062X/def2TZVPP Freq
 ---------------------------------------------------------------------

 Structure from the checkpoint file:  "1502984803620600000001_intra_H_migration_suprafacial_6_9_IRC_R_prod.chk"
 ------------------------------
 Gaussian input prepared by ASE
 ------------------------------
 Charge =  0 Multiplicity = 1

                          Input orientation:
 ---------------------------------------------------------------------
 Center     Atomic      Atomic             Coordinates (Angstroms)
 Number     Number       Type             X           Y           Z
 ---------------------------------------------------------------------
      1          6           0        0.079004   -0.642564   -1.058562
      2          9           0       -0.769415    0.206353   -1.632851
      3          9           0       -0.587784   -1.707385   -0.669885
      4          9           0        0.989729   -0.996524   -1.938356
      5         16           0       -0.085821    0.816331    1.089344
      6          8           0        0.738672   -0.041788   -0.010611
      7          8           0       -1.339364    0.201793    1.310969
      8          8           0        0.853994    1.074168    2.108330
      9          1           0       -0.270601    1.929784    0.362270
 ---------------------------------------------------------------------

 SCF Done:  E(RM062X) =  -962.125486635     A.U. after    1 cycles

 Isotropic polarizability for W=    0.000000       41.05 Bohr**3.
 End of Minotr F.D. properties file   721 does not exist.

                      1                      2                      3
                      A                      A                      A
 Frequencies --     59.6036                99.0852               165.4792
 Red. masses --     11.7967                12.9879                16.1708
 Frc consts  --      0.0247                 0.0751                 0.2609
 IR Inten    --      2.7630                 2.6485                 0.7011

                      4                      5                      6
                      A                      A                      A
 Frequencies --    339.7183               349.2698               426.1139
 Red. masses --     15.8425                16.9360                13.8823
 Frc consts  --      1.0772                 1.2173                 1.4851
 IR Inten    --      2.1997                 2.0437                11.9757

                      7                      8                      9
                      A                      A                      A
 Frequencies --    500.9375               562.4095               596.1512
 Red. masses --     14.2591                16.0119                15.9484
 Frc consts  --      2.1082                 2.9840                 3.3395
 IR Inten    --     28.2156                49.2933                32.9228

                     10                     11                     12
                      A                      A                      A
 Frequencies --    648.8462               702.9894               818.3419
 Red. masses --     17.0120                14.9693                17.9111
 Frc consts  --      4.2198                 4.3586                 7.0671
 IR Inten    --     41.3116                 3.3074               112.4005

                     13                     14                     15
                      A                      A                      A
 Frequencies --    995.5162              1094.3845              1157.6792
 Red. masses --     12.2191                 1.2659                 1.1042
 Frc consts  --      7.1349                 0.8933                 0.8719
 IR Inten    --    154.5345               111.0507                 0.2846

                     16                     17                     18
                      A                      A                      A
 Frequencies --   1211.8180              1278.0244              1307.1254
 Red. masses --      6.9887                10.9937                11.2383
 Frc consts  --      6.0468                10.5797                11.3132
 IR Inten    --    482.2380               163.0330               307.6138

                     19                     20                     21
                      A                      A                      A
 Frequencies --   1332.3535              1515.5665              2688.0753
 Red. masses --     13.0436                19.3028                 1.0428
 Frc consts  --     13.6423                26.1229                 4.4394
 IR Inten    --    367.0742               320.9792                10.4800

 - Thermochemistry -
 -------------------
 Temperature   298.150 Kelvin.  Pressure   1.00000 Atm.
 Atom     1 has atomic number  6 and mass  12.00000

 Molecular mass:   149.95985 amu.
 Principal axes and moments of inertia in atomic units:
                           1         2         3
     Eigenvalues --   486.909711439.361521574.47118
           X           -0.02184   0.97981  -0.19875
           Y            0.49063   0.18372   0.85178
           Z            0.87109  -0.07891  -0.48474
 This molecule is an asymmetric top.
 Rotational symmetry number  1.
 Warning -- assumption of classical behavior for rotation
           may cause significant error
 Rotational temperatures (Kelvin)      0.17788     0.06018     0.05501
 Rotational constants (GHZ):           3.70652     1.25385     1.14625
 Zero-point vibrational energy     106763.7 (Joules/Mol)
                                   25.51713 (Kcal/Mol)
 Warning -- explicit consideration of   9 degrees of freedom as
           vibrations may cause significant error
 Vibrational temperatures:     85.76   142.56   238.09   488.78   502.52
          (Kelvin)            613.08   720.74   809.18   857.73   933.54
                             1011.44  1177.41  1432.33  1574.58  1665.64
                             1743.54  1838.79  1880.66  1916.96  2180.56
                             3867.54

 Zero-point correction=                           0.040664 (Hartree/Particle)
 Thermal correction to Energy=                    0.047708
 Thermal correction to Enthalpy=                  0.048652
 Thermal correction to Gibbs Free Energy=         0.007820
 Sum of electronic and zero-point Energies=           -962.084823
 Sum of electronic and thermal Energies=              -962.077779
 Sum of electronic and thermal Enthalpies=            -962.076834
 Sum of electronic and thermal Free Energies=         -962.117667

                     E (Thermal)             CV                S
                      KCal/Mol        Cal/Mol-Kelvin    Cal/Mol-Kelvin
 Total                   29.937             23.738             85.939
 Electronic               0.000              0.000              0.000
 Translational            0.889              2.981             40.926
 Rotational               0.889              2.981             28.491
 Vibrational             28.160             17.777             16.522
 Vibration     1          0.597              1.974              4.470
 Vibration     2          0.604              1.950              3.472
 Vibration     3          0.624              1.885              2.486
 Vibration     4          0.720              1.596              1.213
 Vibration     5          0.727              1.577              1.169
 Vibration     6          0.788              1.413              0.871
 Vibration     7          0.856              1.248              0.656
 Vibration     8          0.918              1.113              0.519
 Vibration     9          0.954              1.040              0.456

                           ! Non-Optimized Parameters !
 Normal termination of Gaussian 16 at Sun May 25 04:59:19 2025.
