 Gaussian 16, Revision C.01,
 Gaussian 16:  ES64L-G16RevC.01  3-Jul-2019

 ----------------------------------------------------------------------
 #P M062X/Def2TZVPP Symm(None) scf(xqc) pop(None) opt(NoFreeze,TS,CalcA
 ll,NoEigentest,MaxCycle=999)
 ----------------------------------------------------------------------

 ------------------------------
 Gaussian input prepared by ASE
 ------------------------------
 Symbolic Z-matrix:
 Charge =  0 Multiplicity = 1

 SCF Done:  E(RM062X) =  -961.944430184     A.U. after   17 cycles
 SCF Done:  E(RM062X) =  -961.942572673     A.U. after   16 cycles
 SCF Done:  E(RM062X) =  -961.932870870     A.U. after   18 cycles
 SCF Done:  E(RM062X) =  -961.920102409     A.U. after   19 cycles
 SCF Done:  E(RM062X) =  -961.908851077     A.U. after   23 cycles
 SCF Done:  E(RM062X) =  -961.902234344     A.U. after   20 cycles
 SCF Done:  E(RM062X) =  -961.901411284     A.U. after   20 cycles
 SCF Done:  E(RM062X) =  -961.901450928     A.U. after   14 cycles
 SCF Done:  E(RM062X) =  -961.901457699     A.U. after   15 cycles
 SCF Done:  E(RM062X) =  -961.901457938     A.U. after   11 cycles

 Isotropic polarizability for W=    0.000000       52.35 Bohr**3.
 End of Minotr F.D. properties file   721 does not exist.

 Optimization completed.
    -- Stationary point found.

                          Input orientation:
 ---------------------------------------------------------------------
 Center     Atomic      Atomic             Coordinates (Angstroms)
 Number     Number       Type             X           Y           Z
 ---------------------------------------------------------------------
      1          6           0       -0.103964   -0.034538   -0.019144
      2          9           0       -0.520603    0.596449   -1.074779
      3          9           0       -0.456176    0.554864    1.082967
      4          9           0       -0.499192   -1.289682   -0.031539
      5         16           0        1.791121   -0.102680   -0.077144
      6          8           0        2.313442   -0.526684    1.159094
      7          8           0        2.237591   -0.480944   -1.357237
      8          8           0        1.870049    2.402771   -0.033962
      9          1           0        1.838246    1.393272   -0.051386
 ---------------------------------------------------------------------

 ******    2 imaginary frequencies (negative Signs) ******

                      1                      2                      3
                      A                      A                      A
 Frequencies --  -1643.8527             -1587.3403                52.3463
 Red. masses --      1.0311                 1.0364                16.8293
 Frc consts  --      1.6417                 1.5385                 0.0272
 IR Inten    --    110.3916               125.7042                 1.6452

                      4                      5                      6
                      A                      A                      A
 Frequencies --    119.6717               169.0103               204.1710
 Red. masses --     14.6014                16.3634                16.9237
 Frc consts  --      0.1232                 0.2754                 0.4157
 IR Inten    --      5.2993                 0.2540                 7.6669

                      7                      8                      9
                      A                      A                      A
 Frequencies --    241.9998               300.1084               355.1881
 Red. masses --     17.2406                17.6435                18.6228
 Frc consts  --      0.5949                 0.9362                 1.3842
 IR Inten    --     11.2548                 3.8054                 2.7949

                     10                     11                     12
                      A                      A                      A
 Frequencies --    374.7357               532.9819               560.7160
 Red. masses --     12.5348                18.4907                19.1369
 Frc consts  --      1.0371                 3.0948                 3.5449
 IR Inten    --      0.1443                67.0964                81.9322

                     13                     14                     15
                      A                      A                      A
 Frequencies --    566.3122               595.2190               792.1663
 Red. masses --     17.8790                19.9097                16.5349
 Frc consts  --      3.3784                 4.1559                 6.1134
 IR Inten    --      1.7882               125.7068                39.9828

                     16                     17                     18
                      A                      A                      A
 Frequencies --   1095.4095              1270.2365              1320.0129
 Red. masses --     14.3112                17.1107                13.3819
 Frc consts  --     10.1177                16.2662                13.7380
 IR Inten    --    429.7495                66.7416               212.1639

                     19                     20                     21
                      A                      A                      A
 Frequencies --   1382.3025              1542.4086              3395.4540
 Red. masses --     13.2954                19.9629                 1.0435
 Frc consts  --     14.9678                27.9816                 7.0881
 IR Inten    --    219.3250               198.9029              3015.8518

 - Thermochemistry -
 -------------------
 Temperature   298.150 Kelvin.  Pressure   1.00000 Atm.
 Atom     1 has atomic number  6 and mass  12.00000

 Molecular mass:   149.95985 amu.
 Principal axes and moments of inertia in atomic units:
                           1         2         3
     Eigenvalues --   843.043311154.942951319.59184
           X            0.97708  -0.21078   0.02991
           Y            0.21137   0.97724  -0.01822
           Z           -0.02539   0.02412   0.99939
 This molecule is an asymmetric top.
 Rotational symmetry number  1.
 Warning -- assumption of classical behavior for rotation
           may cause significant error
 Rotational temperatures (Kelvin)      0.10274     0.07499     0.06564
 Rotational constants (GHZ):           2.14075     1.56262     1.36765
    2 imaginary frequencies ignored.
 Zero-point vibrational energy      88945.0 (Joules/Mol)
                                   21.25838 (Kcal/Mol)
 Warning -- explicit consideration of  12 degrees of freedom as
           vibrations may cause significant error
 Vibrational temperatures:     75.31   172.18   243.17   293.76   348.18
          (Kelvin)            431.79   511.04   539.16   766.84   806.75
                              814.80   856.39  1139.75  1576.05  1827.59
                             1899.20  1988.82  2219.18  4885.30

 Zero-point correction=                           0.033877 (Hartree/Particle)
 Thermal correction to Energy=                    0.041878
 Thermal correction to Enthalpy=                  0.042822
 Thermal correction to Gibbs Free Energy=         0.000162
 Sum of electronic and zero-point Energies=           -961.867581
 Sum of electronic and thermal Energies=              -961.859580
 Sum of electronic and thermal Enthalpies=            -961.858636
 Sum of electronic and thermal Free Energies=         -961.901296

                     E (Thermal)             CV                S
                      KCal/Mol        Cal/Mol-Kelvin    Cal/Mol-Kelvin
 Total                   26.279             25.990             89.785
 Electronic               0.000              0.000              0.000
 Translational            0.889              2.981             40.926
 Rotational               0.889              2.981             28.643
 Vibrational             24.501             20.028             20.217
 Vibration     1          0.596              1.977              4.727
 Vibration     2          0.609              1.933              3.106
 Vibration     3          0.625              1.881              2.446
 Vibration     4          0.640              1.834              2.095
 Vibration     5          0.658              1.776              1.788
 Vibration     6          0.693              1.673              1.416
 Vibration     7          0.731              1.565              1.143
 Vibration     8          0.746              1.524              1.060
 Vibration     9          0.888              1.177              0.581
 Vibration    10          0.916              1.116              0.522
 Vibration    11          0.922              1.104              0.511
 Vibration    12          0.953              1.042              0.458

 Normal termination of Gaussian 16 at Sun May 25 03:51:38 2025.
