 Gaussian 16, Revision C.01,
 Gaussian 16:  ES64L-G16RevC.01  3-Jul-2019

 -----------------------------------------------------------------
 #P M062X/Def2TZVPP Symm(None) scf(xqc) pop(None) freq opt(CalcFC)
 -----------------------------------------------------------------

 ------------------------------
 Gaussian input prepared by ASE
 ------------------------------
 Symbolic Z-matrix:
 Charge =  0 Multiplicity = 1

 SCF Done:  E(RM062X) =  -962.076248785     A.U. after   15 cycles
 SCF Done:  E(RM062X) =  -962.100592950     A.U. after   14 cycles
 SCF Done:  E(RM062X) =  -962.120715552     A.U. after   14 cycles
 SCF Done:  E(RM062X) =  -962.122743727     A.U. after   12 cycles
 SCF Done:  E(RM062X) =  -962.124110236     A.U. after   12 cycles
 SCF Done:  E(RM062X) =  -962.125422634     A.U. after   13 cycles
 SCF Done:  E(RM062X) =  -962.125728006     A.U. after   11 cycles
 SCF Done:  E(RM062X) =  -962.125835468     A.U. after   11 cycles
 SCF Done:  E(RM062X) =  -962.125878253     A.U. after   10 cycles
 SCF Done:  E(RM062X) =  -962.125890193     A.U. after    8 cycles
 SCF Done:  E(RM062X) =  -962.125891632     A.U. after    8 cycles
 SCF Done:  E(RM062X) =  -962.125891693     A.U. after    6 cycles
 Optimization completed.
    -- Stationary point found.
 Normal termination of Gaussian 16 at Sun May 25 05:24:01 2025.

 ---------------------------------------------------------------------
 #P Geom=AllCheck Guess=TCheck SCRF=Check GenChk RM062X/def2TZVPP Freq
 ---------------------------------------------------------------------

 Structure from the checkpoint file:  "1502984803620600000001_r12_insertion_R_6_5_7_IRC_F_prod.chk"
 ------------------------------
 Gaussian input prepared by ASE
 ------------------------------
 Charge =  0 Multiplicity = 1

                          Input orientation:
 ---------------------------------------------------------------------
 Center     Atomic      Atomic             Coordinates (Angstroms)
 Number     Number       Type             X           Y           Z
 ---------------------------------------------------------------------
      1          6           0       -0.889504   -0.118847    0.067211
      2          9           0       -1.389357    0.568946   -0.950678
      3          9           0       -1.358263    0.374573    1.196746
      4          9           0       -1.239731   -1.385380   -0.044546
      5         16           0        0.946559   -0.003269    0.032398
      6          8           0        1.421773   -0.544121    1.246253
      7          8           0        1.359854   -0.452872   -1.248406
      8          8           0        1.103452    1.559501    0.110075
      9          1           0        1.150132    1.933781   -0.781518
 ---------------------------------------------------------------------

 SCF Done:  E(RM062X) =  -962.125891693     A.U. after    1 cycles

 Isotropic polarizability for W=    0.000000       41.21 Bohr**3.
 End of Minotr F.D. properties file   721 does not exist.

                      1                      2                      3
                      A                      A                      A
 Frequencies --     60.9343               187.0152               194.9345
 Red. masses --     13.4526                 7.0056                15.9722
 Frc consts  --      0.0294                 0.1444                 0.3576
 IR Inten    --      1.4016                10.2516                 3.4785

                      4                      5                      6
                      A                      A                      A
 Frequencies --    309.7651               319.3112               342.3720
 Red. masses --      9.2402                 2.7963                13.6035
 Frc consts  --      0.5224                 0.1680                 0.9395
 IR Inten    --      1.6888                35.5263                 1.6757

                      7                      8                      9
                      A                      A                      A
 Frequencies --    372.0182               471.3364               507.0447
 Red. masses --      2.2968                 4.3998                15.0680
 Frc consts  --      0.1873                 0.5759                 2.2824
 IR Inten    --     44.5255                27.5300                26.5301

                     10                     11                     12
                      A                      A                      A
 Frequencies --    571.1765               577.0157               632.1078
 Red. masses --     15.6426                16.3905                20.0031
 Frc consts  --      3.0068                 3.2153                 4.7090
 IR Inten    --      0.9051                 2.8300               159.2551

                     13                     14                     15
                      A                      A                      A
 Frequencies --    794.4856               906.8604              1138.7158
 Red. masses --     17.7188                17.6087                 1.1841
 Frc consts  --      6.5896                 8.5322                 0.9046
 IR Inten    --      3.7637               218.0765                87.4106

                     16                     17                     18
                      A                      A                      A
 Frequencies --   1197.9946              1275.1085              1295.6300
 Red. masses --     14.8093                13.3663                13.3855
 Frc consts  --     12.5226                12.8043                13.2388
 IR Inten    --    265.4747               163.8895               131.6369

                     19                     20                     21
                      A                      A                      A
 Frequencies --   1308.3903              1503.7660              3810.5562
 Red. masses --     15.2580                15.4227                 1.0657
 Frc consts  --     15.3894                20.5480                 9.1171
 IR Inten    --    237.2526               292.6184               186.4375

 - Thermochemistry -
 -------------------
 Temperature   298.150 Kelvin.  Pressure   1.00000 Atm.
 Atom     1 has atomic number  6 and mass  12.00000

 Molecular mass:   149.95985 amu.
 Principal axes and moments of inertia in atomic units:
                           1         2         3
     Eigenvalues --   673.859201131.918491139.37367
           X            0.99138   0.08983  -0.09539
           Y            0.12932  -0.55383   0.82253
           Z           -0.02106   0.82777   0.56067
 This molecule is an asymmetric top.
 Rotational symmetry number  1.
 Warning -- assumption of classical behavior for rotation
           may cause significant error
 Rotational temperatures (Kelvin)      0.12853     0.07652     0.07602
 Rotational constants (GHZ):           2.67822     1.59441     1.58398
 Zero-point vibrational energy     106327.3 (Joules/Mol)
                                   25.41284 (Kcal/Mol)
 Warning -- explicit consideration of  11 degrees of freedom as
           vibrations may cause significant error
 Vibrational temperatures:     87.67   269.07   280.47   445.68   459.42
          (Kelvin)            492.60   535.25   678.15   729.52   821.80
                              830.20   909.46  1143.09  1304.77  1638.36
                             1723.65  1834.60  1864.12  1882.48  2163.58
                             5482.54

 Zero-point correction=                           0.040498 (Hartree/Particle)
 Thermal correction to Energy=                    0.047973
 Thermal correction to Enthalpy=                  0.048917
 Thermal correction to Gibbs Free Energy=         0.007914
 Sum of electronic and zero-point Energies=           -962.085394
 Sum of electronic and thermal Energies=              -962.077919
 Sum of electronic and thermal Enthalpies=            -962.076975
 Sum of electronic and thermal Free Energies=         -962.117977

                     E (Thermal)             CV                S
                      KCal/Mol        Cal/Mol-Kelvin    Cal/Mol-Kelvin
 Total                   30.103             25.872             86.298
 Electronic               0.000              0.000              0.000
 Translational            0.889              2.981             40.926
 Rotational               0.889              2.981             28.254
 Vibrational             28.326             19.911             17.118
 Vibration     1          0.597              1.973              4.427
 Vibration     2          0.632              1.858              2.257
 Vibration     3          0.636              1.847              2.180
 Vibration     4          0.699              1.655              1.364
 Vibration     5          0.705              1.637              1.314
 Vibration     6          0.722              1.591              1.201
 Vibration     7          0.744              1.530              1.071
 Vibration     8          0.828              1.314              0.734
 Vibration     9          0.862              1.234              0.641
 Vibration    10          0.927              1.094              0.502
 Vibration    11          0.933              1.081              0.491

 Optimization completed.
    -- Stationary point found.
 Normal termination of Gaussian 16 at Sun May 25 05:26:52 2025.
