 Gaussian 16, Revision C.01,
 Gaussian 16:  ES64L-G16RevC.01  3-Jul-2019

 ----------------------------------------------------------------------
 #P M062X/Def2TZVPP Symm(None) scf(xqc) pop(None) geom(AllCheck,NoKeepC
 onstants) guess(Read) irc(RCFC,reverse,MaxPoints=100,StepSize=2)
 ----------------------------------------------------------------------

 Structure from the checkpoint file:  "1502984803620600000001_intra_H_migration_suprafacial_6_9_IRC_R.chk"
 ------------------------------
 Gaussian input prepared by ASE
 ------------------------------
 Charge =  0 Multiplicity = 1

 SCF Done:  E(RM062X) =  -962.063365615     A.U. after    9 cycles
 SCF Done:  E(RM062X) =  -962.063419986     A.U. after   10 cycles
 SCF Done:  E(RM062X) =  -962.063511562     A.U. after   11 cycles
 SCF Done:  E(RM062X) =  -962.063640713     A.U. after   11 cycles
 SCF Done:  E(RM062X) =  -962.063806784     A.U. after   11 cycles
 SCF Done:  E(RM062X) =  -962.064007761     A.U. after   11 cycles
 SCF Done:  E(RM062X) =  -962.064240589     A.U. after   10 cycles
 SCF Done:  E(RM062X) =  -962.064501985     A.U. after   10 cycles
 SCF Done:  E(RM062X) =  -962.064789198     A.U. after   10 cycles
 SCF Done:  E(RM062X) =  -962.065100308     A.U. after   10 cycles
 SCF Done:  E(RM062X) =  -962.105422554     A.U. after    9 cycles
 SCF Done:  E(RM062X) =  -962.105744778     A.U. after    9 cycles
 SCF Done:  E(RM062X) =  -962.106060446     A.U. after    9 cycles
 SCF Done:  E(RM062X) =  -962.106369670     A.U. after    9 cycles
 SCF Done:  E(RM062X) =  -962.106672571     A.U. after    9 cycles
 SCF Done:  E(RM062X) =  -962.106969269     A.U. after    9 cycles
 SCF Done:  E(RM062X) =  -962.107259892     A.U. after    9 cycles
 SCF Done:  E(RM062X) =  -962.107544568     A.U. after    9 cycles
 SCF Done:  E(RM062X) =  -962.107823426     A.U. after    8 cycles
 SCF Done:  E(RM062X) =  -962.108096596     A.U. after    8 cycles

                          Input orientation:
 ---------------------------------------------------------------------
 Center     Atomic      Atomic             Coordinates (Angstroms)
 Number     Number       Type             X           Y           Z
 ---------------------------------------------------------------------
      1          6           0        0.169645   -0.640328   -1.043656
      2          9           0       -0.341319    0.536628   -1.502703
      3          9           0       -0.815503   -1.523864   -1.053179
      4          9           0        1.071179   -1.034634   -1.922698
      5         16           0       -0.160180    0.785863    1.140480
      6          8           0        0.682214   -0.447001    0.202002
      7          8           0       -1.212931    0.151663    1.835403
      8          8           0        0.866373    1.511906    1.777411
      9          1           0       -0.651064    1.499935    0.127587
 ---------------------------------------------------------------------

 Normal termination of Gaussian 16 at Sun May 25 04:51:47 2025.
