 Gaussian 16, Revision C.01,
 Gaussian 16:  ES64L-G16RevC.01  3-Jul-2019

 ----------------------------------------------------------------------
 #P M062X/Def2TZVPP Symm(None) scf(xqc) pop(None) geom(AllCheck,NoKeepC
 onstants) guess(Read) irc(RCFC,forward,MaxPoints=100,StepSize=2)
 ----------------------------------------------------------------------

 Structure from the checkpoint file:  "1502984803620600000001_r12_insertion_R_5_1_3_IRC_F.chk"
 ------------------------------
 Gaussian input prepared by ASE
 ------------------------------
 Charge =  0 Multiplicity = 1

 SCF Done:  E(RM062X) =  -961.990045515     A.U. after   10 cycles
 SCF Done:  E(RM062X) =  -961.990108940     A.U. after   11 cycles
 SCF Done:  E(RM062X) =  -961.990216425     A.U. after   11 cycles
 SCF Done:  E(RM062X) =  -961.990369425     A.U. after   11 cycles
 SCF Done:  E(RM062X) =  -961.990569332     A.U. after   11 cycles
 SCF Done:  E(RM062X) =  -961.990817472     A.U. after   11 cycles
 SCF Done:  E(RM062X) =  -961.991115107     A.U. after   11 cycles
 SCF Done:  E(RM062X) =  -961.991463425     A.U. after   11 cycles
 SCF Done:  E(RM062X) =  -961.991863530     A.U. after   11 cycles
 SCF Done:  E(RM062X) =  -961.992316434     A.U. after   11 cycles
 SCF Done:  E(RM062X) =  -962.104949869     A.U. after    9 cycles
 SCF Done:  E(RM062X) =  -962.105813052     A.U. after    9 cycles
 SCF Done:  E(RM062X) =  -962.106652437     A.U. after    9 cycles
 SCF Done:  E(RM062X) =  -962.107468010     A.U. after    9 cycles
 SCF Done:  E(RM062X) =  -962.108259757     A.U. after    9 cycles
 SCF Done:  E(RM062X) =  -962.109027658     A.U. after    9 cycles
 SCF Done:  E(RM062X) =  -962.109771694     A.U. after    9 cycles
 SCF Done:  E(RM062X) =  -962.110491843     A.U. after    9 cycles
 SCF Done:  E(RM062X) =  -962.111188081     A.U. after    9 cycles
 SCF Done:  E(RM062X) =  -962.111860382     A.U. after    9 cycles

                          Input orientation:
 ---------------------------------------------------------------------
 Center     Atomic      Atomic             Coordinates (Angstroms)
 Number     Number       Type             X           Y           Z
 ---------------------------------------------------------------------
      1          6           0       -0.965393   -0.182695    0.009760
      2          9           0       -1.535081   -0.349927   -1.170665
      3          9           0       -1.320400    0.982439    0.530104
      4          9           0       -1.376436   -1.181046    0.766483
      5         16           0        0.906792    0.017041   -0.065739
      6          8           0        1.411732   -0.939199    0.843835
      7          8           0        1.171114    0.158640   -1.455343
      8          8           0        1.276583    1.402695    0.590956
      9          1           0        1.251263    2.101407   -0.078233
 ---------------------------------------------------------------------

 Normal termination of Gaussian 16 at Sun May 25 04:17:34 2025.
