 Gaussian 16, Revision C.01,
 Gaussian 16:  ES64L-G16RevC.01  3-Jul-2019

 -----------------------------------------------------------------
 #P M062X/Def2TZVPP Symm(None) scf(xqc) pop(None) freq opt(CalcFC)
 -----------------------------------------------------------------

 ------------------------------
 Gaussian input prepared by ASE
 ------------------------------
 Symbolic Z-matrix:
 Charge =  0 Multiplicity = 1

 SCF Done:  E(RM062X) =  -962.120765301     A.U. after   13 cycles
 SCF Done:  E(RM062X) =  -962.121215323     A.U. after   12 cycles
 SCF Done:  E(RM062X) =  -962.122727544     A.U. after   12 cycles
 SCF Done:  E(RM062X) =  -962.125110748     A.U. after   13 cycles
 SCF Done:  E(RM062X) =  -962.122090264     A.U. after   14 cycles
 SCF Done:  E(RM062X) =  -962.125865994     A.U. after   12 cycles
 SCF Done:  E(RM062X) =  -962.125893491     A.U. after    9 cycles
 SCF Done:  E(RM062X) =  -962.125895115     A.U. after    8 cycles
 Optimization completed.
    -- Stationary point found.
 Normal termination of Gaussian 16 at Sun May 25 04:13:34 2025.

 ---------------------------------------------------------------------
 #P Geom=AllCheck Guess=TCheck SCRF=Check GenChk RM062X/def2TZVPP Freq
 ---------------------------------------------------------------------

 Structure from the checkpoint file:  "1502984803620600000001_Intra_Diels_alder_R_6_7_IRC_F_prod.chk"
 ------------------------------
 Gaussian input prepared by ASE
 ------------------------------
 Charge =  0 Multiplicity = 1

                          Input orientation:
 ---------------------------------------------------------------------
 Center     Atomic      Atomic             Coordinates (Angstroms)
 Number     Number       Type             X           Y           Z
 ---------------------------------------------------------------------
      1          6           0       -0.929415   -0.155521   -0.013331
      2          9           0       -1.449483    0.535673   -1.018554
      3          9           0       -1.364863    0.342565    1.127484
      4          9           0       -1.292959   -1.419170   -0.114963
      5         16           0        0.906154   -0.056161   -0.094448
      6          8           0        1.283478   -0.511228   -1.384353
      7          8           0        1.406422   -0.599740    1.108108
      8          8           0        1.079288    1.505121   -0.023084
      9          1           0        1.108288    1.877959   -0.916022
 ---------------------------------------------------------------------

 SCF Done:  E(RM062X) =  -962.125895114     A.U. after    1 cycles

 Isotropic polarizability for W=    0.000000       41.22 Bohr**3.
 End of Minotr F.D. properties file   721 does not exist.

                      1                      2                      3
                      A                      A                      A
 Frequencies --     61.1367               187.6437               195.2927
 Red. masses --     13.4630                 7.3708                15.9979
 Frc consts  --      0.0296                 0.1529                 0.3595
 IR Inten    --      1.4064                 9.5695                 3.3785

                      4                      5                      6
                      A                      A                      A
 Frequencies --    310.0488               322.6001               342.4454
 Red. masses --     11.2266                 3.0502                13.5794
 Frc consts  --      0.6359                 0.1870                 0.9382
 IR Inten    --      0.7328                30.8217                 1.6741

                      7                      8                      9
                      A                      A                      A
 Frequencies --    376.0733               472.2269               507.2399
 Red. masses --      2.0757                 4.2363                14.9892
 Frc consts  --      0.1730                 0.5566                 2.2722
 IR Inten    --     49.6401                28.2957                26.5284

                     10                     11                     12
                      A                      A                      A
 Frequencies --    571.2380               577.0151               632.5975
 Red. masses --     15.6202                16.3816                19.9716
 Frc consts  --      3.0031                 3.2135                 4.7089
 IR Inten    --      0.9048                 2.8219               159.8099

                     13                     14                     15
                      A                      A                      A
 Frequencies --    794.6060               907.0632              1139.8031
 Red. masses --     17.7201                17.5957                 1.1836
 Frc consts  --      6.5921                 8.5296                 0.9060
 IR Inten    --      3.7336               218.0230                87.7275

                     16                     17                     18
                      A                      A                      A
 Frequencies --   1198.4762              1275.5998              1295.5625
 Red. masses --     14.8028                13.3525                13.3521
 Frc consts  --     12.5272                12.8010                13.2044
 IR Inten    --    264.4640               166.0146               136.0676

                     19                     20                     21
                      A                      A                      A
 Frequencies --   1308.7264              1504.7488              3809.2678
 Red. masses --     15.3380                15.4259                 1.0657
 Frc consts  --     15.4781                20.5792                 9.1110
 IR Inten    --    231.4458               292.6684               186.6448

 - Thermochemistry -
 -------------------
 Temperature   298.150 Kelvin.  Pressure   1.00000 Atm.
 Atom     1 has atomic number  6 and mass  12.00000

 Molecular mass:   149.95985 amu.
 Principal axes and moments of inertia in atomic units:
                           1         2         3
     Eigenvalues --   673.832881131.994401139.42863
           X            0.99162   0.10576  -0.07417
           Y            0.12063  -0.55271   0.82460
           Z           -0.04621   0.82663   0.56084
 This molecule is an asymmetric top.
 Rotational symmetry number  1.
 Warning -- assumption of classical behavior for rotation
           may cause significant error
 Rotational temperatures (Kelvin)      0.12854     0.07651     0.07602
 Rotational constants (GHZ):           2.67832     1.59430     1.58390
 Zero-point vibrational energy     106404.3 (Joules/Mol)
                                   25.43124 (Kcal/Mol)
 Warning -- explicit consideration of  11 degrees of freedom as
           vibrations may cause significant error
 Vibrational temperatures:     87.96   269.98   280.98   446.09   464.15
          (Kelvin)            492.70   541.09   679.43   729.81   821.88
                              830.20   910.17  1143.26  1305.06  1639.92
                             1724.34  1835.30  1864.03  1882.97  2165.00
                             5480.69

 Zero-point correction=                           0.040527 (Hartree/Particle)
 Thermal correction to Energy=                    0.047990
 Thermal correction to Enthalpy=                  0.048935
 Thermal correction to Gibbs Free Energy=         0.007958
 Sum of electronic and zero-point Energies=           -962.085368
 Sum of electronic and thermal Energies=              -962.077905
 Sum of electronic and thermal Enthalpies=            -962.076961
 Sum of electronic and thermal Free Energies=         -962.117937

                     E (Thermal)             CV                S
                      KCal/Mol        Cal/Mol-Kelvin    Cal/Mol-Kelvin
 Total                   30.114             25.850             86.242
 Electronic               0.000              0.000              0.000
 Translational            0.889              2.981             40.926
 Rotational               0.889              2.981             28.254
 Vibrational             28.337             19.888             17.062
 Vibration     1          0.597              1.973              4.420
 Vibration     2          0.632              1.857              2.251
 Vibration     3          0.636              1.846              2.177
 Vibration     4          0.699              1.655              1.362
 Vibration     5          0.708              1.630              1.297
 Vibration     6          0.722              1.591              1.201
 Vibration     7          0.747              1.521              1.055
 Vibration     8          0.829              1.312              0.731
 Vibration     9          0.862              1.234              0.640
 Vibration    10          0.927              1.093              0.502
 Vibration    11          0.933              1.081              0.491

 Optimization completed.
    -- Stationary point found.
 Normal termination of Gaussian 16 at Sun May 25 04:15:24 2025.
