 Gaussian 16, Revision C.01,
 Gaussian 16:  ES64L-G16RevC.01  3-Jul-2019

 -----------------------------------------------------------------
 #P M062X/Def2TZVPP Symm(None) scf(xqc) pop(None) freq opt(CalcFC)
 -----------------------------------------------------------------

 ------------------------------
 Gaussian input prepared by ASE
 ------------------------------
 Symbolic Z-matrix:
 Charge =  0 Multiplicity = 1

 SCF Done:  E(RM062X) =  -961.963656738     A.U. after   15 cycles
 Optimization completed.
    -- Stationary point found.
 Normal termination of Gaussian 16 at Sun May 25 05:29:26 2025.

 ---------------------------------------------------------------------
 #P Geom=AllCheck Guess=TCheck SCRF=Check GenChk RM062X/def2TZVPP Freq
 ---------------------------------------------------------------------

 Structure from the checkpoint file:  "1503305764823040000001_well.chk"
 ------------------------------
 Gaussian input prepared by ASE
 ------------------------------
 Charge =  0 Multiplicity = 1

                          Input orientation:
 ---------------------------------------------------------------------
 Center     Atomic      Atomic             Coordinates (Angstroms)
 Number     Number       Type             X           Y           Z
 ---------------------------------------------------------------------
      1          6           0       -1.039749   -0.093686    0.161481
      2          9           0       -1.891083    0.502345   -0.668922
      3          9           0       -1.129173    0.472788    1.352100
      4          9           0       -1.385726   -1.376019    0.269787
      5         16           0        0.694566   -0.054885   -0.595648
      6          8           0        1.384476   -0.793535    0.590333
      7          8           0        2.446541   -0.189741   -0.272214
      8          8           0        0.694579    1.522429   -0.350114
      9          1           0        1.587394    1.853952   -0.515829
 ---------------------------------------------------------------------

 SCF Done:  E(RM062X) =  -961.963656738     A.U. after    1 cycles

 Isotropic polarizability for W=    0.000000       45.45 Bohr**3.
 End of Minotr F.D. properties file   721 does not exist.

                      1                      2                      3
                      A                      A                      A
 Frequencies --     69.4295               156.4732               181.7678
 Red. masses --     14.1858                17.2133                13.1545
 Frc consts  --      0.0403                 0.2483                 0.2561
 IR Inten    --      1.3921                 2.7472                 1.0629

                      4                      5                      6
                      A                      A                      A
 Frequencies --    251.8697               303.2577               341.8520
 Red. masses --      6.7455                14.6115                 4.3099
 Frc consts  --      0.2521                 0.7917                 0.2968
 IR Inten    --      7.6764                 2.6806                17.9658

                      7                      8                      9
                      A                      A                      A
 Frequencies --    364.0776               422.6524               468.5120
 Red. masses --      2.0178                16.0510                 6.2806
 Frc consts  --      0.1576                 1.6893                 0.8123
 IR Inten    --     69.2918               105.5535               114.2763

                     10                     11                     12
                      A                      A                      A
 Frequencies --    477.4416               553.0303               575.0013
 Red. masses --      4.6402                16.4873                16.9298
 Frc consts  --      0.6232                 2.9710                 3.2979
 IR Inten    --     58.5723                 1.3098                13.4431

                     13                     14                     15
                      A                      A                      A
 Frequencies --    765.1902               874.9326               910.0203
 Red. masses --     17.1327                17.5095                16.8003
 Frc consts  --      5.9104                 7.8972                 8.1973
 IR Inten    --      0.3412                75.9119                66.4113

                     16                     17                     18
                      A                      A                      A
 Frequencies --   1063.4373              1175.9763              1217.0987
 Red. masses --     14.6918                 1.3639                 8.5298
 Frc consts  --      9.7893                 1.1113                 7.4446
 IR Inten    --     84.8464               236.4352               230.6853

                     19                     20                     21
                      A                      A                      A
 Frequencies --   1249.0820              1288.9483              3823.2709
 Red. masses --      9.8325                 7.9338                 1.0651
 Frc consts  --      9.0385                 7.7661                 9.1733
 IR Inten    --    204.5254               176.1655               169.2004

 - Thermochemistry -
 -------------------
 Temperature   298.150 Kelvin.  Pressure   1.00000 Atm.
 Atom     1 has atomic number  6 and mass  12.00000

 Molecular mass:   149.95985 amu.
 Principal axes and moments of inertia in atomic units:
                           1         2         3
     Eigenvalues --   563.377711259.814411429.02993
           X            0.99145  -0.06953   0.11042
           Y            0.02469   0.93091   0.36443
           Z           -0.12813  -0.35858   0.92466
 This molecule is an asymmetric top.
 Rotational symmetry number  1.
 Warning -- assumption of classical behavior for rotation
           may cause significant error
 Rotational temperatures (Kelvin)      0.15374     0.06875     0.06061
 Rotational constants (GHZ):           3.20343     1.43255     1.26291
 Zero-point vibrational energy      98891.2 (Joules/Mol)
                                   23.63557 (Kcal/Mol)
 Warning -- explicit consideration of  12 degrees of freedom as
           vibrations may cause significant error
 Vibrational temperatures:     99.89   225.13   261.52   362.38   436.32
          (Kelvin)            491.85   523.83   608.10   674.08   686.93
                              795.69   827.30  1100.94  1258.83  1309.32
                             1530.05  1691.97  1751.13  1797.15  1854.51
                             5500.83

 Zero-point correction=                           0.037666 (Hartree/Particle)
 Thermal correction to Energy=                    0.045560
 Thermal correction to Enthalpy=                  0.046504
 Thermal correction to Gibbs Free Energy=         0.004717
 Sum of electronic and zero-point Energies=           -961.925991
 Sum of electronic and thermal Energies=              -961.918097
 Sum of electronic and thermal Enthalpies=            -961.917153
 Sum of electronic and thermal Free Energies=         -961.958940

                     E (Thermal)             CV                S
                      KCal/Mol        Cal/Mol-Kelvin    Cal/Mol-Kelvin
 Total                   28.589             27.303             87.949
 Electronic               0.000              0.000              0.000
 Translational            0.889              2.981             40.926
 Rotational               0.889              2.981             28.408
 Vibrational             26.812             21.341             18.615
 Vibration     1          0.598              1.969              4.169
 Vibration     2          0.620              1.895              2.592
 Vibration     3          0.630              1.865              2.310
 Vibration     4          0.664              1.760              1.717
 Vibration     5          0.695              1.668              1.399
 Vibration     6          0.721              1.592              1.203
 Vibration     7          0.738              1.546              1.105
 Vibration     8          0.785              1.421              0.883
 Vibration     9          0.826              1.320              0.742
 Vibration    10          0.834              1.300              0.717
 Vibration    11          0.908              1.133              0.538
 Vibration    12          0.931              1.085              0.495

 Optimization completed.
    -- Stationary point found.
 Normal termination of Gaussian 16 at Sun May 25 05:31:15 2025.
