 Gaussian 16, Revision C.01,
 Gaussian 16:  ES64L-G16RevC.01  3-Jul-2019

 -----------------------------------------------------------------
 #P M062X/Def2TZVPP Symm(None) scf(xqc) pop(None) freq opt(CalcFC)
 -----------------------------------------------------------------

 ------------------------------
 Gaussian input prepared by ASE
 ------------------------------
 Symbolic Z-matrix:
 Charge =  0 Multiplicity = 1

 SCF Done:  E(RM062X) =  -237.723263264     A.U. after   12 cycles
 SCF Done:  E(RM062X) =  -237.723266544     A.U. after    8 cycles
 Optimization completed.
    -- Stationary point found.
 Normal termination of Gaussian 16 at Sun May 25 04:30:25 2025.

 ---------------------------------------------------------------------
 #P Geom=AllCheck Guess=TCheck SCRF=Check GenChk RM062X/def2TZVPP Freq
 ---------------------------------------------------------------------

 Structure from the checkpoint file:  "500620380000000000001_well.chk"
 ------------------------------
 Gaussian input prepared by ASE
 ------------------------------
 Charge =  0 Multiplicity = 1

                          Input orientation:
 ---------------------------------------------------------------------
 Center     Atomic      Atomic             Coordinates (Angstroms)
 Number     Number       Type             X           Y           Z
 ---------------------------------------------------------------------
      1          6           0       -1.719576   -1.365981    0.122348
      2          9           0       -1.144931   -2.236649    0.887348
      3          9           0       -2.696092   -0.904004    0.834048
 ---------------------------------------------------------------------

 SCF Done:  E(RM062X) =  -237.723266544     A.U. after    1 cycles

 Isotropic polarizability for W=    0.000000       14.27 Bohr**3.
 End of Minotr F.D. properties file   721 does not exist.

                      1                      2                      3
                      A                      A                      A
 Frequencies --    692.6021              1183.5909              1287.0207
 Red. masses --     17.7056                13.6929                13.8654
 Frc consts  --      5.0041                11.3018                13.5317
 IR Inten    --      4.4243               394.8209               129.3983

 - Thermochemistry -
 -------------------
 Temperature   298.150 Kelvin.  Pressure   1.00000 Atm.
 Atom     1 has atomic number  6 and mass  12.00000

 Molecular mass:    49.99681 amu.
 Principal axes and moments of inertia in atomic units:
                           1         2         3
     Eigenvalues --    20.42935 141.96071 162.39006
           X            0.75826  -0.25370   0.60057
           Y           -0.65144  -0.25801   0.71348
           Z            0.02605   0.93224   0.36090
 This molecule is an asymmetric top.
 Rotational symmetry number  1.
 Rotational temperatures (Kelvin)      4.23968     0.61013     0.53337
 Rotational constants (GHZ):          88.34061    12.71296    11.11362
 Zero-point vibrational energy      18920.2 (Joules/Mol)
                                    4.52204 (Kcal/Mol)
 Vibrational temperatures:    996.50  1702.92  1851.74
          (Kelvin)

 Zero-point correction=                           0.007206 (Hartree/Particle)
 Thermal correction to Energy=                    0.010184
 Thermal correction to Enthalpy=                  0.011128
 Thermal correction to Gibbs Free Energy=        -0.016820
 Sum of electronic and zero-point Energies=           -237.716060
 Sum of electronic and thermal Energies=              -237.713082
 Sum of electronic and thermal Enthalpies=            -237.712138
 Sum of electronic and thermal Free Energies=         -237.740086

                     E (Thermal)             CV                S
                      KCal/Mol        Cal/Mol-Kelvin    Cal/Mol-Kelvin
 Total                    6.391              7.175             58.822
 Electronic               0.000              0.000              0.000
 Translational            0.889              2.981             37.652
 Rotational               0.889              2.981             20.782
 Vibrational              4.613              1.214              0.388

 Optimization completed.
    -- Stationary point found.
 Normal termination of Gaussian 16 at Sun May 25 04:30:30 2025.
