 Gaussian 16, Revision C.01,
 Gaussian 16:  ES64L-G16RevC.01  3-Jul-2019

 -----------------------------------------------------------------
 #P M062X/Def2TZVPP Symm(None) scf(xqc) pop(None) freq opt(CalcFC)
 -----------------------------------------------------------------

 ------------------------------
 Gaussian input prepared by ASE
 ------------------------------
 Symbolic Z-matrix:
 Charge =  0 Multiplicity = 2

 SCF Done:  E(UM062X) =  -526.156902151     A.U. after   27 cycles
 Optimization completed.
    -- Stationary point found.
 Normal termination of Gaussian 16 at Sun May 25 03:35:07 2025.

 ---------------------------------------------------------------------
 #P Geom=AllCheck Guess=TCheck SCRF=Check GenChk UM062X/def2TZVPP Freq
 ---------------------------------------------------------------------

 Structure from the checkpoint file:  "/tmp/Gau-4749.chk"
 ------------------------------
 Gaussian input prepared by ASE
 ------------------------------
 Charge =  0 Multiplicity = 2

                          Input orientation:
 ---------------------------------------------------------------------
 Center     Atomic      Atomic             Coordinates (Angstroms)
 Number     Number       Type             X           Y           Z
 ---------------------------------------------------------------------
      1          6           0        1.540409    0.005026   -0.006471
      2          8           0        2.205789   -0.927205   -0.323976
      3          6           0       -0.014941    0.003048    0.002291
      4          9           0       -0.486236    0.800489    0.954388
      5          9           0       -0.456315    0.438936   -1.171858
      6          9           0       -0.453227   -1.222178    0.201432
      7          8           0        2.022525    1.179916    0.344705
 ---------------------------------------------------------------------

 SCF Done:  E(UM062X) =  -526.156902151     A.U. after    1 cycles

 Isotropic polarizability for W=    0.000000       30.49 Bohr**3.
 End of Minotr F.D. properties file   721 does not exist.

                      1                      2                      3
                      A                      A                      A
 Frequencies --     21.8803               226.3699               240.9253
 Red. masses --     16.8098                17.1757                17.5687
 Frc consts  --      0.0047                 0.5186                 0.6008
 IR Inten    --      0.9009                 3.5674                 5.4860

                      4                      5                      6
                      A                      A                      A
 Frequencies --    332.6590               420.6879               520.7373
 Red. masses --     16.6608                16.7009                17.4381
 Frc consts  --      1.0863                 1.7415                 2.7860
 IR Inten    --      4.4147                 1.1018                 9.9308

                      7                      8                      9
                      A                      A                      A
 Frequencies --    550.9173               624.0400               768.8652
 Red. masses --     16.1327                16.1262                13.1253
 Frc consts  --      2.8849                 3.7000                 4.5715
 IR Inten    --     26.0772                28.9119                13.9232

                     10                     11                     12
                      A                      A                      A
 Frequencies --    814.2549              1182.4997              1257.0189
 Red. masses --     17.1798                13.6825                13.1956
 Frc consts  --      6.7110                11.2724                12.2846
 IR Inten    --      0.4908               161.4440               293.7922

                     13                     14                     15
                      A                      A                      A
 Frequencies --   1263.5816              1329.4923              1846.6615
 Red. masses --     13.0587                12.8616                13.3457
 Frc consts  --     12.2845                13.3942                26.8142
 IR Inten    --    256.0163               138.1830               189.1512

 - Thermochemistry -
 -------------------
 Temperature   298.150 Kelvin.  Pressure   1.00000 Atm.
 Atom     1 has atomic number  6 and mass  12.00000

 Molecular mass:   112.98504 amu.
 Principal axes and moments of inertia in atomic units:
                           1         2         3
     Eigenvalues --   456.06679 703.64308 844.59213
           X            0.99941  -0.03132   0.01385
           Y            0.03404   0.95249  -0.30267
           Z           -0.00372   0.30296   0.95300
 This molecule is an asymmetric top.
 Rotational symmetry number  1.
 Warning -- assumption of classical behavior for rotation
           may cause significant error
 Rotational temperatures (Kelvin)      0.18991     0.12309     0.10255
 Rotational constants (GHZ):           3.95719     2.56485     2.13682
 Zero-point vibrational energy      68190.7 (Joules/Mol)
                                   16.29796 (Kcal/Mol)
 Warning -- explicit consideration of   7 degrees of freedom as
           vibrations may cause significant error
 Vibrational temperatures:     31.48   325.70   346.64   478.62   605.28
          (Kelvin)            749.22   792.65   897.85  1106.23  1171.53
                             1701.35  1808.57  1818.01  1912.84  2656.93

 Zero-point correction=                           0.025972 (Hartree/Particle)
 Thermal correction to Energy=                    0.032154
 Thermal correction to Enthalpy=                  0.033098
 Thermal correction to Gibbs Free Energy=        -0.006328
 Sum of electronic and zero-point Energies=           -526.130930
 Sum of electronic and thermal Energies=              -526.124748
 Sum of electronic and thermal Enthalpies=            -526.123804
 Sum of electronic and thermal Free Energies=         -526.163230

                     E (Thermal)             CV                S
                      KCal/Mol        Cal/Mol-Kelvin    Cal/Mol-Kelvin
 Total                   20.177             19.924             82.978
 Electronic               0.000              0.000              1.377
 Translational            0.889              2.981             40.082
 Rotational               0.889              2.981             27.096
 Vibrational             18.399             13.963             14.423
 Vibration     1          0.593              1.985              6.456
 Vibration     2          0.650              1.801              1.908
 Vibration     3          0.658              1.778              1.796
 Vibration     4          0.715              1.610              1.247
 Vibration     5          0.783              1.425              0.890
 Vibration     6          0.876              1.204              0.608
 Vibration     7          0.906              1.138              0.542

 Optimization completed.
    -- Stationary point found.
 Normal termination of Gaussian 16 at Sun May 25 03:36:22 2025.
