 Gaussian 16, Revision C.01,
 Gaussian 16:  ES64L-G16RevC.01  3-Jul-2019

 -----------------------------------------------------------------
 #P M062X/Def2TZVPP Symm(None) scf(xqc) pop(None) freq opt(CalcFC)
 -----------------------------------------------------------------

 ------------------------------
 Gaussian input prepared by ASE
 ------------------------------
 Symbolic Z-matrix:
 Charge =  0 Multiplicity = 1

 SCF Done:  E(RM062X) =  -526.736649596     A.U. after   14 cycles
 SCF Done:  E(RM062X) =  -526.764799557     A.U. after   16 cycles
 SCF Done:  E(RM062X) =  -526.775496096     A.U. after   14 cycles
 SCF Done:  E(RM062X) =  -526.777643536     A.U. after   14 cycles
 SCF Done:  E(RM062X) =  -526.777429975     A.U. after   15 cycles
 SCF Done:  E(RM062X) =  -526.778697700     A.U. after   14 cycles
 SCF Done:  E(RM062X) =  -526.779953016     A.U. after   13 cycles
 SCF Done:  E(RM062X) =  -526.780504023     A.U. after   11 cycles
 SCF Done:  E(RM062X) =  -526.781056740     A.U. after   13 cycles
 SCF Done:  E(RM062X) =  -526.781131168     A.U. after   11 cycles
 SCF Done:  E(RM062X) =  -526.781136990     A.U. after   11 cycles
 SCF Done:  E(RM062X) =  -526.781142362     A.U. after    8 cycles
 Optimization completed.
    -- Stationary point found.
 Normal termination of Gaussian 16 at Sun May 25 04:29:40 2025.

 ---------------------------------------------------------------------
 #P Geom=AllCheck Guess=TCheck SCRF=Check GenChk RM062X/def2TZVPP Freq
 ---------------------------------------------------------------------

 Structure from the checkpoint file:  "/tmp/Gau-212166.chk"
 ------------------------------
 Gaussian input prepared by ASE
 ------------------------------
 Charge =  0 Multiplicity = 1

                          Input orientation:
 ---------------------------------------------------------------------
 Center     Atomic      Atomic             Coordinates (Angstroms)
 Number     Number       Type             X           Y           Z
 ---------------------------------------------------------------------
      1          6           0        1.079288    0.244473    0.615168
      2          8           0       -0.140899    0.058259    0.092921
      3          6           0       -0.606091    0.665449   -1.062916
      4          9           0        0.118011    0.335526   -2.119187
      5          9           0       -1.838046    0.233341   -1.244531
      6          9           0       -0.632209    1.982919   -0.951520
      7          8           0        1.740642    1.081739   -0.142133
      8          1           0        2.612246    1.202160    0.248777
 ---------------------------------------------------------------------

 SCF Done:  E(RM062X) =  -526.781142362     A.U. after    1 cycles

 Isotropic polarizability for W=    0.000000       34.07 Bohr**3.
 End of Minotr F.D. properties file   721 does not exist.

                      1                      2                      3
                      A                      A                      A
 Frequencies --    115.3220               217.0125               237.5157
 Red. masses --     10.0931                 9.1997                11.4288
 Frc consts  --      0.0791                 0.2553                 0.3799
 IR Inten    --      3.3588                 2.1108                 0.2255

                      4                      5                      6
                      A                      A                      A
 Frequencies --    384.7537               454.9636               559.1971
 Red. masses --     13.6135                12.1137                13.4092
 Frc consts  --      1.1874                 1.4773                 2.4705
 IR Inten    --      0.6142                 1.4483                 4.8797

                      7                      8                      9
                      A                      A                      A
 Frequencies --    586.8743               631.1161               733.8853
 Red. masses --     12.0918                 8.2974                 1.2478
 Frc consts  --      2.4538                 1.9472                 0.3960
 IR Inten    --     10.4795                21.7123                75.0613

                     10                     11                     12
                      A                      A                      A
 Frequencies --    806.8997               887.3522              1114.8096
 Red. masses --      7.3867                16.9213                 3.6417
 Frc consts  --      2.8336                 7.8501                 2.6666
 IR Inten    --     25.6345                 1.5824               359.0815

                     13                     14                     15
                      A                      A                      A
 Frequencies --   1186.3974              1297.0040              1308.3329
 Red. masses --      4.6835                13.0585                11.8214
 Frc consts  --      3.8840                12.9427                11.9222
 IR Inten    --    294.8812               375.3268               190.2964

                     16                     17                     18
                      A                      A                      A
 Frequencies --   1367.6742              1372.4549              3869.2495
 Red. masses --      6.6795                 2.5008                 1.0667
 Frc consts  --      7.3614                 2.7754                 9.4093
 IR Inten    --    424.0005               195.9157               196.2222

 - Thermochemistry -
 -------------------
 Temperature   298.150 Kelvin.  Pressure   1.00000 Atm.
 Atom     1 has atomic number  6 and mass  12.00000

 Molecular mass:   113.99286 amu.
 Principal axes and moments of inertia in atomic units:
                           1         2         3
     Eigenvalues --   360.60245 787.65092 833.44261
           X            0.86616  -0.35858  -0.34812
           Y            0.04162  -0.64238   0.76525
           Z            0.49803   0.67732   0.54148
 This molecule is an asymmetric top.
 Rotational symmetry number  1.
 Rotational temperatures (Kelvin)      0.24019     0.10996     0.10392
 Rotational constants (GHZ):           5.00479     2.29130     2.16541
 Zero-point vibrational energy     102465.0 (Joules/Mol)
                                   24.48973 (Kcal/Mol)
 Warning -- explicit consideration of   7 degrees of freedom as
           vibrations may cause significant error
 Vibrational temperatures:    165.92   312.23   341.73   553.57   654.59
          (Kelvin)            804.56   844.38   908.04  1055.90  1160.95
                             1276.70  1603.96  1706.96  1866.10  1882.40
                             1967.78  1974.66  5566.99

 Zero-point correction=                           0.039027 (Hartree/Particle)
 Thermal correction to Energy=                    0.044996
 Thermal correction to Enthalpy=                  0.045940
 Thermal correction to Gibbs Free Energy=         0.008848
 Sum of electronic and zero-point Energies=           -526.742115
 Sum of electronic and thermal Energies=              -526.736147
 Sum of electronic and thermal Enthalpies=            -526.735202
 Sum of electronic and thermal Free Energies=         -526.772294

                     E (Thermal)             CV                S
                      KCal/Mol        Cal/Mol-Kelvin    Cal/Mol-Kelvin
 Total                   28.235             20.427             78.066
 Electronic               0.000              0.000              0.000
 Translational            0.889              2.981             40.108
 Rotational               0.889              2.981             26.962
 Vibrational             26.458             14.466             10.995
 Vibration     1          0.608              1.937              3.177
 Vibration     2          0.646              1.815              1.984
 Vibration     3          0.656              1.783              1.821
 Vibration     4          0.754              1.503              1.020
 Vibration     5          0.813              1.350              0.781
 Vibration     6          0.915              1.120              0.525
 Vibration     7          0.944              1.060              0.473

 Optimization completed.
    -- Stationary point found.
 Normal termination of Gaussian 16 at Sun May 25 04:30:42 2025.
