 Gaussian 16, Revision C.01,
 Gaussian 16:  ES64L-G16RevC.01  3-Jul-2019

 -----------------------------------------------------------------
 #P M062X/Def2TZVPP Symm(None) scf(xqc) pop(None) freq opt(CalcFC)
 -----------------------------------------------------------------

 ------------------------------
 Gaussian input prepared by ASE
 ------------------------------
 Symbolic Z-matrix:
 Charge =  0 Multiplicity = 1

 SCF Done:  E(RM062X) =  -526.837395920     A.U. after   13 cycles
 SCF Done:  E(RM062X) =  -526.846367119     A.U. after   14 cycles
 SCF Done:  E(RM062X) =  -526.847321511     A.U. after   12 cycles
 SCF Done:  E(RM062X) =  -526.847531422     A.U. after   12 cycles
 SCF Done:  E(RM062X) =  -526.847656720     A.U. after   13 cycles
 SCF Done:  E(RM062X) =  -526.847802137     A.U. after   13 cycles
 SCF Done:  E(RM062X) =  -526.847837440     A.U. after   12 cycles
 SCF Done:  E(RM062X) =  -526.847857375     A.U. after   10 cycles
 SCF Done:  E(RM062X) =  -526.847872169     A.U. after   13 cycles
 SCF Done:  E(RM062X) =  -526.847878908     A.U. after   11 cycles
 SCF Done:  E(RM062X) =  -526.847882361     A.U. after   12 cycles
 SCF Done:  E(RM062X) =  -526.847885184     A.U. after   12 cycles
 SCF Done:  E(RM062X) =  -526.847888784     A.U. after   12 cycles
 SCF Done:  E(RM062X) =  -526.847889450     A.U. after    8 cycles
 SCF Done:  E(RM062X) =  -526.847889550     A.U. after    9 cycles
 SCF Done:  E(RM062X) =  -526.847889560     A.U. after    8 cycles
 Optimization completed.
    -- Stationary point found.
 Normal termination of Gaussian 16 at Sun May 25 03:23:00 2025.

 ---------------------------------------------------------------------
 #P Geom=AllCheck Guess=TCheck SCRF=Check GenChk RM062X/def2TZVPP Freq
 ---------------------------------------------------------------------

 Structure from the checkpoint file:  "/tmp/Gau-247243.chk"
 ------------------------------
 Gaussian input prepared by ASE
 ------------------------------
 Charge =  0 Multiplicity = 1

                          Input orientation:
 ---------------------------------------------------------------------
 Center     Atomic      Atomic             Coordinates (Angstroms)
 Number     Number       Type             X           Y           Z
 ---------------------------------------------------------------------
      1          6           0        1.567233    0.040760   -0.076370
      2          8           0        2.152658   -0.789178   -0.685054
      3          6           0        0.016571    0.023706   -0.030995
      4          9           0       -0.458946    1.042943    0.705663
      5          9           0       -0.479847    0.135741   -1.251741
      6          9           0       -0.414590   -1.105013    0.506980
      7          8           0        2.147820    1.027075    0.600015
      8          1           0        1.494359    1.595176    1.025355
 ---------------------------------------------------------------------

 SCF Done:  E(RM062X) =  -526.847889560     A.U. after    1 cycles

 Isotropic polarizability for W=    0.000000       31.66 Bohr**3.
 End of Minotr F.D. properties file   721 does not exist.

                      1                      2                      3
                      A                      A                      A
 Frequencies --     15.1047               256.0731               267.3190
 Red. masses --     10.6841                17.3080                12.3284
 Frc consts  --      0.0014                 0.6687                 0.5191
 IR Inten    --      2.0485                10.2368                11.6486

                      4                      5                      6
                      A                      A                      A
 Frequencies --    398.6612               436.0226               517.6375
 Red. masses --      9.3104                13.4222                 8.0341
 Frc consts  --      0.8718                 1.5035                 1.2683
 IR Inten    --      4.8771                 4.1089                36.6257

                      7                      8                      9
                      A                      A                      A
 Frequencies --    538.0025               603.5700               703.9953
 Red. masses --      1.1948                13.2395                10.0514
 Frc consts  --      0.2038                 2.8417                 2.9351
 IR Inten    --     83.7669                 0.2112                30.5876

                     10                     11                     12
                      A                      A                      A
 Frequencies --    792.1116               825.2937              1169.8494
 Red. masses --     10.8306                13.0992                 4.8187
 Frc consts  --      4.0038                 5.2567                 3.8854
 IR Inten    --      7.8454                12.4348                85.3022

                     13                     14                     15
                      A                      A                      A
 Frequencies --   1255.0242              1268.8126              1280.4633
 Red. masses --     13.0098                 1.6199                13.1270
 Frc consts  --     12.0733                 1.5365                12.6809
 IR Inten    --    423.9879               201.2995               293.0347

                     16                     17                     18
                      A                      A                      A
 Frequencies --   1432.5681              1951.6077              3843.9659
 Red. masses --      5.7915                11.4572                 1.0657
 Frc consts  --      7.0028                25.7107                 9.2780
 IR Inten    --    134.3486               292.8934               148.3786

 - Thermochemistry -
 -------------------
 Temperature   298.150 Kelvin.  Pressure   1.00000 Atm.
 Atom     1 has atomic number  6 and mass  12.00000

 Molecular mass:   113.99286 amu.
 Principal axes and moments of inertia in atomic units:
                           1         2         3
     Eigenvalues --   468.65320 715.00073 869.07055
           X            0.99763  -0.06189   0.03016
           Y            0.06794   0.81376  -0.57721
           Z            0.01118   0.57789   0.81604
 This molecule is an asymmetric top.
 Rotational symmetry number  1.
 Warning -- assumption of classical behavior for rotation
           may cause significant error
 Rotational temperatures (Kelvin)      0.18481     0.12114     0.09966
 Rotational constants (GHZ):           3.85091     2.52411     2.07663
 Zero-point vibrational energy     105008.7 (Joules/Mol)
                                   25.09768 (Kcal/Mol)
 Warning -- explicit consideration of   8 degrees of freedom as
           vibrations may cause significant error
 Vibrational temperatures:     21.73   368.43   384.61   573.58   627.34
          (Kelvin)            744.76   774.07   868.40  1012.89  1139.67
                             1187.41  1683.15  1805.70  1825.54  1842.30
                             2061.15  2807.93  5530.61

 Zero-point correction=                           0.039996 (Hartree/Particle)
 Thermal correction to Energy=                    0.046160
 Thermal correction to Enthalpy=                  0.047104
 Thermal correction to Gibbs Free Energy=         0.008112
 Sum of electronic and zero-point Energies=           -526.807894
 Sum of electronic and thermal Energies=              -526.801729
 Sum of electronic and thermal Enthalpies=            -526.800785
 Sum of electronic and thermal Free Energies=         -526.839777

                     E (Thermal)             CV                S
                      KCal/Mol        Cal/Mol-Kelvin    Cal/Mol-Kelvin
 Total                   28.966             20.623             82.066
 Electronic               0.000              0.000              0.000
 Translational            0.889              2.981             40.108
 Rotational               0.889              2.981             27.168
 Vibrational             27.188             14.661             14.790
 Vibration     1          0.593              1.986              7.192
 Vibration     2          0.666              1.753              1.688
 Vibration     3          0.672              1.733              1.613
 Vibration     4          0.765              1.473              0.968
 Vibration     5          0.796              1.392              0.839
 Vibration     6          0.873              1.211              0.615
 Vibration     7          0.893              1.166              0.570
 Vibration     8          0.962              1.024              0.444

 Optimization completed.
    -- Stationary point found.
 Normal termination of Gaussian 16 at Sun May 25 03:24:13 2025.
