 Gaussian 16, Revision C.01,
 Gaussian 16:  ES64L-G16RevC.01  3-Jul-2019

 -----------------------------------------------------------------
 #P M062X/Def2TZVPP Symm(None) scf(xqc) pop(None) freq opt(CalcFC)
 -----------------------------------------------------------------

 ------------------------------
 Gaussian input prepared by ASE
 ------------------------------
 Symbolic Z-matrix:
 Charge =  0 Multiplicity = 1

 SCF Done:  E(RM062X) =  -526.645331293     A.U. after   15 cycles
 SCF Done:  E(RM062X) =  -526.649903729     A.U. after   15 cycles
 SCF Done:  E(RM062X) =  -526.649872482     A.U. after   16 cycles
 SCF Done:  E(RM062X) =  -526.650559957     A.U. after   13 cycles
 SCF Done:  E(RM062X) =  -526.650613880     A.U. after   15 cycles
 SCF Done:  E(RM062X) =  -526.650643937     A.U. after   13 cycles
 SCF Done:  E(RM062X) =  -526.650646209     A.U. after   12 cycles
 SCF Done:  E(RM062X) =  -526.650646285     A.U. after    8 cycles
 Optimization completed.
    -- Stationary point found.
 Normal termination of Gaussian 16 at Sun May 25 05:07:09 2025.

 ---------------------------------------------------------------------
 #P Geom=AllCheck Guess=TCheck SCRF=Check GenChk RM062X/def2TZVPP Freq
 ---------------------------------------------------------------------

 Structure from the checkpoint file:  "/tmp/Gau-28116.chk"
 ------------------------------
 Gaussian input prepared by ASE
 ------------------------------
 Charge =  0 Multiplicity = 1

                          Input orientation:
 ---------------------------------------------------------------------
 Center     Atomic      Atomic             Coordinates (Angstroms)
 Number     Number       Type             X           Y           Z
 ---------------------------------------------------------------------
      1          6           0        0.590693    1.993348   -0.840792
      2          8           0        0.845750    0.064641    0.275113
      3          6           0        1.036361    3.467088   -0.845166
      4          9           0       -0.052326    4.223631   -0.745617
      5          9           0        1.875134    3.826556    0.124161
      6          9           0        1.628723    3.711181   -2.010141
      7          8           0        1.158813    1.448795    0.131752
      8          1           0        0.239543   -0.065814   -0.477993
 ---------------------------------------------------------------------

 SCF Done:  E(RM062X) =  -526.650646285     A.U. after    1 cycles

 Isotropic polarizability for W=    0.000000       37.45 Bohr**3.
 End of Minotr F.D. properties file   721 does not exist.

                      1                      2                      3
                      A                      A                      A
 Frequencies --     33.1179               205.2543               219.4259
 Red. masses --     12.9329                12.5467                 3.8919
 Frc consts  --      0.0084                 0.3114                 0.1104
 IR Inten    --      1.2637                 2.1925                 2.1566

                      4                      5                      6
                      A                      A                      A
 Frequencies --    383.6907               410.8979               422.9129
 Red. masses --     13.1089                 1.6876                 7.9562
 Frc consts  --      1.1371                 0.1679                 0.8384
 IR Inten    --      2.4737                75.9769                19.6402

                      7                      8                      9
                      A                      A                      A
 Frequencies --    452.5843               580.3013               585.5160
 Red. masses --      4.8277                15.4961                15.2735
 Frc consts  --      0.5826                 3.0745                 3.0851
 IR Inten    --     18.9041                 7.2204                 7.4939

                     10                     11                     12
                      A                      A                      A
 Frequencies --    724.5767               886.1894               970.1357
 Red. masses --     12.7437                14.6355                10.6031
 Frc consts  --      3.9420                 6.7719                 5.8796
 IR Inten    --     19.7203                33.7737                49.3507

                     13                     14                     15
                      A                      A                      A
 Frequencies --   1252.2961              1266.7003              1284.9723
 Red. masses --     13.2247                12.3296                10.7615
 Frc consts  --     12.2194                11.6559                10.4691
 IR Inten    --    306.8514               265.1765               270.3705

                     16                     17                     18
                      A                      A                      A
 Frequencies --   1468.4585              1517.3238              3674.4234
 Red. masses --      1.8109                 2.8088                 1.0662
 Frc consts  --      2.3008                 3.8101                 8.4816
 IR Inten    --     15.7788                49.4065                64.1282

 - Thermochemistry -
 -------------------
 Temperature   298.150 Kelvin.  Pressure   1.00000 Atm.
 Atom     1 has atomic number  6 and mass  12.00000

 Molecular mass:   113.99286 amu.
 Principal axes and moments of inertia in atomic units:
                           1         2         3
     Eigenvalues --   331.245701116.587801129.80876
           X            0.04216   0.62890   0.77635
           Y            0.94467   0.22789  -0.23591
           Z           -0.32529   0.74334  -0.58449
 This molecule is an asymmetric top.
 Rotational symmetry number  1.
 Rotational temperatures (Kelvin)      0.26148     0.07757     0.07666
 Rotational constants (GHZ):           5.44835     1.61630     1.59739
 Zero-point vibrational energy      97727.6 (Joules/Mol)
                                   23.35746 (Kcal/Mol)
 Warning -- explicit consideration of   9 degrees of freedom as
           vibrations may cause significant error
 Vibrational temperatures:     47.65   295.32   315.70   552.05   591.19
          (Kelvin)            608.48   651.17   834.92   842.43  1042.50
                             1275.03  1395.81  1801.77  1822.50  1848.79
                             2112.78  2183.09  5286.68

 Zero-point correction=                           0.037222 (Hartree/Particle)
 Thermal correction to Energy=                    0.043772
 Thermal correction to Enthalpy=                  0.044716
 Thermal correction to Gibbs Free Energy=         0.005496
 Sum of electronic and zero-point Energies=           -526.613424
 Sum of electronic and thermal Energies=              -526.606874
 Sum of electronic and thermal Enthalpies=            -526.605930
 Sum of electronic and thermal Free Energies=         -526.645150

                     E (Thermal)             CV                S
                      KCal/Mol        Cal/Mol-Kelvin    Cal/Mol-Kelvin
 Total                   27.467             21.813             82.545
 Electronic               0.000              0.000              0.000
 Translational            0.889              2.981             40.108
 Rotational               0.889              2.981             27.527
 Vibrational             25.690             15.852             14.910
 Vibration     1          0.594              1.983              5.633
 Vibration     2          0.640              1.832              2.085
 Vibration     3          0.647              1.811              1.964
 Vibration     4          0.753              1.505              1.025
 Vibration     5          0.775              1.447              0.923
 Vibration     6          0.785              1.420              0.882
 Vibration     7          0.811              1.355              0.788
 Vibration     8          0.937              1.074              0.485
 Vibration     9          0.943              1.063              0.475

 Optimization completed.
    -- Stationary point found.
 Normal termination of Gaussian 16 at Sun May 25 05:08:12 2025.
