 Gaussian 16, Revision C.01,
 Gaussian 16:  ES64L-G16RevC.01  3-Jul-2019

 ----------------------------------------------------------------------
 #P M062X/Def2TZVPP Symm(None) scf(xqc) pop(None) opt(NoFreeze,TS,CalcA
 ll,NoEigentest,MaxCycle=999)
 ----------------------------------------------------------------------

 ------------------------------
 Gaussian input prepared by ASE
 ------------------------------
 Symbolic Z-matrix:
 Charge =  0 Multiplicity = 1

 SCF Done:  E(RM062X) =  -526.674588008     A.U. after   15 cycles
 SCF Done:  E(RM062X) =  -526.691156674     A.U. after   16 cycles
 SCF Done:  E(RM062X) =  -526.691266561     A.U. after   13 cycles

 Isotropic polarizability for W=    0.000000       36.20 Bohr**3.
 End of Minotr F.D. properties file   721 does not exist.

 Optimization completed.
    -- Stationary point found.

                          Input orientation:
 ---------------------------------------------------------------------
 Center     Atomic      Atomic             Coordinates (Angstroms)
 Number     Number       Type             X           Y           Z
 ---------------------------------------------------------------------
      1          6           0        1.802879   -0.172947   -0.060116
      2          8           0        1.220675   -0.330158   -1.169907
      3          6           0        0.027689   -0.017014   -0.002149
      4          9           0       -0.091661    0.857717    1.014266
      5          9           0       -0.838187    0.473331   -0.895952
      6          9           0       -0.378127   -1.203090    0.374031
      7          8           0        3.098529    0.023989   -0.133464
      8          1           0        3.458113    0.119757    0.755415
 ---------------------------------------------------------------------

 ******    1 imaginary frequencies (negative Signs) ******

                      1                      2                      3
                      A                      A                      A
 Frequencies --   -772.8993                86.4080               144.2964
 Red. masses --     12.6504                 9.3641                12.5377
 Frc consts  --      4.4524                 0.0412                 0.1538
 IR Inten    --     74.9495                 5.1769                 5.1823

                      4                      5                      6
                      A                      A                      A
 Frequencies --    353.7507               420.2700               464.5074
 Red. masses --      9.5948                10.8300                 8.8499
 Frc consts  --      0.7074                 1.1270                 1.1250
 IR Inten    --     32.8696                33.2448                33.7292

                      7                      8                      9
                      A                      A                      A
 Frequencies --    526.6582               592.2672               629.2588
 Red. masses --     13.0005                12.8671                 1.2791
 Frc consts  --      2.1246                 2.6593                 0.2984
 IR Inten    --     15.5182                 1.2969                90.5003

                     10                     11                     12
                      A                      A                      A
 Frequencies --    706.1678               748.8128               943.5192
 Red. masses --      8.4564                13.0063                12.8420
 Frc consts  --      2.4846                 4.2969                 6.7357
 IR Inten    --     66.5030               245.7242               679.3930

                     13                     14                     15
                      A                      A                      A
 Frequencies --   1053.4541              1186.4216              1297.5921
 Red. masses --     10.4553                 1.3787                13.1768
 Frc consts  --      6.8362                 1.1434                13.0718
 IR Inten    --    281.5931                54.4983               332.2092

                     16                     17                     18
                      A                      A                      A
 Frequencies --   1351.2949              1613.3598              3863.7317
 Red. masses --      7.6997                 8.3310                 1.0663
 Frc consts  --      8.2837                12.7764                 9.3785
 IR Inten    --    277.9102               171.1414               190.5538

 - Thermochemistry -
 -------------------
 Temperature   298.150 Kelvin.  Pressure   1.00000 Atm.
 Atom     1 has atomic number  6 and mass  12.00000

 Molecular mass:   113.99286 amu.
 Principal axes and moments of inertia in atomic units:
                           1         2         3
     Eigenvalues --   377.10716 887.35212 941.39597
           X            0.99592   0.08982   0.00891
           Y           -0.04233   0.37756   0.92502
           Z           -0.07972   0.92162  -0.37982
 This molecule is an asymmetric top.
 Rotational symmetry number  1.
 Rotational temperatures (Kelvin)      0.22968     0.09761     0.09201
 Rotational constants (GHZ):           4.78575     2.03385     1.91709
    1 imaginary frequencies ignored.
 Zero-point vibrational energy      95592.2 (Joules/Mol)
                                   22.84709 (Kcal/Mol)
 Warning -- explicit consideration of   7 degrees of freedom as
           vibrations may cause significant error
 Vibrational temperatures:    124.32   207.61   508.97   604.67   668.32
          (Kelvin)            757.74   852.14   905.36  1016.02  1077.37
                             1357.51  1515.69  1707.00  1866.95  1944.21
                             2321.26  5559.05

 Zero-point correction=                           0.036409 (Hartree/Particle)
 Thermal correction to Energy=                    0.042391
 Thermal correction to Enthalpy=                  0.043335
 Thermal correction to Gibbs Free Energy=         0.005828
 Sum of electronic and zero-point Energies=           -526.654857
 Sum of electronic and thermal Energies=              -526.648876
 Sum of electronic and thermal Enthalpies=            -526.647932
 Sum of electronic and thermal Free Energies=         -526.685438

                     E (Thermal)             CV                S
                      KCal/Mol        Cal/Mol-Kelvin    Cal/Mol-Kelvin
 Total                   26.600             20.221             78.939
 Electronic               0.000              0.000              0.000
 Translational            0.889              2.981             40.108
 Rotational               0.889              2.981             27.246
 Vibrational             24.823             14.259             11.585
 Vibration     1          0.601              1.959              3.740
 Vibration     2          0.616              1.909              2.746
 Vibration     3          0.730              1.568              1.149
 Vibration     4          0.783              1.426              0.891
 Vibration     5          0.822              1.329              0.753
 Vibration     6          0.882              1.191              0.595
 Vibration     7          0.950              1.048              0.463

 Normal termination of Gaussian 16 at Sun May 25 04:30:35 2025.
