 Gaussian 16, Revision C.01,
 Gaussian 16:  ES64L-G16RevC.01  3-Jul-2019

 ----------------------------------------------------------------------
 #P M062X/Def2TZVPP Symm(None) scf(xqc) pop(None) opt(NoFreeze,TS,CalcA
 ll,NoEigentest,MaxCycle=999)
 ----------------------------------------------------------------------

 ------------------------------
 Gaussian input prepared by ASE
 ------------------------------
 Symbolic Z-matrix:
 Charge =  0 Multiplicity = 1

 SCF Done:  E(RM062X) =  -526.724210094     A.U. after   15 cycles
 SCF Done:  E(RM062X) =  -526.727661730     A.U. after   14 cycles
 SCF Done:  E(RM062X) =  -526.728354106     A.U. after   13 cycles
 SCF Done:  E(RM062X) =  -526.728361730     A.U. after   10 cycles

 Isotropic polarizability for W=    0.000000       35.71 Bohr**3.
 End of Minotr F.D. properties file   721 does not exist.

 Optimization completed.
    -- Stationary point found.

                          Input orientation:
 ---------------------------------------------------------------------
 Center     Atomic      Atomic             Coordinates (Angstroms)
 Number     Number       Type             X           Y           Z
 ---------------------------------------------------------------------
      1          6           0        1.770113   -0.035218    0.112616
      2          8           0        2.305096   -0.894343   -0.526380
      3          6           0        0.051288    0.029902    0.006281
      4          9           0        1.366162   -0.363864    1.509338
      5          9           0       -0.697005    0.946030    0.454737
      6          9           0       -0.608064   -1.026097   -0.198356
      7          8           0        2.154971    1.266816    0.167645
      8          1           0        2.943847    1.328489   -0.382484
 ---------------------------------------------------------------------

 ******    1 imaginary frequencies (negative Signs) ******

                      1                      2                      3
                      A                      A                      A
 Frequencies --   -363.4329               101.7705               143.7229
 Red. masses --      9.8703                15.3080                15.9098
 Frc consts  --      0.7681                 0.0934                 0.1936
 IR Inten    --      7.2629                 0.6463                48.8884

                      4                      5                      6
                      A                      A                      A
 Frequencies --    162.2607               299.9857               403.4653
 Red. masses --     15.5246                 2.6084                 2.1483
 Frc consts  --      0.2408                 0.1383                 0.2060
 IR Inten    --      0.4212                46.9203                27.7896

                      7                      8                      9
                      A                      A                      A
 Frequencies --    450.7255               540.3641               605.5995
 Red. masses --      4.6389                11.1789                11.0354
 Frc consts  --      0.5553                 1.9232                 2.3846
 IR Inten    --     22.2346                 8.7095                 6.3894

                     10                     11                     12
                      A                      A                      A
 Frequencies --    675.3356               730.3730               787.1718
 Red. masses --      6.6928                 9.4485                12.3557
 Frc consts  --      1.7984                 2.9696                 4.5108
 IR Inten    --    204.3572                53.5532               252.0202

                     13                     14                     15
                      A                      A                      A
 Frequencies --   1083.5529              1309.3949              1412.3054
 Red. masses --      8.1901                 1.4576                10.2662
 Frc consts  --      5.6656                 1.4724                12.0647
 IR Inten    --    392.9767                94.9989               110.4963

                     16                     17                     18
                      A                      A                      A
 Frequencies --   1431.6084              1790.6396              3861.7579
 Red. masses --     13.1532                11.5151                 1.0653
 Frc consts  --     15.8829                21.7538                 9.3606
 IR Inten    --    278.0926               636.4110               123.5786

 - Thermochemistry -
 -------------------
 Temperature   298.150 Kelvin.  Pressure   1.00000 Atm.
 Atom     1 has atomic number  6 and mass  12.00000

 Molecular mass:   113.99286 amu.
 Principal axes and moments of inertia in atomic units:
                           1         2         3
     Eigenvalues --   447.67244 772.41952 921.59699
           X            0.99873  -0.04504   0.02241
           Y            0.04977   0.94940  -0.31011
           Z           -0.00731   0.31083   0.95044
 This molecule is an asymmetric top.
 Rotational symmetry number  1.
 Warning -- assumption of classical behavior for rotation
           may cause significant error
 Rotational temperatures (Kelvin)      0.19348     0.11213     0.09398
 Rotational constants (GHZ):           4.03139     2.33648     1.95828
    1 imaginary frequencies ignored.
 Zero-point vibrational energy      94445.4 (Joules/Mol)
                                   22.57299 (Kcal/Mol)
 Warning -- explicit consideration of   8 degrees of freedom as
           vibrations may cause significant error
 Vibrational temperatures:    146.43   206.79   233.46   431.61   580.50
          (Kelvin)            648.49   777.46   871.32   971.66  1050.84
                             1132.56  1558.99  1883.93  2031.99  2059.77
                             2576.33  5556.21

 Zero-point correction=                           0.035972 (Hartree/Particle)
 Thermal correction to Energy=                    0.042514
 Thermal correction to Enthalpy=                  0.043458
 Thermal correction to Gibbs Free Energy=         0.004885
 Sum of electronic and zero-point Energies=           -526.692389
 Sum of electronic and thermal Energies=              -526.685848
 Sum of electronic and thermal Enthalpies=            -526.684904
 Sum of electronic and thermal Free Energies=         -526.723477

                     E (Thermal)             CV                S
                      KCal/Mol        Cal/Mol-Kelvin    Cal/Mol-Kelvin
 Total                   26.678             21.366             81.184
 Electronic               0.000              0.000              0.000
 Translational            0.889              2.981             40.108
 Rotational               0.889              2.981             27.257
 Vibrational             24.900             15.404             13.818
 Vibration     1          0.604              1.948              3.420
 Vibration     2          0.616              1.909              2.754
 Vibration     3          0.622              1.889              2.523
 Vibration     4          0.693              1.674              1.417
 Vibration     5          0.769              1.463              0.950
 Vibration     6          0.810              1.359              0.794
 Vibration     7          0.895              1.161              0.565
 Vibration     8          0.964              1.020              0.440

 Normal termination of Gaussian 16 at Sun May 25 04:27:37 2025.
