 Gaussian 16, Revision C.01,
 Gaussian 16:  ES64L-G16RevC.01  3-Jul-2019

 -----------------------------------------------------------------
 #P M062X/Def2TZVPP Symm(None) scf(xqc) pop(None) freq opt(CalcFC)
 -----------------------------------------------------------------

 ------------------------------
 Gaussian input prepared by ASE
 ------------------------------
 Symbolic Z-matrix:
 Charge =  0 Multiplicity = 1

 SCF Done:  E(RM062X) =  -526.764251663     A.U. after   13 cycles
 SCF Done:  E(RM062X) =  -526.787394623     A.U. after   14 cycles
 SCF Done:  E(RM062X) =  -526.788056033     A.U. after   12 cycles
 SCF Done:  E(RM062X) =  -526.788083470     A.U. after   11 cycles
 SCF Done:  E(RM062X) =  -526.788151440     A.U. after   11 cycles
 SCF Done:  E(RM062X) =  -526.788151845     A.U. after    8 cycles
 Optimization completed.
    -- Stationary point found.
 Normal termination of Gaussian 16 at Sun May 25 04:28:11 2025.

 ---------------------------------------------------------------------
 #P Geom=AllCheck Guess=TCheck SCRF=Check GenChk RM062X/def2TZVPP Freq
 ---------------------------------------------------------------------

 Structure from the checkpoint file:  "/tmp/Gau-126371.chk"
 ------------------------------
 Gaussian input prepared by ASE
 ------------------------------
 Charge =  0 Multiplicity = 1

                          Input orientation:
 ---------------------------------------------------------------------
 Center     Atomic      Atomic             Coordinates (Angstroms)
 Number     Number       Type             X           Y           Z
 ---------------------------------------------------------------------
      1          6           0        1.280965    0.044549    0.206309
      2          8           0       -0.053164    0.013126    0.073187
      3          6           0       -0.593845   -1.249781   -0.008664
      4          9           0       -0.345132   -1.956447    1.079313
      5          9           0       -1.897792   -1.100093   -0.134149
      6          9           0       -0.134061   -1.908482   -1.057311
      7          8           0        1.560764    1.314586    0.262463
      8          1           0        2.515207    1.396083    0.359039
 ---------------------------------------------------------------------

 SCF Done:  E(RM062X) =  -526.788151845     A.U. after    1 cycles

 Isotropic polarizability for W=    0.000000       34.28 Bohr**3.
 End of Minotr F.D. properties file   721 does not exist.

                      1                      2                      3
                      A                      A                      A
 Frequencies --    117.9413               160.4856               214.9326
 Red. masses --      8.5364                13.8451                 9.5424
 Frc consts  --      0.0700                 0.2101                 0.2597
 IR Inten    --      1.6785                 0.1169                 0.9164

                      4                      5                      6
                      A                      A                      A
 Frequencies --    440.7841               443.3067               470.7494
 Red. masses --     14.3252                15.1074                11.1433
 Frc consts  --      1.6398                 1.7492                 1.4549
 IR Inten    --      1.1421                 0.2272                 0.7599

                      7                      8                      9
                      A                      A                      A
 Frequencies --    627.5165               635.4083               740.2929
 Red. masses --     12.4868                13.4203                 1.1589
 Frc consts  --      2.8970                 3.1924                 0.3742
 IR Inten    --     10.1675                 9.1063                82.6819

                     10                     11                     12
                      A                      A                      A
 Frequencies --    749.6099               947.6562              1148.9825
 Red. masses --     12.9588                 7.9044                 4.0135
 Frc consts  --      4.2903                 4.1824                 3.1218
 IR Inten    --     48.7715               112.1608               354.1726

                     13                     14                     15
                      A                      A                      A
 Frequencies --   1238.3559              1303.1632              1314.4275
 Red. masses --      4.1272                13.0324                 7.3315
 Frc consts  --      3.7291                13.0398                 7.4630
 IR Inten    --    535.3199               347.1670               342.7033

                     16                     17                     18
                      A                      A                      A
 Frequencies --   1385.2250              1419.4808              3871.0240
 Red. masses --      2.9348                 7.2016                 1.0665
 Frc consts  --      3.3180                 8.5495                 9.4162
 IR Inten    --     91.1156               216.2220               196.8359

 - Thermochemistry -
 -------------------
 Temperature   298.150 Kelvin.  Pressure   1.00000 Atm.
 Atom     1 has atomic number  6 and mass  12.00000

 Molecular mass:   113.99286 amu.
 Principal axes and moments of inertia in atomic units:
                           1         2         3
     Eigenvalues --   328.497201016.484061032.08155
           X            0.68832   0.71867  -0.09868
           Y            0.72048  -0.69311  -0.02230
           Z            0.08442   0.05574   0.99487
 This molecule is an asymmetric top.
 Rotational symmetry number  1.
 Rotational temperatures (Kelvin)      0.26367     0.08521     0.08392
 Rotational constants (GHZ):           5.49393     1.77547     1.74864
 Zero-point vibrational energy     103054.4 (Joules/Mol)
                                   24.63058 (Kcal/Mol)
 Warning -- explicit consideration of   6 degrees of freedom as
           vibrations may cause significant error
 Vibrational temperatures:    169.69   230.90   309.24   634.19   637.82
          (Kelvin)            677.30   902.86   914.21  1065.12  1078.52
                             1363.47  1653.13  1781.72  1874.96  1891.17
                             1993.03  2042.32  5569.54

 Zero-point correction=                           0.039251 (Hartree/Particle)
 Thermal correction to Energy=                    0.045331
 Thermal correction to Enthalpy=                  0.046275
 Thermal correction to Gibbs Free Energy=         0.008692
 Sum of electronic and zero-point Energies=           -526.748901
 Sum of electronic and thermal Energies=              -526.742821
 Sum of electronic and thermal Enthalpies=            -526.741877
 Sum of electronic and thermal Free Energies=         -526.779460

                     E (Thermal)             CV                S
                      KCal/Mol        Cal/Mol-Kelvin    Cal/Mol-Kelvin
 Total                   28.445             20.458             79.100
 Electronic               0.000              0.000              0.000
 Translational            0.889              2.981             40.108
 Rotational               0.889              2.981             27.335
 Vibrational             26.668             14.496             11.657
 Vibration     1          0.608              1.934              3.134
 Vibration     2          0.622              1.891              2.544
 Vibration     3          0.645              1.818              2.001
 Vibration     4          0.801              1.381              0.824
 Vibration     5          0.803              1.376              0.816
 Vibration     6          0.828              1.315              0.735

 Optimization completed.
    -- Stationary point found.
 Normal termination of Gaussian 16 at Sun May 25 04:29:22 2025.
