 Gaussian 16, Revision C.01,
 Gaussian 16:  ES64L-G16RevC.01  3-Jul-2019

 ----------------------------------------------------------------------
 #P M062X/Def2TZVPP Symm(None) scf(xqc) pop(None) opt(CalcAll,Cartesian
 )
 ----------------------------------------------------------------------

 ------------------------------
 Gaussian input prepared by ASE
 ------------------------------
 Symbolic Z-matrix:
 Charge =  0 Multiplicity = 1

 SCF Done:  E(RM062X) =  -526.648808347     A.U. after   16 cycles
 SCF Done:  E(RM062X) =  -526.649592848     A.U. after   14 cycles
 SCF Done:  E(RM062X) =  -526.649720684     A.U. after   13 cycles
 SCF Done:  E(RM062X) =  -526.646564142     A.U. after   14 cycles
 SCF Done:  E(RM062X) =  -526.649360402     A.U. after   14 cycles
 SCF Done:  E(RM062X) =  -526.648562854     A.U. after   14 cycles
 SCF Done:  E(RM062X) =  -526.649724352     A.U. after    9 cycles
 SCF Done:  E(RM062X) =  -526.649731769     A.U. after   13 cycles
 SCF Done:  E(RM062X) =  -526.649748683     A.U. after   10 cycles
 SCF Done:  E(RM062X) =  -526.649735079     A.U. after   13 cycles
 SCF Done:  E(RM062X) =  -526.649749275     A.U. after   10 cycles
 SCF Done:  E(RM062X) =  -526.649750647     A.U. after   12 cycles
 SCF Done:  E(RM062X) =  -526.649751557     A.U. after   10 cycles
 SCF Done:  E(RM062X) =  -526.649751702     A.U. after    8 cycles

 Isotropic polarizability for W=    0.000000       41.24 Bohr**3.
 End of Minotr F.D. properties file   721 does not exist.

 Optimization completed.
    -- Stationary point found.

                          Input orientation:
 ---------------------------------------------------------------------
 Center     Atomic      Atomic             Coordinates (Angstroms)
 Number     Number       Type             X           Y           Z
 ---------------------------------------------------------------------
      1          6           0        0.249302    1.763367   -1.291084
      2          8           0        1.492628    0.205268    0.055296
      3          6           0        1.209854    1.292429   -2.398420
      4          9           0        2.466027    1.567225   -2.075189
      5          9           0        1.069634   -0.008102   -2.615252
      6          9           0        0.925074    1.931116   -3.524854
      7          8           0        0.352132    1.293756   -0.183017
      8          1           0        1.310262    0.037716    0.988624
 ---------------------------------------------------------------------

                      1                      2                      3
                      A                      A                      A
 Frequencies --     77.2638               154.7272               198.9897
 Red. masses --     11.0809                 1.1150                10.2758
 Frc consts  --      0.0390                 0.0157                 0.2397
 IR Inten    --     10.5937               109.7644                 4.9910

                      4                      5                      6
                      A                      A                      A
 Frequencies --    245.0247               298.9031               426.7760
 Red. masses --     13.9657                13.8102                14.3958
 Frc consts  --      0.4940                 0.7270                 1.5448
 IR Inten    --      7.6549               108.6363               252.2053

                      7                      8                      9
                      A                      A                      A
 Frequencies --    496.2764               497.3511               549.2046
 Red. masses --      9.2931                14.5177                16.3886
 Frc consts  --      1.3485                 2.1158                 2.9125
 IR Inten    --     16.8681                 3.7951                 2.2517

                     10                     11                     12
                      A                      A                      A
 Frequencies --    623.5729               742.7923               854.6785
 Red. masses --     14.6357                10.3046                13.8758
 Frc consts  --      3.3530                 3.3498                 5.9719
 IR Inten    --      1.8170                19.9682                 2.1081

                     13                     14                     15
                      A                      A                      A
 Frequencies --   1212.4981              1253.3651              1262.1285
 Red. masses --      1.1832                12.6009                13.2407
 Frc consts  --      1.0248                11.6629                12.4271
 IR Inten    --     79.9161               195.8144               311.8471

                     16                     17                     18
                      A                      A                      A
 Frequencies --   1277.1954              1665.4303              3848.2643
 Red. masses --     13.0410                11.9637                 1.0684
 Frc consts  --     12.5336                19.5509                 9.3223
 IR Inten    --    362.1323               119.7841               138.3777

 - Thermochemistry -
 -------------------
 Temperature   298.150 Kelvin.  Pressure   1.00000 Atm.
 Atom     1 has atomic number  6 and mass  12.00000

 Molecular mass:   113.99286 amu.
 Principal axes and moments of inertia in atomic units:
                           1         2         3
     Eigenvalues --   380.09945 848.73762 908.39111
           X           -0.09185   0.76209   0.64092
           Y           -0.24824  -0.64085   0.72643
           Z            0.96434  -0.09238   0.24804
 This molecule is an asymmetric top.
 Rotational symmetry number  1.
 Rotational temperatures (Kelvin)      0.22787     0.10205     0.09535
 Rotational constants (GHZ):           4.74808     2.12638     1.98674
 Zero-point vibrational energy      93813.8 (Joules/Mol)
                                   22.42204 (Kcal/Mol)
 Warning -- explicit consideration of   9 degrees of freedom as
           vibrations may cause significant error
 Vibrational temperatures:    111.17   222.62   286.30   352.54   430.05
          (Kelvin)            614.04   714.03   715.58   790.18   897.18
                             1068.71  1229.69  1744.51  1803.31  1815.92
                             1837.60  2396.18  5536.79

 Zero-point correction=                           0.035732 (Hartree/Particle)
 Thermal correction to Energy=                    0.042749
 Thermal correction to Enthalpy=                  0.043693
 Thermal correction to Gibbs Free Energy=         0.004299
 Sum of electronic and zero-point Energies=           -526.614020
 Sum of electronic and thermal Energies=              -526.607003
 Sum of electronic and thermal Enthalpies=            -526.606059
 Sum of electronic and thermal Free Energies=         -526.645453

                     E (Thermal)             CV                S
                      KCal/Mol        Cal/Mol-Kelvin    Cal/Mol-Kelvin
 Total                   26.825             23.214             82.911
 Electronic               0.000              0.000              0.000
 Translational            0.889              2.981             40.108
 Rotational               0.889              2.981             27.174
 Vibrational             25.048             17.252             15.629
 Vibration     1          0.599              1.964              3.959
 Vibration     2          0.620              1.897              2.613
 Vibration     3          0.637              1.841              2.142
 Vibration     4          0.660              1.771              1.766
 Vibration     5          0.692              1.676              1.423
 Vibration     6          0.788              1.412              0.869
 Vibration     7          0.852              1.258              0.667
 Vibration     8          0.853              1.256              0.665
 Vibration     9          0.904              1.141              0.546

 Normal termination of Gaussian 16 at Sun May 25 05:33:42 2025.
