 Gaussian 16, Revision C.01,
 Gaussian 16:  ES64L-G16RevC.01  3-Jul-2019

 -----------------------------------------------------------------
 #P M062X/Def2TZVPP Symm(None) scf(xqc) pop(None) freq opt(CalcFC)
 -----------------------------------------------------------------

 ------------------------------
 Gaussian input prepared by ASE
 ------------------------------
 Symbolic Z-matrix:
 Charge =  0 Multiplicity = 1

 SCF Done:  E(RM062X) =  -526.751986447     A.U. after   13 cycles
 SCF Done:  E(RM062X) =  -526.766401826     A.U. after   14 cycles
 SCF Done:  E(RM062X) =  -526.724406799     A.U. after   14 cycles
 SCF Done:  E(RM062X) =  -526.762296583     A.U. after   14 cycles
 SCF Done:  E(RM062X) =  -526.768780083     A.U. after   12 cycles
 SCF Done:  E(RM062X) =  -526.745449214     A.U. after   14 cycles
 SCF Done:  E(RM062X) =  -526.768217030     A.U. after   14 cycles
 SCF Done:  E(RM062X) =  -526.769990220     A.U. after   12 cycles
 SCF Done:  E(RM062X) =  -526.770475578     A.U. after   12 cycles
 SCF Done:  E(RM062X) =  -526.770799996     A.U. after   11 cycles
 SCF Done:  E(RM062X) =  -526.771061901     A.U. after   11 cycles
 SCF Done:  E(RM062X) =  -526.771161350     A.U. after   10 cycles
 SCF Done:  E(RM062X) =  -526.771176519     A.U. after   10 cycles
 SCF Done:  E(RM062X) =  -526.771177692     A.U. after    8 cycles
 SCF Done:  E(RM062X) =  -526.771177946     A.U. after    8 cycles
 Optimization completed.
    -- Stationary point found.
 Normal termination of Gaussian 16 at Sun May 25 04:30:31 2025.

 ---------------------------------------------------------------------
 #P Geom=AllCheck Guess=TCheck SCRF=Check GenChk RM062X/def2TZVPP Freq
 ---------------------------------------------------------------------

 Structure from the checkpoint file:  "/tmp/Gau-33998.chk"
 ------------------------------
 Gaussian input prepared by ASE
 ------------------------------
 Charge =  0 Multiplicity = 1

                          Input orientation:
 ---------------------------------------------------------------------
 Center     Atomic      Atomic             Coordinates (Angstroms)
 Number     Number       Type             X           Y           Z
 ---------------------------------------------------------------------
      1          6           0        1.140517    0.180652   -0.558779
      2          8           0       -0.103302   -0.028667   -0.030506
      3          6           0       -0.662997    0.651807    1.015562
      4          9           0       -0.760680    1.957784    0.756658
      5          9           0       -1.861526    0.170449    1.233205
      6          9           0        0.063263    0.525934    2.128866
      7          8           0        1.811825    1.123260    0.025154
      8          1           0        1.411098    1.603157    0.770519
 ---------------------------------------------------------------------

 SCF Done:  E(RM062X) =  -526.771177946     A.U. after    1 cycles

 Isotropic polarizability for W=    0.000000       34.24 Bohr**3.
 End of Minotr F.D. properties file   721 does not exist.

                      1                      2                      3
                      A                      A                      A
 Frequencies --     81.9706               182.7465               214.6395
 Red. masses --      6.3362                 4.2665                11.2926
 Frc consts  --      0.0251                 0.0839                 0.3065
 IR Inten    --      8.4012                34.4088                 4.5603

                      4                      5                      6
                      A                      A                      A
 Frequencies --    395.2989               439.6862               567.7787
 Red. masses --     12.9570                 9.2038                15.8072
 Frc consts  --      1.1929                 1.0483                 3.0024
 IR Inten    --      5.4079                 6.8845                 2.3207

                      7                      8                      9
                      A                      A                      A
 Frequencies --    592.6457               613.0907               685.2831
 Red. masses --      9.7058                 4.2385                 2.1566
 Frc consts  --      2.0085                 0.9387                 0.5967
 IR Inten    --     18.3612                 7.9149                52.3808

                     10                     11                     12
                      A                      A                      A
 Frequencies --    794.1593               871.5442              1063.7537
 Red. masses --      5.6272                17.1895                 7.8547
 Frc consts  --      2.0910                 7.6930                 5.2368
 IR Inten    --      7.4867                 6.9203               255.1932

                     13                     14                     15
                      A                      A                      A
 Frequencies --   1196.4038              1244.7029              1292.1601
 Red. masses --      6.1941                11.6641                 2.2446
 Frc consts  --      5.2238                10.6471                 2.2081
 IR Inten    --    276.8178               410.9352               524.1026

                     16                     17                     18
                      A                      A                      A
 Frequencies --   1362.2257              1403.6861              3683.5091
 Red. masses --      6.5301                 4.5467                 1.0632
 Frc consts  --      7.1395                 5.2782                 8.4996
 IR Inten    --    115.9530               253.0029                40.1474

 - Thermochemistry -
 -------------------
 Temperature   298.150 Kelvin.  Pressure   1.00000 Atm.
 Atom     1 has atomic number  6 and mass  12.00000

 Molecular mass:   113.99286 amu.
 Principal axes and moments of inertia in atomic units:
                           1         2         3
     Eigenvalues --   360.21023 804.06461 851.37348
           X            0.87702   0.29051  -0.38267
           Y            0.04544   0.74275   0.66802
           Z           -0.47830   0.60326  -0.63821
 This molecule is an asymmetric top.
 Rotational symmetry number  1.
 Rotational temperatures (Kelvin)      0.24045     0.10772     0.10173
 Rotational constants (GHZ):           5.01024     2.24452     2.11980
 Zero-point vibrational energy      99800.2 (Joules/Mol)
                                   23.85281 (Kcal/Mol)
 Warning -- explicit consideration of   8 degrees of freedom as
           vibrations may cause significant error
 Vibrational temperatures:    117.94   262.93   308.82   568.75   632.61
          (Kelvin)            816.91   852.68   882.10   985.97  1142.62
                             1253.96  1530.50  1721.36  1790.85  1859.13
                             1959.94  2019.59  5299.75

 Zero-point correction=                           0.038012 (Hartree/Particle)
 Thermal correction to Energy=                    0.044169
 Thermal correction to Enthalpy=                  0.045113
 Thermal correction to Gibbs Free Energy=         0.007401
 Sum of electronic and zero-point Energies=           -526.733166
 Sum of electronic and thermal Energies=              -526.727009
 Sum of electronic and thermal Enthalpies=            -526.726065
 Sum of electronic and thermal Free Energies=         -526.763777

                     E (Thermal)             CV                S
                      KCal/Mol        Cal/Mol-Kelvin    Cal/Mol-Kelvin
 Total                   27.716             20.753             79.372
 Electronic               0.000              0.000              0.000
 Translational            0.889              2.981             40.108
 Rotational               0.889              2.981             27.002
 Vibrational             25.939             14.792             12.262
 Vibration     1          0.600              1.961              3.843
 Vibration     2          0.630              1.863              2.300
 Vibration     3          0.645              1.819              2.004
 Vibration     4          0.762              1.480              0.980
 Vibration     5          0.800              1.384              0.828
 Vibration     6          0.924              1.101              0.509
 Vibration     7          0.950              1.047              0.462
 Vibration     8          0.972              1.004              0.428

                           ! Non-Optimized Parameters !
 Normal termination of Gaussian 16 at Sun May 25 04:31:51 2025.
