 Gaussian 16, Revision C.01,
 Gaussian 16:  ES64L-G16RevC.01  3-Jul-2019

 ----------------------------------------------------------------------
 #P M062X/Def2TZVPP Symm(None) scf(xqc) pop(None) opt(NoFreeze,TS,CalcA
 ll,NoEigentest,MaxCycle=999)
 ----------------------------------------------------------------------

 ------------------------------
 Gaussian input prepared by ASE
 ------------------------------
 Symbolic Z-matrix:
 Charge =  0 Multiplicity = 1

 SCF Done:  E(RM062X) =  -526.691319328     A.U. after   15 cycles
 SCF Done:  E(RM062X) =  -526.691319391     A.U. after    8 cycles

 Isotropic polarizability for W=    0.000000       36.84 Bohr**3.
 End of Minotr F.D. properties file   721 does not exist.

 Optimization completed.
    -- Stationary point found.

                          Input orientation:
 ---------------------------------------------------------------------
 Center     Atomic      Atomic             Coordinates (Angstroms)
 Number     Number       Type             X           Y           Z
 ---------------------------------------------------------------------
      1          6           0        1.803936   -0.000390    0.000205
      2          8           0        1.267664   -0.281039   -1.117088
      3          6           0       -0.000097   -0.000072    0.000019
      4          9           0       -0.214644    0.949290    0.915855
      5          9           0       -0.879168    0.311056   -0.956669
      6          9           0       -0.293962   -1.181925    0.472701
      7          8           0        3.068739    0.300198   -0.000258
      8          1           0        3.406510    0.253183   -0.918606
 ---------------------------------------------------------------------

 ******    1 imaginary frequencies (negative Signs) ******

                      1                      2                      3
                      A                      A                      A
 Frequencies --   -759.9294                83.3586               136.3626
 Red. masses --     12.9385                13.8584                 5.2514
 Frc consts  --      4.4023                 0.0567                 0.0575
 IR Inten    --     73.7381                 3.2724                 6.7755

                      4                      5                      6
                      A                      A                      A
 Frequencies --    346.3453               415.3689               457.2429
 Red. masses --     11.5885                 8.3552                 7.9761
 Frc consts  --      0.8190                 0.8493                 0.9825
 IR Inten    --     53.6074                14.7395                64.5867

                      7                      8                      9
                      A                      A                      A
 Frequencies --    524.2521               593.1032               680.3477
 Red. masses --     10.2049                15.9756                 3.7681
 Frc consts  --      1.6525                 3.3111                 1.0276
 IR Inten    --      3.4981                 5.0089               193.6091

                     10                     11                     12
                      A                      A                      A
 Frequencies --    732.8681               750.0025               955.5207
 Red. masses --      1.7466                 6.0505                14.6645
 Frc consts  --      0.5527                 2.0052                 7.8886
 IR Inten    --    148.9969               144.7165               585.8007

                     13                     14                     15
                      A                      A                      A
 Frequencies --   1079.1191              1221.7924              1311.2341
 Red. masses --     12.9009                 1.8967                13.1545
 Frc consts  --      8.8513                 1.6682                13.3256
 IR Inten    --    229.6104                95.6817               326.5195

                     16                     17                     18
                      A                      A                      A
 Frequencies --   1394.6984              1571.9255              3597.8517
 Red. masses --      4.5929                 7.5837                 1.0620
 Frc consts  --      5.2637                11.0407                 8.0992
 IR Inten    --     99.8013               294.8682                29.6409

 - Thermochemistry -
 -------------------
 Temperature   298.150 Kelvin.  Pressure   1.00000 Atm.
 Atom     1 has atomic number  6 and mass  12.00000

 Molecular mass:   113.99286 amu.
 Principal axes and moments of inertia in atomic units:
                           1         2         3
     Eigenvalues --   374.04057 891.91651 942.74964
           X            0.99714   0.04256  -0.06246
           Y            0.03743   0.43988   0.89728
           Z           -0.06566   0.89705  -0.43703
 This molecule is an asymmetric top.
 Rotational symmetry number  1.
 Rotational temperatures (Kelvin)      0.23156     0.09711     0.09187
 Rotational constants (GHZ):           4.82499     2.02344     1.91434
    1 imaginary frequencies ignored.
 Zero-point vibrational energy      94812.4 (Joules/Mol)
                                   22.66070 (Kcal/Mol)
 Warning -- explicit consideration of   7 degrees of freedom as
           vibrations may cause significant error
 Vibrational temperatures:    119.93   196.20   498.31   597.62   657.87
          (Kelvin)            754.28   853.34   978.87  1054.43  1079.09
                             1374.78  1552.61  1757.89  1886.57  2006.66
                             2261.65  5176.51

 Zero-point correction=                           0.036112 (Hartree/Particle)
 Thermal correction to Energy=                    0.042090
 Thermal correction to Enthalpy=                  0.043035
 Thermal correction to Gibbs Free Energy=         0.005468
 Sum of electronic and zero-point Energies=           -526.655207
 Sum of electronic and thermal Energies=              -526.649229
 Sum of electronic and thermal Enthalpies=            -526.648285
 Sum of electronic and thermal Free Energies=         -526.685852

                     E (Thermal)             CV                S
                      KCal/Mol        Cal/Mol-Kelvin    Cal/Mol-Kelvin
 Total                   26.412             20.044             79.066
 Electronic               0.000              0.000              0.000
 Translational            0.889              2.981             40.108
 Rotational               0.889              2.981             27.244
 Vibrational             24.635             14.083             11.713
 Vibration     1          0.600              1.961              3.810
 Vibration     2          0.614              1.917              2.854
 Vibration     3          0.724              1.583              1.183
 Vibration     4          0.779              1.437              0.908
 Vibration     5          0.815              1.345              0.774
 Vibration     6          0.879              1.196              0.600
 Vibration     7          0.951              1.046              0.462

 Normal termination of Gaussian 16 at Sun May 25 04:36:41 2025.
