 Gaussian 16, Revision C.01,
 Gaussian 16:  ES64L-G16RevC.01  3-Jul-2019

 -----------------------------------------------------------------
 #P M062X/Def2TZVPP Symm(None) scf(xqc) pop(None) freq opt(CalcFC)
 -----------------------------------------------------------------

 ------------------------------
 Gaussian input prepared by ASE
 ------------------------------
 Symbolic Z-matrix:
 Charge =  0 Multiplicity = 1

 SCF Done:  E(RM062X) =  -526.647543128     A.U. after   15 cycles
 SCF Done:  E(RM062X) =  -526.647543406     A.U. after   10 cycles
 Optimization completed.
    -- Stationary point found.
 Normal termination of Gaussian 16 at Sun May 25 05:06:03 2025.

 ---------------------------------------------------------------------
 #P Geom=AllCheck Guess=TCheck SCRF=Check GenChk RM062X/def2TZVPP Freq
 ---------------------------------------------------------------------

 Structure from the checkpoint file:  "/tmp/Gau-28115.chk"
 ------------------------------
 Gaussian input prepared by ASE
 ------------------------------
 Charge =  0 Multiplicity = 1

                          Input orientation:
 ---------------------------------------------------------------------
 Center     Atomic      Atomic             Coordinates (Angstroms)
 Number     Number       Type             X           Y           Z
 ---------------------------------------------------------------------
      1          6           0        2.431048    1.682309   -0.010963
      2          8           0        0.968217   -0.000011   -0.000154
      3          6           0        2.515887    3.222629   -0.006564
      4          9           0        3.174965    3.598429   -1.098153
      5          9           0        1.355853    3.884459    0.013089
      6          9           0        3.207324    3.591045    1.067290
      7          8           0        1.207568    1.421262    0.002296
      8          1           0        0.000035    0.000003    0.008391
 ---------------------------------------------------------------------

 SCF Done:  E(RM062X) =  -526.647543406     A.U. after    1 cycles

 Isotropic polarizability for W=    0.000000       38.23 Bohr**3.
 End of Minotr F.D. properties file   721 does not exist.

                      1                      2                      3
                      A                      A                      A
 Frequencies --     29.8621               206.1525               227.9894
 Red. masses --      9.8060                 9.6389                 3.3089
 Frc consts  --      0.0052                 0.2414                 0.1013
 IR Inten    --      5.3905                 1.3379                78.0571

                      4                      5                      6
                      A                      A                      A
 Frequencies --    271.0973               380.3389               425.3060
 Red. masses --      1.4972                14.6372                11.2606
 Frc consts  --      0.0648                 1.2475                 1.2001
 IR Inten    --     51.8801                 0.3645                 0.0119

                      7                      8                      9
                      A                      A                      A
 Frequencies --    442.4483               580.5627               582.1122
 Red. masses --     15.2762                14.8070                16.3507
 Frc consts  --      1.7619                 2.9405                 3.2644
 IR Inten    --      0.0549                 2.8827                 5.4508

                     10                     11                     12
                      A                      A                      A
 Frequencies --    706.9382               855.9907               949.6056
 Red. masses --     14.5443                15.9702                10.2298
 Frc consts  --      4.2826                 6.8944                 5.4350
 IR Inten    --     62.5370                56.1554                48.3979

                     13                     14                     15
                      A                      A                      A
 Frequencies --   1246.4079              1251.9923              1279.1288
 Red. masses --     10.2710                13.1802                10.3780
 Frc consts  --      9.4012                12.1724                10.0044
 IR Inten    --    222.3287               307.0977               204.4838

                     16                     17                     18
                      A                      A                      A
 Frequencies --   1397.8057              1515.1344              3807.0868
 Red. masses --      1.7806                 2.8670                 1.0677
 Frc consts  --      2.0498                 3.8778                 9.1179
 IR Inten    --    115.4853                12.6998               108.2950

 - Thermochemistry -
 -------------------
 Temperature   298.150 Kelvin.  Pressure   1.00000 Atm.
 Atom     1 has atomic number  6 and mass  12.00000

 Molecular mass:   113.99286 amu.
 Principal axes and moments of inertia in atomic units:
                           1         2         3
     Eigenvalues --   329.916641122.099401133.80858
           X            0.46985   0.88265   0.01305
           Y            0.88274  -0.46983  -0.00442
           Z           -0.00223  -0.01359   0.99991
 This molecule is an asymmetric top.
 Rotational symmetry number  1.
 Rotational temperatures (Kelvin)      0.26253     0.07719     0.07639
 Rotational constants (GHZ):           5.47029     1.60836     1.59175
 Zero-point vibrational energy      96634.1 (Joules/Mol)
                                   23.09610 (Kcal/Mol)
 Warning -- explicit consideration of   9 degrees of freedom as
           vibrations may cause significant error
 Vibrational temperatures:     42.96   296.61   328.03   390.05   547.22
          (Kelvin)            611.92   636.58   835.30   837.53  1017.13
                             1231.58  1366.27  1793.30  1801.34  1840.38
                             2011.13  2179.94  5477.55

 Zero-point correction=                           0.036806 (Hartree/Particle)
 Thermal correction to Energy=                    0.043539
 Thermal correction to Enthalpy=                  0.044483
 Thermal correction to Gibbs Free Energy=         0.004838
 Sum of electronic and zero-point Energies=           -526.610737
 Sum of electronic and thermal Energies=              -526.604004
 Sum of electronic and thermal Enthalpies=            -526.603060
 Sum of electronic and thermal Free Energies=         -526.642706

                     E (Thermal)             CV                S
                      KCal/Mol        Cal/Mol-Kelvin    Cal/Mol-Kelvin
 Total                   27.321             22.250             83.441
 Electronic               0.000              0.000              0.000
 Translational            0.889              2.981             40.108
 Rotational               0.889              2.981             27.531
 Vibrational             25.544             16.288             15.802
 Vibration     1          0.594              1.984              5.839
 Vibration     2          0.641              1.831              2.077
 Vibration     3          0.651              1.798              1.895
 Vibration     4          0.675              1.726              1.589
 Vibration     5          0.750              1.512              1.038
 Vibration     6          0.787              1.415              0.874
 Vibration     7          0.802              1.378              0.819
 Vibration     8          0.937              1.073              0.484
 Vibration     9          0.939              1.070              0.481

 Optimization completed.
    -- Stationary point found.
 Normal termination of Gaussian 16 at Sun May 25 05:07:07 2025.
