 Gaussian 16, Revision C.01,
 Gaussian 16:  ES64L-G16RevC.01  3-Jul-2019

 ----------------------------------------------------------------------
 #P M062X/Def2TZVPP Symm(None) scf(xqc) pop(None) opt(NoFreeze,TS,CalcA
 ll,NoEigentest,MaxCycle=999)
 ----------------------------------------------------------------------

 ------------------------------
 Gaussian input prepared by ASE
 ------------------------------
 Symbolic Z-matrix:
 Charge =  0 Multiplicity = 1

 SCF Done:  E(RM062X) =  -526.674583624     A.U. after   15 cycles
 SCF Done:  E(RM062X) =  -526.691156537     A.U. after   16 cycles
 SCF Done:  E(RM062X) =  -526.691266496     A.U. after   13 cycles

 Isotropic polarizability for W=    0.000000       36.20 Bohr**3.
 End of Minotr F.D. properties file   721 does not exist.

 Optimization completed.
    -- Stationary point found.

                          Input orientation:
 ---------------------------------------------------------------------
 Center     Atomic      Atomic             Coordinates (Angstroms)
 Number     Number       Type             X           Y           Z
 ---------------------------------------------------------------------
      1          6           0        1.802872   -0.171943   -0.060591
      2          8           0        1.220478   -0.328742   -1.170341
      3          6           0        0.027634   -0.016820   -0.002111
      4          9           0       -0.091861    0.857282    1.014827
      5          9           0       -0.838688    0.473637   -0.895422
      6          9           0       -0.377557   -1.203295    0.373488
      7          8           0        3.098426    0.025552   -0.134117
      8          1           0        3.458177    0.120934    0.754735
 ---------------------------------------------------------------------

 ******    1 imaginary frequencies (negative Signs) ******

                      1                      2                      3
                      A                      A                      A
 Frequencies --   -772.9008                86.4047               144.2907
 Red. masses --     12.6503                 9.3630                12.5377
 Frc consts  --      4.4525                 0.0412                 0.1538
 IR Inten    --     74.9513                 5.1786                 5.1847

                      4                      5                      6
                      A                      A                      A
 Frequencies --    353.7374               420.2684               464.4992
 Red. masses --      9.5906                10.8257                 8.8456
 Frc consts  --      0.7071                 1.1266                 1.1245
 IR Inten    --     32.8610                33.2632                33.7282

                      7                      8                      9
                      A                      A                      A
 Frequencies --    526.6523               592.2611               629.1682
 Red. masses --     13.0004                12.8483                 1.2795
 Frc consts  --      2.1245                 2.6554                 0.2984
 IR Inten    --     15.5210                 1.2996                90.4838

                     10                     11                     12
                      A                      A                      A
 Frequencies --    706.1658               748.8080               943.5075
 Red. masses --      8.4560                13.0069                12.8418
 Frc consts  --      2.4845                 4.2970                 6.7354
 IR Inten    --     66.5121               245.7369               679.3812

                     13                     14                     15
                      A                      A                      A
 Frequencies --   1053.4414              1186.4063              1297.5901
 Red. masses --     10.4551                 1.3787                13.1769
 Frc consts  --      6.8359                 1.1433                13.0719
 IR Inten    --    281.6004                54.5034               332.1936

                     16                     17                     18
                      A                      A                      A
 Frequencies --   1351.2963              1613.3634              3863.7516
 Red. masses --      7.7007                 8.3313                 1.0663
 Frc consts  --      8.2848                12.7770                 9.3786
 IR Inten    --    277.9074               171.1461               190.5546

 - Thermochemistry -
 -------------------
 Temperature   298.150 Kelvin.  Pressure   1.00000 Atm.
 Atom     1 has atomic number  6 and mass  12.00000

 Molecular mass:   113.99286 amu.
 Principal axes and moments of inertia in atomic units:
                           1         2         3
     Eigenvalues --   377.10542 887.35296 941.39647
           X            0.99592   0.08987   0.00843
           Y           -0.04186   0.37704   0.92525
           Z           -0.07998   0.92183  -0.37926
 This molecule is an asymmetric top.
 Rotational symmetry number  1.
 Rotational temperatures (Kelvin)      0.22968     0.09761     0.09201
 Rotational constants (GHZ):           4.78577     2.03385     1.91709
    1 imaginary frequencies ignored.
 Zero-point vibrational energy      95591.3 (Joules/Mol)
                                   22.84686 (Kcal/Mol)
 Warning -- explicit consideration of   7 degrees of freedom as
           vibrations may cause significant error
 Vibrational temperatures:    124.32   207.60   508.95   604.67   668.31
          (Kelvin)            757.74   852.13   905.23  1016.02  1077.37
                             1357.50  1515.67  1706.97  1866.94  1944.21
                             2321.27  5559.08

 Zero-point correction=                           0.036409 (Hartree/Particle)
 Thermal correction to Energy=                    0.042390
 Thermal correction to Enthalpy=                  0.043334
 Thermal correction to Gibbs Free Energy=         0.005828
 Sum of electronic and zero-point Energies=           -526.654858
 Sum of electronic and thermal Energies=              -526.648876
 Sum of electronic and thermal Enthalpies=            -526.647932
 Sum of electronic and thermal Free Energies=         -526.685439

                     E (Thermal)             CV                S
                      KCal/Mol        Cal/Mol-Kelvin    Cal/Mol-Kelvin
 Total                   26.600             20.221             78.939
 Electronic               0.000              0.000              0.000
 Translational            0.889              2.981             40.108
 Rotational               0.889              2.981             27.246
 Vibrational             24.823             14.260             11.585
 Vibration     1          0.601              1.959              3.740
 Vibration     2          0.616              1.909              2.746
 Vibration     3          0.730              1.568              1.150
 Vibration     4          0.783              1.426              0.891
 Vibration     5          0.822              1.329              0.753
 Vibration     6          0.882              1.191              0.595
 Vibration     7          0.950              1.048              0.463

 Normal termination of Gaussian 16 at Sun May 25 04:37:40 2025.
