 Gaussian 16, Revision C.01,
 Gaussian 16:  ES64L-G16RevC.01  3-Jul-2019

 ----------------------------------------------------------------------
 #P M062X/Def2TZVPP Symm(None) scf(xqc) pop(None) opt(NoFreeze,TS,CalcA
 ll,NoEigentest,MaxCycle=999)
 ----------------------------------------------------------------------

 ------------------------------
 Gaussian input prepared by ASE
 ------------------------------
 Symbolic Z-matrix:
 Charge =  0 Multiplicity = 1

 SCF Done:  E(RM062X) =  -526.691319219     A.U. after   15 cycles
 SCF Done:  E(RM062X) =  -526.691319368     A.U. after    8 cycles

 Isotropic polarizability for W=    0.000000       36.84 Bohr**3.
 End of Minotr F.D. properties file   721 does not exist.

 Optimization completed.
    -- Stationary point found.

                          Input orientation:
 ---------------------------------------------------------------------
 Center     Atomic      Atomic             Coordinates (Angstroms)
 Number     Number       Type             X           Y           Z
 ---------------------------------------------------------------------
      1          6           0        1.804135   -0.001651    0.000397
      2          8           0        1.267852   -0.282869   -1.116747
      3          6           0        0.000107   -0.000238   -0.000036
      4          9           0       -0.213991    0.950026    0.914968
      5          9           0       -0.878657    0.310604   -0.957100
      6          9           0       -0.294527   -1.181520    0.473595
      7          8           0        3.069122    0.298158   -0.000124
      8          1           0        3.406991    0.250199   -0.918387
 ---------------------------------------------------------------------

 ******    1 imaginary frequencies (negative Signs) ******

                      1                      2                      3
                      A                      A                      A
 Frequencies --   -759.9265                83.3536               136.3316
 Red. masses --     12.9384                13.8590                 5.2500
 Frc consts  --      4.4023                 0.0567                 0.0575
 IR Inten    --     73.7364                 3.2717                 6.7799

                      4                      5                      6
                      A                      A                      A
 Frequencies --    346.3363               415.3715               457.2406
 Red. masses --     11.5870                 8.3543                 7.9750
 Frc consts  --      0.8189                 0.8492                 0.9824
 IR Inten    --     53.5982                14.7416                64.5818

                      7                      8                      9
                      A                      A                      A
 Frequencies --    524.2536               593.1058               680.3486
 Red. masses --     10.2056                15.9757                 3.7666
 Frc consts  --      1.6526                 3.3111                 1.0272
 IR Inten    --      3.4977                 5.0098               193.5594

                     10                     11                     12
                      A                      A                      A
 Frequencies --    732.8265               750.0073               955.5323
 Red. masses --      1.7460                 6.0656                14.6644
 Frc consts  --      0.5525                 2.0103                 7.8887
 IR Inten    --    148.9038               144.8214               585.8458

                     13                     14                     15
                      A                      A                      A
 Frequencies --   1079.1204              1221.8196              1311.2466
 Red. masses --     12.9014                 1.8967                13.1545
 Frc consts  --      8.8517                 1.6683                13.3258
 IR Inten    --    229.6130                95.6733               326.5193

                     16                     17                     18
                      A                      A                      A
 Frequencies --   1394.7069              1571.9276              3597.8637
 Red. masses --      4.5926                 7.5831                 1.0620
 Frc consts  --      5.2635                11.0399                 8.0992
 IR Inten    --     99.8010               294.8697                29.6413

 - Thermochemistry -
 -------------------
 Temperature   298.150 Kelvin.  Pressure   1.00000 Atm.
 Atom     1 has atomic number  6 and mass  12.00000

 Molecular mass:   113.99286 amu.
 Principal axes and moments of inertia in atomic units:
                           1         2         3
     Eigenvalues --   374.04001 891.91640 942.74893
           X            0.99717   0.04270  -0.06185
           Y            0.03677   0.44058   0.89696
           Z           -0.06555   0.89670  -0.43776
 This molecule is an asymmetric top.
 Rotational symmetry number  1.
 Rotational temperatures (Kelvin)      0.23156     0.09711     0.09187
 Rotational constants (GHZ):           4.82500     2.02344     1.91434
    1 imaginary frequencies ignored.
 Zero-point vibrational energy      94812.4 (Joules/Mol)
                                   22.66070 (Kcal/Mol)
 Warning -- explicit consideration of   7 degrees of freedom as
           vibrations may cause significant error
 Vibrational temperatures:    119.93   196.15   498.30   597.63   657.87
          (Kelvin)            754.28   853.35   978.87  1054.37  1079.09
                             1374.80  1552.61  1757.93  1886.59  2006.67
                             2261.65  5176.52

 Zero-point correction=                           0.036112 (Hartree/Particle)
 Thermal correction to Energy=                    0.042091
 Thermal correction to Enthalpy=                  0.043035
 Thermal correction to Gibbs Free Energy=         0.005468
 Sum of electronic and zero-point Energies=           -526.655207
 Sum of electronic and thermal Energies=              -526.649229
 Sum of electronic and thermal Enthalpies=            -526.648285
 Sum of electronic and thermal Free Energies=         -526.685852

                     E (Thermal)             CV                S
                      KCal/Mol        Cal/Mol-Kelvin    Cal/Mol-Kelvin
 Total                   26.412             20.045             79.067
 Electronic               0.000              0.000              0.000
 Translational            0.889              2.981             40.108
 Rotational               0.889              2.981             27.244
 Vibrational             24.635             14.083             11.714
 Vibration     1          0.600              1.961              3.810
 Vibration     2          0.614              1.917              2.855
 Vibration     3          0.724              1.583              1.183
 Vibration     4          0.779              1.437              0.908
 Vibration     5          0.815              1.345              0.774
 Vibration     6          0.879              1.196              0.600
 Vibration     7          0.951              1.046              0.462

 Normal termination of Gaussian 16 at Sun May 25 04:28:39 2025.
