 Gaussian 16, Revision C.01,
 Gaussian 16:  ES64L-G16RevC.01  3-Jul-2019

 ----------------------------------------------------------------------
 #P M062X/Def2TZVPP Symm(None) scf(xqc) pop(None) opt(NoFreeze,TS,CalcA
 ll,NoEigentest,MaxCycle=999)
 ----------------------------------------------------------------------

 ------------------------------
 Gaussian input prepared by ASE
 ------------------------------
 Symbolic Z-matrix:
 Charge =  0 Multiplicity = 1

 SCF Done:  E(RM062X) =  -526.724688759     A.U. after   15 cycles
 SCF Done:  E(RM062X) =  -526.724688831     A.U. after    8 cycles

 Isotropic polarizability for W=    0.000000       36.16 Bohr**3.
 End of Minotr F.D. properties file   721 does not exist.

 Optimization completed.
    -- Stationary point found.

                          Input orientation:
 ---------------------------------------------------------------------
 Center     Atomic      Atomic             Coordinates (Angstroms)
 Number     Number       Type             X           Y           Z
 ---------------------------------------------------------------------
      1          6           0        1.767505    0.000012   -0.000235
      2          8           0        2.249891   -0.890046   -0.607536
      3          6           0       -0.000013    0.000121   -0.000083
      4          9           0        1.352056   -0.269264    1.476549
      5          9           0       -0.759317    0.902322    0.481998
      6          9           0       -0.626712   -1.092719   -0.090931
      7          8           0        2.174507    1.280850    0.000359
      8          1           0        1.940590    1.697773    0.836238
 ---------------------------------------------------------------------

 ******    1 imaginary frequencies (negative Signs) ******

                      1                      2                      3
                      A                      A                      A
 Frequencies --   -431.8265               109.8463               142.5445
 Red. masses --     13.6744                14.8353                12.0811
 Frc consts  --      1.5024                 0.1055                 0.1446
 IR Inten    --     24.7912                 1.7466                33.2917

                      4                      5                      6
                      A                      A                      A
 Frequencies --    162.9020               332.3459               368.7241
 Red. masses --     10.4222                 2.2443                 2.4587
 Frc consts  --      0.1630                 0.1461                 0.1969
 IR Inten    --      1.8220                54.7356                65.9039

                      7                      8                      9
                      A                      A                      A
 Frequencies --    412.7544               508.7791               577.0607
 Red. masses --      6.0376                 6.1702                11.7848
 Frc consts  --      0.6060                 0.9410                 2.3122
 IR Inten    --     21.5435                22.6225                35.0773

                     10                     11                     12
                      A                      A                      A
 Frequencies --    662.8667               713.8077               736.8324
 Red. masses --     10.1539                14.1852                12.8690
 Frc consts  --      2.6287                 4.2584                 4.1165
 IR Inten    --    168.4033                23.3699               238.3325

                     13                     14                     15
                      A                      A                      A
 Frequencies --   1093.9838              1267.9332              1374.9542
 Red. masses --      7.5772                 1.3601                10.9911
 Frc consts  --      5.3429                 1.2883                12.2424
 IR Inten    --    273.5490               279.8016               237.4039

                     16                     17                     18
                      A                      A                      A
 Frequencies --   1415.6446              1905.5467              3866.7307
 Red. masses --     12.8935                11.1099                 1.0656
 Frc consts  --     15.2240                23.7683                 9.3867
 IR Inten    --    189.9375               589.0018               103.0013

 - Thermochemistry -
 -------------------
 Temperature   298.150 Kelvin.  Pressure   1.00000 Atm.
 Atom     1 has atomic number  6 and mass  12.00000

 Molecular mass:   113.99286 amu.
 Principal axes and moments of inertia in atomic units:
                           1         2         3
     Eigenvalues --   450.61981 775.74806 933.51557
           X            0.99360  -0.06399   0.09306
           Y            0.09088   0.94222  -0.32243
           Z           -0.06705   0.32882   0.94201
 This molecule is an asymmetric top.
 Rotational symmetry number  1.
 Warning -- assumption of classical behavior for rotation
           may cause significant error
 Rotational temperatures (Kelvin)      0.19221     0.11165     0.09278
 Rotational constants (GHZ):           4.00502     2.32645     1.93327
    1 imaginary frequencies ignored.
 Zero-point vibrational energy      93627.3 (Joules/Mol)
                                   22.37745 (Kcal/Mol)
 Warning -- explicit consideration of   8 degrees of freedom as
           vibrations may cause significant error
 Vibrational temperatures:    158.04   205.09   234.38   478.17   530.51
          (Kelvin)            593.86   732.02   830.26   953.72  1027.01
                             1060.14  1574.00  1824.27  1978.25  2036.80
                             2741.66  5563.36

 Zero-point correction=                           0.035661 (Hartree/Particle)
 Thermal correction to Energy=                    0.042286
 Thermal correction to Enthalpy=                  0.043230
 Thermal correction to Gibbs Free Energy=         0.004570
 Sum of electronic and zero-point Energies=           -526.689028
 Sum of electronic and thermal Energies=              -526.682403
 Sum of electronic and thermal Enthalpies=            -526.681459
 Sum of electronic and thermal Free Energies=         -526.720119

                     E (Thermal)             CV                S
                      KCal/Mol        Cal/Mol-Kelvin    Cal/Mol-Kelvin
 Total                   26.535             21.751             81.367
 Electronic               0.000              0.000              0.000
 Translational            0.889              2.981             40.108
 Rotational               0.889              2.981             27.281
 Vibrational             24.757             15.789             13.978
 Vibration     1          0.606              1.941              3.272
 Vibration     2          0.616              1.911              2.769
 Vibration     3          0.623              1.888              2.516
 Vibration     4          0.714              1.611              1.249
 Vibration     5          0.741              1.537              1.085
 Vibration     6          0.777              1.443              0.917
 Vibration     7          0.864              1.231              0.637
 Vibration     8          0.934              1.081              0.491

 Normal termination of Gaussian 16 at Sun May 25 04:24:46 2025.
