 Gaussian 16, Revision C.01,
 Gaussian 16:  ES64L-G16RevC.01  3-Jul-2019

 -----------------------------------------------------------------
 #P M062X/Def2TZVPP Symm(None) scf(xqc) pop(None) freq opt(CalcFC)
 -----------------------------------------------------------------

 ------------------------------
 Gaussian input prepared by ASE
 ------------------------------
 Symbolic Z-matrix:
 Charge =  0 Multiplicity = 1

 SCF Done:  E(RM062X) =  -526.735971406     A.U. after   14 cycles
 SCF Done:  E(RM062X) =  -526.765432896     A.U. after   16 cycles
 SCF Done:  E(RM062X) =  -526.775070652     A.U. after   15 cycles
 SCF Done:  E(RM062X) =  -526.777931467     A.U. after   14 cycles
 SCF Done:  E(RM062X) =  -526.777405176     A.U. after   15 cycles
 SCF Done:  E(RM062X) =  -526.778911115     A.U. after   14 cycles
 SCF Done:  E(RM062X) =  -526.779982247     A.U. after   13 cycles
 SCF Done:  E(RM062X) =  -526.780451155     A.U. after   10 cycles
 SCF Done:  E(RM062X) =  -526.781074877     A.U. after   13 cycles
 SCF Done:  E(RM062X) =  -526.781129766     A.U. after   11 cycles
 SCF Done:  E(RM062X) =  -526.781133716     A.U. after   11 cycles
 SCF Done:  E(RM062X) =  -526.781137086     A.U. after    8 cycles
 Optimization completed.
    -- Stationary point found.
 Normal termination of Gaussian 16 at Sun May 25 04:29:38 2025.

 ---------------------------------------------------------------------
 #P Geom=AllCheck Guess=TCheck SCRF=Check GenChk RM062X/def2TZVPP Freq
 ---------------------------------------------------------------------

 Structure from the checkpoint file:  "/tmp/Gau-6690.chk"
 ------------------------------
 Gaussian input prepared by ASE
 ------------------------------
 Charge =  0 Multiplicity = 1

                          Input orientation:
 ---------------------------------------------------------------------
 Center     Atomic      Atomic             Coordinates (Angstroms)
 Number     Number       Type             X           Y           Z
 ---------------------------------------------------------------------
      1          6           0        1.300719    0.244522   -0.238646
      2          8           0       -0.000296    0.061728    0.025869
      3          6           0       -0.687244    0.668068    1.065926
      4          9           0       -0.686534    1.985860    0.954987
      5          9           0       -1.931689    0.239517    0.994576
      6          9           0       -0.191598    0.333680    2.245496
      7          8           0        1.798300    1.077729    0.638996
      8          1           0        2.731283    1.195299    0.432195
 ---------------------------------------------------------------------

 SCF Done:  E(RM062X) =  -526.781137086     A.U. after    1 cycles

 Isotropic polarizability for W=    0.000000       34.07 Bohr**3.
 End of Minotr F.D. properties file   721 does not exist.

                      1                      2                      3
                      A                      A                      A
 Frequencies --    115.1157               217.0213               238.7246
 Red. masses --     10.0569                 9.2278                11.4620
 Frc consts  --      0.0785                 0.2561                 0.3849
 IR Inten    --      3.3623                 2.1258                 0.2361

                      4                      5                      6
                      A                      A                      A
 Frequencies --    384.6338               455.0669               559.5128
 Red. masses --     13.6213                12.1033                13.4640
 Frc consts  --      1.1873                 1.4767                 2.4834
 IR Inten    --      0.6188                 1.4400                 4.8055

                      7                      8                      9
                      A                      A                      A
 Frequencies --    587.1364               631.0145               733.5139
 Red. masses --     12.1387                 8.2431                 1.2493
 Frc consts  --      2.4655                 1.9338                 0.3960
 IR Inten    --     10.3199                21.8220                75.0279

                     10                     11                     12
                      A                      A                      A
 Frequencies --    807.3791               887.3980              1116.5056
 Red. masses --      7.4342                16.9146                 3.6896
 Frc consts  --      2.8552                 7.8478                 2.7099
 IR Inten    --     25.2750                 1.6875               363.7983

                     13                     14                     15
                      A                      A                      A
 Frequencies --   1186.8865              1296.9735              1308.4456
 Red. masses --      4.6750                13.0579                11.8892
 Frc consts  --      3.8801                12.9415                11.9927
 IR Inten    --    290.3472               375.5477               189.7529

                     16                     17                     18
                      A                      A                      A
 Frequencies --   1368.6481              1374.0738              3868.4526
 Red. masses --      8.6941                 2.2723                 1.0667
 Frc consts  --      9.5953                 2.5278                 9.4056
 IR Inten    --    468.3940               152.1960               196.4652

 - Thermochemistry -
 -------------------
 Temperature   298.150 Kelvin.  Pressure   1.00000 Atm.
 Atom     1 has atomic number  6 and mass  12.00000

 Molecular mass:   113.99286 amu.
 Principal axes and moments of inertia in atomic units:
                           1         2         3
     Eigenvalues --   360.60077 787.60394 833.40100
           X            0.94898   0.21647  -0.22930
           Y            0.03955   0.63971   0.76759
           Z           -0.31284   0.73750  -0.59852
 This molecule is an asymmetric top.
 Rotational symmetry number  1.
 Rotational temperatures (Kelvin)      0.24019     0.10997     0.10393
 Rotational constants (GHZ):           5.00482     2.29143     2.16551
 Zero-point vibrational energy     102499.0 (Joules/Mol)
                                   24.49786 (Kcal/Mol)
 Warning -- explicit consideration of   7 degrees of freedom as
           vibrations may cause significant error
 Vibrational temperatures:    165.63   312.25   343.47   553.40   654.74
          (Kelvin)            805.01   844.76   907.89  1055.36  1161.64
                             1276.77  1606.40  1707.66  1866.06  1882.56
                             1969.18  1976.99  5565.84

 Zero-point correction=                           0.039040 (Hartree/Particle)
 Thermal correction to Energy=                    0.045007
 Thermal correction to Enthalpy=                  0.045951
 Thermal correction to Gibbs Free Energy=         0.008863
 Sum of electronic and zero-point Energies=           -526.742097
 Sum of electronic and thermal Energies=              -526.736130
 Sum of electronic and thermal Enthalpies=            -526.735186
 Sum of electronic and thermal Free Energies=         -526.772274

                     E (Thermal)             CV                S
                      KCal/Mol        Cal/Mol-Kelvin    Cal/Mol-Kelvin
 Total                   28.242             20.422             78.058
 Electronic               0.000              0.000              0.000
 Translational            0.889              2.981             40.108
 Rotational               0.889              2.981             26.962
 Vibrational             26.465             14.460             10.988
 Vibration     1          0.608              1.937              3.181
 Vibration     2          0.646              1.815              1.984
 Vibration     3          0.657              1.781              1.812
 Vibration     4          0.754              1.503              1.021
 Vibration     5          0.813              1.350              0.781
 Vibration     6          0.915              1.119              0.525
 Vibration     7          0.944              1.059              0.472

 Optimization completed.
    -- Stationary point found.
 Normal termination of Gaussian 16 at Sun May 25 04:30:53 2025.
