 Gaussian 16, Revision C.01,
 Gaussian 16:  ES64L-G16RevC.01  3-Jul-2019

 -----------------------------------------------------------------
 #P M062X/Def2TZVPP Symm(None) scf(xqc) pop(None) freq opt(CalcFC)
 -----------------------------------------------------------------

 ------------------------------
 Gaussian input prepared by ASE
 ------------------------------
 Symbolic Z-matrix:
 Charge =  0 Multiplicity = 1

 SCF Done:  E(RM062X) =  -526.785831101     A.U. after   13 cycles
 Optimization completed.
    -- Stationary point found.
 Normal termination of Gaussian 16 at Sun May 25 04:27:21 2025.

 ---------------------------------------------------------------------
 #P Geom=AllCheck Guess=TCheck SCRF=Check GenChk RM062X/def2TZVPP Freq
 ---------------------------------------------------------------------

 Structure from the checkpoint file:  "/tmp/Gau-81262.chk"
 ------------------------------
 Gaussian input prepared by ASE
 ------------------------------
 Charge =  0 Multiplicity = 1

                          Input orientation:
 ---------------------------------------------------------------------
 Center     Atomic      Atomic             Coordinates (Angstroms)
 Number     Number       Type             X           Y           Z
 ---------------------------------------------------------------------
      1          6           0        1.357042    0.000000    0.000000
      2          8           0        0.000000    0.000000    0.000000
      3          6           0       -0.589887   -1.245704    0.000260
      4          9           0       -0.259136   -1.935582    1.074810
      5          9           0       -1.894692   -1.049239   -0.000957
      6          9           0       -0.257248   -1.937204   -1.072647
      7          8           0        1.719084    1.240172    0.000000
      8          1           0        0.963036    1.859071    0.000001
 ---------------------------------------------------------------------

 SCF Done:  E(RM062X) =  -526.785831101     A.U. after    1 cycles

 Isotropic polarizability for W=    0.000000       34.72 Bohr**3.
 End of Minotr F.D. properties file   721 does not exist.

                      1                      2                      3
                      A                      A                      A
 Frequencies --    117.9710               148.9333               212.5700
 Red. masses --      8.7294                 5.1126                12.4617
 Frc consts  --      0.0716                 0.0668                 0.3318
 IR Inten    --     14.1610                13.1210                 4.3026

                      4                      5                      6
                      A                      A                      A
 Frequencies --    437.3852               443.5929               467.5609
 Red. masses --     13.7375                17.4770                 7.4106
 Frc consts  --      1.5484                 2.0262                 0.9545
 IR Inten    --      2.4911                 1.3341                 8.8570

                      7                      8                      9
                      A                      A                      A
 Frequencies --    621.5799               635.8059               751.0897
 Red. masses --     12.2138                16.6289                10.0023
 Frc consts  --      2.7803                 3.9606                 3.3245
 IR Inten    --      0.4254                 1.0599                11.9147

                     10                     11                     12
                      A                      A                      A
 Frequencies --    789.4042               946.0493              1115.8736
 Red. masses --      1.2980                 7.3840                10.4458
 Frc consts  --      0.4766                 3.8937                 7.6634
 IR Inten    --    115.7937                36.0261               203.9367

                     13                     14                     15
                      A                      A                      A
 Frequencies --   1222.6220              1310.2028              1320.2660
 Red. masses --      3.4726                13.0490                 6.9496
 Frc consts  --      3.0583                13.1978                 7.1373
 IR Inten    --    916.8423               348.5973               333.8877

                     16                     17                     18
                      A                      A                      A
 Frequencies --   1382.2124              1430.0815              3621.1475
 Red. masses --      2.6396                 6.6274                 1.0625
 Frc consts  --      2.9712                 7.9858                 8.2085
 IR Inten    --     52.4773                75.8934                22.9482

 - Thermochemistry -
 -------------------
 Temperature   298.150 Kelvin.  Pressure   1.00000 Atm.
 Atom     1 has atomic number  6 and mass  12.00000

 Molecular mass:   113.99286 amu.
 Principal axes and moments of inertia in atomic units:
                           1         2         3
     Eigenvalues --   331.617451012.254781031.00196
           X            0.70813  -0.70608   0.00036
           Y            0.70608   0.70813  -0.00023
           Z           -0.00009   0.00042   1.00000
 This molecule is an asymmetric top.
 Rotational symmetry number  1.
 Rotational temperatures (Kelvin)      0.26119     0.08557     0.08401
 Rotational constants (GHZ):           5.44224     1.78289     1.75047
 Zero-point vibrational energy     101529.1 (Joules/Mol)
                                   24.26605 (Kcal/Mol)
 Warning -- explicit consideration of   6 degrees of freedom as
           vibrations may cause significant error
 Vibrational temperatures:    169.73   214.28   305.84   629.30   638.23
          (Kelvin)            672.72   894.31   914.78  1080.65  1135.78
                             1361.15  1605.49  1759.08  1885.09  1899.57
                             1988.70  2057.57  5210.02

 Zero-point correction=                           0.038670 (Hartree/Particle)
 Thermal correction to Energy=                    0.044768
 Thermal correction to Enthalpy=                  0.045712
 Thermal correction to Gibbs Free Energy=         0.008056
 Sum of electronic and zero-point Energies=           -526.747161
 Sum of electronic and thermal Energies=              -526.741063
 Sum of electronic and thermal Enthalpies=            -526.740119
 Sum of electronic and thermal Free Energies=         -526.777775

                     E (Thermal)             CV                S
                      KCal/Mol        Cal/Mol-Kelvin    Cal/Mol-Kelvin
 Total                   28.092             20.440             79.255
 Electronic               0.000              0.000              0.000
 Translational            0.889              2.981             40.108
 Rotational               0.889              2.981             27.339
 Vibrational             26.315             14.479             11.807
 Vibration     1          0.608              1.934              3.133
 Vibration     2          0.618              1.904              2.686
 Vibration     3          0.644              1.822              2.021
 Vibration     4          0.798              1.389              0.835
 Vibration     5          0.803              1.375              0.815
 Vibration     6          0.825              1.322              0.744

 Optimization completed.
    -- Stationary point found.
 Normal termination of Gaussian 16 at Sun May 25 04:28:30 2025.
