 Gaussian 16, Revision C.01,
 Gaussian 16:  ES64L-G16RevC.01  3-Jul-2019

 ----------------------------------------------------------------------
 #P M062X/Def2TZVPP Symm(None) scf(xqc) pop(None) opt(NoFreeze,TS,CalcA
 ll,NoEigentest,MaxCycle=999)
 ----------------------------------------------------------------------

 ------------------------------
 Gaussian input prepared by ASE
 ------------------------------
 Symbolic Z-matrix:
 Charge =  0 Multiplicity = 1

 SCF Done:  E(RM062X) =  -526.727395059     A.U. after   14 cycles

 Isotropic polarizability for W=    0.000000       36.97 Bohr**3.
 End of Minotr F.D. properties file   721 does not exist.

 Optimization completed.
    -- Stationary point found.

                          Input orientation:
 ---------------------------------------------------------------------
 Center     Atomic      Atomic             Coordinates (Angstroms)
 Number     Number       Type             X           Y           Z
 ---------------------------------------------------------------------
      1          6           0        2.012622    0.222600   -0.307404
      2          8           0        2.170077   -0.294440   -1.315454
      3          6           0       -0.075835    0.216016    0.142907
      4          9           0       -0.806799    0.687860    1.183116
      5          9           0       -0.564911    0.797508   -0.959484
      6          9           0       -0.341595   -1.093383    0.054966
      7          8           0        2.382291    0.813018    0.722423
      8          1           0        1.219440    0.743700    0.848528
 ---------------------------------------------------------------------

 ******    1 imaginary frequencies (negative Signs) ******

                      1                      2                      3
                      A                      A                      A
 Frequencies --  -2010.8225                40.8059               155.2138
 Red. masses --      1.1799                14.4018                15.6993
 Frc consts  --      2.8108                 0.0141                 0.2228
 IR Inten    --    363.9653                 0.0836                 2.2674

                      4                      5                      6
                      A                      A                      A
 Frequencies --    158.4519               238.5736               391.2867
 Red. masses --     14.7985                12.8769                11.7096
 Frc consts  --      0.2189                 0.4318                 1.0563
 IR Inten    --      2.4334                59.8605                18.2968

                      7                      8                      9
                      A                      A                      A
 Frequencies --    506.1490               530.4513               612.0166
 Red. masses --     14.3629                17.3902                 6.7427
 Frc consts  --      2.1679                 2.8830                 1.4880
 IR Inten    --      4.0352                 5.3620                 7.2399

                     10                     11                     12
                      A                      A                      A
 Frequencies --    707.1768               742.1337               944.8945
 Red. masses --     11.1700                14.0313                 1.2068
 Frc consts  --      3.2912                 4.5532                 0.6348
 IR Inten    --    496.0377               106.2416                91.3980

                     13                     14                     15
                      A                      A                      A
 Frequencies --   1132.6092              1146.1702              1196.2565
 Red. masses --     12.1685                12.6722                 8.7830
 Frc consts  --      9.1970                 9.8085                 7.4053
 IR Inten    --    204.9270               310.2173               224.2998

                     16                     17                     18
                      A                      A                      A
 Frequencies --   1349.3292              2030.4907              2321.0331
 Red. masses --      8.1510                 1.2791                 3.7465
 Frc consts  --      8.7437                 3.1072                11.8917
 IR Inten    --    133.4415               184.8785               461.2953

 - Thermochemistry -
 -------------------
 Temperature   298.150 Kelvin.  Pressure   1.00000 Atm.
 Atom     1 has atomic number  6 and mass  12.00000

 Molecular mass:   113.99286 amu.
 Principal axes and moments of inertia in atomic units:
                           1         2         3
     Eigenvalues --   457.85986 898.076381040.15746
           X            0.97249   0.20884  -0.10323
           Y           -0.00931   0.47763   0.87851
           Z           -0.23277   0.85338  -0.46644
 This molecule is an asymmetric top.
 Rotational symmetry number  1.
 Warning -- assumption of classical behavior for rotation
           may cause significant error
 Rotational temperatures (Kelvin)      0.18917     0.09644     0.08327
 Rotational constants (GHZ):           3.94169     2.00956     1.73507
    1 imaginary frequencies ignored.
 Zero-point vibrational energy      84953.1 (Joules/Mol)
                                   20.30427 (Kcal/Mol)
 Warning -- explicit consideration of   8 degrees of freedom as
           vibrations may cause significant error
 Vibrational temperatures:     58.71   223.32   227.98   343.25   562.97
          (Kelvin)            728.24   763.20   880.56  1017.47  1067.76
                             1359.49  1629.57  1649.08  1721.15  1941.38
                             2921.42  3339.45

 Zero-point correction=                           0.032357 (Hartree/Particle)
 Thermal correction to Energy=                    0.039025
 Thermal correction to Enthalpy=                  0.039969
 Thermal correction to Gibbs Free Energy=         0.000359
 Sum of electronic and zero-point Energies=           -526.695038
 Sum of electronic and thermal Energies=              -526.688370
 Sum of electronic and thermal Enthalpies=            -526.687426
 Sum of electronic and thermal Free Energies=         -526.727036

                     E (Thermal)             CV                S
                      KCal/Mol        Cal/Mol-Kelvin    Cal/Mol-Kelvin
 Total                   24.488             21.279             83.367
 Electronic               0.000              0.000              0.000
 Translational            0.889              2.981             40.108
 Rotational               0.889              2.981             27.550
 Vibrational             22.711             15.317             15.709
 Vibration     1          0.594              1.981              5.220
 Vibration     2          0.620              1.897              2.607
 Vibration     3          0.621              1.893              2.568
 Vibration     4          0.657              1.782              1.813
 Vibration     5          0.759              1.489              0.995
 Vibration     6          0.861              1.236              0.643
 Vibration     7          0.885              1.183              0.586
 Vibration     8          0.971              1.006              0.429

 Normal termination of Gaussian 16 at Sun May 25 04:34:34 2025.
