 Gaussian 16, Revision C.01,
 Gaussian 16:  ES64L-G16RevC.01  3-Jul-2019

 -----------------------------------------------------------------
 #P M062X/Def2TZVPP Symm(None) scf(xqc) pop(None) freq opt(CalcFC)
 -----------------------------------------------------------------

 ------------------------------
 Gaussian input prepared by ASE
 ------------------------------
 Symbolic Z-matrix:
 Charge =  0 Multiplicity = 1

 SCF Done:  E(RM062X) =  -526.736667616     A.U. after   14 cycles
 SCF Done:  E(RM062X) =  -526.764831731     A.U. after   16 cycles
 SCF Done:  E(RM062X) =  -526.775512716     A.U. after   14 cycles
 SCF Done:  E(RM062X) =  -526.777671067     A.U. after   14 cycles
 SCF Done:  E(RM062X) =  -526.777477770     A.U. after   15 cycles
 SCF Done:  E(RM062X) =  -526.778761397     A.U. after   14 cycles
 SCF Done:  E(RM062X) =  -526.779971188     A.U. after   13 cycles
 SCF Done:  E(RM062X) =  -526.780523696     A.U. after   11 cycles
 SCF Done:  E(RM062X) =  -526.781064920     A.U. after   13 cycles
 SCF Done:  E(RM062X) =  -526.781129349     A.U. after   11 cycles
 SCF Done:  E(RM062X) =  -526.781136139     A.U. after   11 cycles
 SCF Done:  E(RM062X) =  -526.781142291     A.U. after    8 cycles
 Optimization completed.
    -- Stationary point found.
 Normal termination of Gaussian 16 at Sun May 25 04:29:37 2025.

 ---------------------------------------------------------------------
 #P Geom=AllCheck Guess=TCheck SCRF=Check GenChk RM062X/def2TZVPP Freq
 ---------------------------------------------------------------------

 Structure from the checkpoint file:  "/tmp/Gau-143595.chk"
 ------------------------------
 Gaussian input prepared by ASE
 ------------------------------
 Charge =  0 Multiplicity = 1

                          Input orientation:
 ---------------------------------------------------------------------
 Center     Atomic      Atomic             Coordinates (Angstroms)
 Number     Number       Type             X           Y           Z
 ---------------------------------------------------------------------
      1          6           0        1.079755    0.243769   -0.614596
      2          8           0       -0.140255    0.057304   -0.092145
      3          6           0       -0.606087    0.665748    1.062808
      4          9           0       -0.633236    1.983032    0.949662
      5          9           0       -1.837716    0.232890    1.244834
      6          9           0        0.118150    0.337774    2.119591
      7          8           0        1.740435    1.082678    0.141506
      8          1           0        2.611894    1.203210   -0.249703
 ---------------------------------------------------------------------

 SCF Done:  E(RM062X) =  -526.781142291     A.U. after    1 cycles

 Isotropic polarizability for W=    0.000000       34.07 Bohr**3.
 End of Minotr F.D. properties file   721 does not exist.

                      1                      2                      3
                      A                      A                      A
 Frequencies --    115.2741               217.0067               237.5161
 Red. masses --     10.0925                 9.2003                11.4326
 Frc consts  --      0.0790                 0.2553                 0.3800
 IR Inten    --      3.3582                 2.1097                 0.2269

                      4                      5                      6
                      A                      A                      A
 Frequencies --    384.7537               454.9646               559.1947
 Red. masses --     13.6136                12.1182                13.4099
 Frc consts  --      1.1874                 1.4779                 2.4706
 IR Inten    --      0.6132                 1.4457                 4.8823

                      7                      8                      9
                      A                      A                      A
 Frequencies --    586.8620               631.1206               733.9421
 Red. masses --     12.0934                 8.3053                 1.2475
 Frc consts  --      2.4540                 1.9491                 0.3959
 IR Inten    --     10.4720                21.6912                75.0793

                     10                     11                     12
                      A                      A                      A
 Frequencies --    806.9032               887.3275              1114.9125
 Red. masses --      7.3876                16.9216                 3.6435
 Frc consts  --      2.8340                 7.8498                 2.6684
 IR Inten    --     25.6325                 1.5969               359.4248

                     13                     14                     15
                      A                      A                      A
 Frequencies --   1186.3595              1297.0411              1308.2965
 Red. masses --      4.6792                13.0585                11.8266
 Frc consts  --      3.8802                12.9434                11.9267
 IR Inten    --    294.4860               375.3307               190.0678

                     16                     17                     18
                      A                      A                      A
 Frequencies --   1367.6730              1372.5047              3869.2011
 Red. masses --      6.9170                 2.4690                 1.0667
 Frc consts  --      7.6232                 2.7403                 9.4091
 IR Inten    --    430.6998               189.5059               196.2079

 - Thermochemistry -
 -------------------
 Temperature   298.150 Kelvin.  Pressure   1.00000 Atm.
 Atom     1 has atomic number  6 and mass  12.00000

 Molecular mass:   113.99286 amu.
 Principal axes and moments of inertia in atomic units:
                           1         2         3
     Eigenvalues --   360.60465 787.67689 833.47025
           X            0.86615   0.35797  -0.34876
           Y            0.04164   0.64373   0.76412
           Z           -0.49804   0.67637  -0.54266
 This molecule is an asymmetric top.
 Rotational symmetry number  1.
 Rotational temperatures (Kelvin)      0.24019     0.10996     0.10392
 Rotational constants (GHZ):           5.00476     2.29122     2.16533
 Zero-point vibrational energy     102465.3 (Joules/Mol)
                                   24.48978 (Kcal/Mol)
 Warning -- explicit consideration of   7 degrees of freedom as
           vibrations may cause significant error
 Vibrational temperatures:    165.85   312.22   341.73   553.57   654.59
          (Kelvin)            804.56   844.36   908.04  1055.98  1160.95
                             1276.67  1604.11  1706.91  1866.15  1882.35
                             1967.78  1974.73  5566.92

 Zero-point correction=                           0.039027 (Hartree/Particle)
 Thermal correction to Energy=                    0.044996
 Thermal correction to Enthalpy=                  0.045940
 Thermal correction to Gibbs Free Energy=         0.008848
 Sum of electronic and zero-point Energies=           -526.742115
 Sum of electronic and thermal Energies=              -526.736146
 Sum of electronic and thermal Enthalpies=            -526.735202
 Sum of electronic and thermal Free Energies=         -526.772294

                     E (Thermal)             CV                S
                      KCal/Mol        Cal/Mol-Kelvin    Cal/Mol-Kelvin
 Total                   28.235             20.427             78.067
 Electronic               0.000              0.000              0.000
 Translational            0.889              2.981             40.108
 Rotational               0.889              2.981             26.962
 Vibrational             26.458             14.466             10.996
 Vibration     1          0.608              1.937              3.178
 Vibration     2          0.646              1.815              1.984
 Vibration     3          0.656              1.783              1.821
 Vibration     4          0.754              1.503              1.020
 Vibration     5          0.813              1.350              0.781
 Vibration     6          0.915              1.120              0.525
 Vibration     7          0.944              1.060              0.473

 Optimization completed.
    -- Stationary point found.
 Normal termination of Gaussian 16 at Sun May 25 04:30:49 2025.
