 Gaussian 16, Revision C.01,
 Gaussian 16:  ES64L-G16RevC.01  3-Jul-2019

 ----------------------------------------------------------------------
 #P M062X/Def2TZVPP Symm(None) scf(xqc) pop(None) opt(NoFreeze,TS,CalcA
 ll,NoEigentest,MaxCycle=999)
 ----------------------------------------------------------------------

 ------------------------------
 Gaussian input prepared by ASE
 ------------------------------
 Symbolic Z-matrix:
 Charge =  0 Multiplicity = 1

 SCF Done:  E(RM062X) =  -526.724688768     A.U. after   15 cycles
 SCF Done:  E(RM062X) =  -526.724688829     A.U. after    8 cycles

 Isotropic polarizability for W=    0.000000       36.16 Bohr**3.
 End of Minotr F.D. properties file   721 does not exist.

 Optimization completed.
    -- Stationary point found.

                          Input orientation:
 ---------------------------------------------------------------------
 Center     Atomic      Atomic             Coordinates (Angstroms)
 Number     Number       Type             X           Y           Z
 ---------------------------------------------------------------------
      1          6           0        1.767594   -0.000106   -0.000120
      2          8           0        2.249950   -0.890217   -0.607367
      3          6           0        0.000076    0.000091   -0.000010
      4          9           0        1.352097   -0.269292    1.476667
      5          9           0       -0.759194    0.902353    0.482013
      6          9           0       -0.626676   -1.092721   -0.090823
      7          8           0        2.174661    1.280711    0.000423
      8          1           0        1.940738    1.697689    0.836273
 ---------------------------------------------------------------------

 ******    1 imaginary frequencies (negative Signs) ******

                      1                      2                      3
                      A                      A                      A
 Frequencies --   -431.8252               109.8460               142.5485
 Red. masses --     13.6745                14.8353                12.0826
 Frc consts  --      1.5024                 0.1055                 0.1447
 IR Inten    --     24.7909                 1.7467                33.2949

                      4                      5                      6
                      A                      A                      A
 Frequencies --    162.9021               332.3495               368.7326
 Red. masses --     10.4222                 2.2450                 2.4581
 Frc consts  --      0.1630                 0.1461                 0.1969
 IR Inten    --      1.8215                54.7152                65.9156

                      7                      8                      9
                      A                      A                      A
 Frequencies --    412.7560               508.7793               577.0610
 Red. masses --      6.0361                 6.1701                11.7848
 Frc consts  --      0.6059                 0.9410                 2.3121
 IR Inten    --     21.5490                22.6219                35.0781

                     10                     11                     12
                      A                      A                      A
 Frequencies --    662.8666               713.8074               736.8327
 Red. masses --     10.1537                14.1852                12.8689
 Frc consts  --      2.6286                 4.2584                 4.1165
 IR Inten    --    168.4022                23.3693               238.3343

                     13                     14                     15
                      A                      A                      A
 Frequencies --   1093.9834              1267.9356              1374.9551
 Red. masses --      7.5772                 1.3601                10.9911
 Frc consts  --      5.3429                 1.2883                12.2425
 IR Inten    --    273.5483               279.8027               237.4089

                     16                     17                     18
                      A                      A                      A
 Frequencies --   1415.6442              1905.5465              3866.7277
 Red. masses --     12.8934                11.1098                 1.0656
 Frc consts  --     15.2239                23.7683                 9.3867
 IR Inten    --    189.9315               589.0018               103.0009

 - Thermochemistry -
 -------------------
 Temperature   298.150 Kelvin.  Pressure   1.00000 Atm.
 Atom     1 has atomic number  6 and mass  12.00000

 Molecular mass:   113.99286 amu.
 Principal axes and moments of inertia in atomic units:
                           1         2         3
     Eigenvalues --   450.61981 775.74830 933.51586
           X            0.99361  -0.06395   0.09302
           Y            0.09083   0.94224  -0.32239
           Z           -0.06703   0.32878   0.94202
 This molecule is an asymmetric top.
 Rotational symmetry number  1.
 Warning -- assumption of classical behavior for rotation
           may cause significant error
 Rotational temperatures (Kelvin)      0.19221     0.11165     0.09278
 Rotational constants (GHZ):           4.00502     2.32645     1.93327
    1 imaginary frequencies ignored.
 Zero-point vibrational energy      93627.4 (Joules/Mol)
                                   22.37748 (Kcal/Mol)
 Warning -- explicit consideration of   8 degrees of freedom as
           vibrations may cause significant error
 Vibrational temperatures:    158.04   205.10   234.38   478.18   530.52
          (Kelvin)            593.86   732.02   830.26   953.72  1027.01
                             1060.14  1574.00  1824.28  1978.25  2036.80
                             2741.66  5563.36

 Zero-point correction=                           0.035661 (Hartree/Particle)
 Thermal correction to Energy=                    0.042286
 Thermal correction to Enthalpy=                  0.043230
 Thermal correction to Gibbs Free Energy=         0.004570
 Sum of electronic and zero-point Energies=           -526.689028
 Sum of electronic and thermal Energies=              -526.682403
 Sum of electronic and thermal Enthalpies=            -526.681459
 Sum of electronic and thermal Free Energies=         -526.720119

                     E (Thermal)             CV                S
                      KCal/Mol        Cal/Mol-Kelvin    Cal/Mol-Kelvin
 Total                   26.535             21.751             81.367
 Electronic               0.000              0.000              0.000
 Translational            0.889              2.981             40.108
 Rotational               0.889              2.981             27.281
 Vibrational             24.757             15.789             13.977
 Vibration     1          0.606              1.941              3.272
 Vibration     2          0.616              1.911              2.769
 Vibration     3          0.623              1.888              2.516
 Vibration     4          0.714              1.611              1.249
 Vibration     5          0.741              1.537              1.085
 Vibration     6          0.777              1.443              0.917
 Vibration     7          0.864              1.231              0.637
 Vibration     8          0.934              1.081              0.491

 Normal termination of Gaussian 16 at Sun May 25 04:28:18 2025.
