 Gaussian 16, Revision C.01,
 Gaussian 16:  ES64L-G16RevC.01  3-Jul-2019

 -----------------------------------------------------------------
 #P M062X/Def2TZVPP Symm(None) scf(xqc) pop(None) freq opt(CalcFC)
 -----------------------------------------------------------------

 ------------------------------
 Gaussian input prepared by ASE
 ------------------------------
 Symbolic Z-matrix:
 Charge =  0 Multiplicity = 1

 SCF Done:  E(RM062X) =  -526.597651228     A.U. after   18 cycles
 SCF Done:  E(RM062X) =  -526.634702910     A.U. after   17 cycles
 SCF Done:  E(RM062X) =  -526.637730040     A.U. after   17 cycles
 SCF Done:  E(RM062X) =  -526.639429570     A.U. after   15 cycles
 SCF Done:  E(RM062X) =  -526.644432423     A.U. after   18 cycles
 SCF Done:  E(RM062X) =  -526.572535104     A.U. after   18 cycles
 SCF Done:  E(RM062X) =  -526.645739398     A.U. after   17 cycles
 SCF Done:  E(RM062X) =  -526.648455836     A.U. after   16 cycles
 SCF Done:  E(RM062X) =  -526.648970473     A.U. after   14 cycles
 SCF Done:  E(RM062X) =  -526.649457021     A.U. after   13 cycles
 SCF Done:  E(RM062X) =  -526.649642272     A.U. after   14 cycles
 SCF Done:  E(RM062X) =  -526.649694899     A.U. after   13 cycles
 SCF Done:  E(RM062X) =  -526.649723145     A.U. after   12 cycles
 SCF Done:  E(RM062X) =  -526.649739946     A.U. after   12 cycles
 SCF Done:  E(RM062X) =  -526.649747210     A.U. after   10 cycles
 SCF Done:  E(RM062X) =  -526.649750522     A.U. after   10 cycles
 SCF Done:  E(RM062X) =  -526.649751622     A.U. after   10 cycles
 SCF Done:  E(RM062X) =  -526.649751682     A.U. after    7 cycles
 Optimization completed.
    -- Stationary point found.
 Normal termination of Gaussian 16 at Sun May 25 05:09:24 2025.

 ---------------------------------------------------------------------
 #P Geom=AllCheck Guess=TCheck SCRF=Check GenChk RM062X/def2TZVPP Freq
 ---------------------------------------------------------------------

 Structure from the checkpoint file:  "/tmp/Gau-86175.chk"
 ------------------------------
 Gaussian input prepared by ASE
 ------------------------------
 Charge =  0 Multiplicity = 1

                          Input orientation:
 ---------------------------------------------------------------------
 Center     Atomic      Atomic             Coordinates (Angstroms)
 Number     Number       Type             X           Y           Z
 ---------------------------------------------------------------------
      1          6           0        2.142941    1.941403    0.407821
      2          8           0        0.908318   -0.105787    0.142825
      3          6           0        2.990550    1.092078    1.372557
      4          9           0        3.958933    1.842498    1.879572
      5          9           0        2.248446    0.643966    2.375760
      6          9           0        3.550011    0.075660    0.730648
      7          8           0        1.204554    1.431750   -0.156718
      8          1           0        0.136889   -0.196918   -0.430873
 ---------------------------------------------------------------------

 SCF Done:  E(RM062X) =  -526.649751682     A.U. after    1 cycles

 Isotropic polarizability for W=    0.000000       41.22 Bohr**3.
 End of Minotr F.D. properties file   721 does not exist.

                      1                      2                      3
                      A                      A                      A
 Frequencies --     79.5497               155.2730               200.4922
 Red. masses --     11.2274                 1.1138                10.3042
 Frc consts  --      0.0419                 0.0158                 0.2440
 IR Inten    --     10.3661               110.0506                 4.5451

                      4                      5                      6
                      A                      A                      A
 Frequencies --    246.4690               299.7221               427.5886
 Red. masses --     13.9772                13.7165                14.4218
 Frc consts  --      0.5003                 0.7260                 1.5535
 IR Inten    --      7.5957               107.8943               252.4483

                      7                      8                      9
                      A                      A                      A
 Frequencies --    496.4631               497.3481               549.4945
 Red. masses --      9.2789                14.5272                16.3985
 Frc consts  --      1.3475                 2.1172                 2.9173
 IR Inten    --     17.2016                 3.7470                 2.2902

                     10                     11                     12
                      A                      A                      A
 Frequencies --    623.8669               742.8647               854.6851
 Red. masses --     14.6408                10.3127                13.8615
 Frc consts  --      3.3574                 3.3531                 5.9659
 IR Inten    --      1.8301                19.8431                 2.1172

                     13                     14                     15
                      A                      A                      A
 Frequencies --   1213.2974              1253.7434              1262.2596
 Red. masses --      1.1832                12.5906                13.2400
 Frc consts  --      1.0262                11.6604                12.4290
 IR Inten    --     80.0433               195.8660               312.0755

                     16                     17                     18
                      A                      A                      A
 Frequencies --   1277.1666              1665.9411              3849.3660
 Red. masses --     13.0398                11.9626                 1.0684
 Frc consts  --     12.5319                19.5611                 9.3277
 IR Inten    --    361.8842               119.5855               138.4423

 - Thermochemistry -
 -------------------
 Temperature   298.150 Kelvin.  Pressure   1.00000 Atm.
 Atom     1 has atomic number  6 and mass  12.00000

 Molecular mass:   113.99286 amu.
 Principal axes and moments of inertia in atomic units:
                           1         2         3
     Eigenvalues --   380.10492 848.78675 908.43221
           X            0.80124  -0.01291  -0.59821
           Y            0.21174   0.94119   0.26329
           Z            0.55963  -0.33762   0.75685
 This molecule is an asymmetric top.
 Rotational symmetry number  1.
 Rotational temperatures (Kelvin)      0.22787     0.10204     0.09534
 Rotational constants (GHZ):           4.74801     2.12626     1.98665
 Zero-point vibrational energy      93880.5 (Joules/Mol)
                                   22.43797 (Kcal/Mol)
 Warning -- explicit consideration of   9 degrees of freedom as
           vibrations may cause significant error
 Vibrational temperatures:    114.45   223.40   288.46   354.61   431.23
          (Kelvin)            615.20   714.30   715.57   790.60   897.61
                             1068.82  1229.70  1745.66  1803.86  1816.11
                             1837.56  2396.92  5538.38

 Zero-point correction=                           0.035757 (Hartree/Particle)
 Thermal correction to Energy=                    0.042762
 Thermal correction to Enthalpy=                  0.043706
 Thermal correction to Gibbs Free Energy=         0.004358
 Sum of electronic and zero-point Energies=           -526.613994
 Sum of electronic and thermal Energies=              -526.606990
 Sum of electronic and thermal Enthalpies=            -526.606046
 Sum of electronic and thermal Free Energies=         -526.645393

                     E (Thermal)             CV                S
                      KCal/Mol        Cal/Mol-Kelvin    Cal/Mol-Kelvin
 Total                   26.833             23.201             82.814
 Electronic               0.000              0.000              0.000
 Translational            0.889              2.981             40.108
 Rotational               0.889              2.981             27.174
 Vibrational             25.056             17.240             15.532
 Vibration     1          0.600              1.963              3.902
 Vibration     2          0.620              1.897              2.607
 Vibration     3          0.638              1.839              2.129
 Vibration     4          0.661              1.769              1.756
 Vibration     5          0.692              1.674              1.418
 Vibration     6          0.789              1.410              0.867
 Vibration     7          0.852              1.258              0.667
 Vibration     8          0.853              1.256              0.665
 Vibration     9          0.905              1.141              0.545

 Optimization completed.
    -- Stationary point found.
 Normal termination of Gaussian 16 at Sun May 25 05:10:39 2025.
