 Gaussian 16, Revision C.01,
 Gaussian 16:  ES64L-G16RevC.01  3-Jul-2019

 -----------------------------------------------------------------
 #P M062X/Def2TZVPP Symm(None) scf(xqc) pop(None) freq opt(CalcFC)
 -----------------------------------------------------------------

 ------------------------------
 Gaussian input prepared by ASE
 ------------------------------
 Symbolic Z-matrix:
 Charge =  0 Multiplicity = 1

 SCF Done:  E(RM062X) =  -526.592253595     A.U. after   18 cycles
 SCF Done:  E(RM062X) =  -526.620839992     A.U. after   16 cycles
 SCF Done:  E(RM062X) =  -526.605425179     A.U. after   18 cycles
 SCF Done:  E(RM062X) =  -526.636501664     A.U. after   15 cycles
 SCF Done:  E(RM062X) =  -526.644219026     A.U. after   16 cycles
 SCF Done:  E(RM062X) =  -526.646845186     A.U. after   17 cycles
 SCF Done:  E(RM062X) =  -526.648491469     A.U. after   15 cycles
 SCF Done:  E(RM062X) =  -526.649458824     A.U. after   15 cycles
 SCF Done:  E(RM062X) =  -526.649646636     A.U. after   14 cycles
 SCF Done:  E(RM062X) =  -526.649728186     A.U. after   14 cycles
 SCF Done:  E(RM062X) =  -526.649747182     A.U. after    9 cycles
 SCF Done:  E(RM062X) =  -526.649748242     A.U. after    9 cycles
 SCF Done:  E(RM062X) =  -526.649748655     A.U. after    9 cycles
 SCF Done:  E(RM062X) =  -526.649748912     A.U. after    9 cycles
 SCF Done:  E(RM062X) =  -526.649749029     A.U. after    8 cycles
 SCF Done:  E(RM062X) =  -526.649749100     A.U. after    8 cycles
 SCF Done:  E(RM062X) =  -526.649749167     A.U. after    7 cycles
 SCF Done:  E(RM062X) =  -526.649749226     A.U. after    8 cycles
 SCF Done:  E(RM062X) =  -526.649749268     A.U. after    8 cycles
 Optimization completed.
    -- Stationary point found.
 Normal termination of Gaussian 16 at Sun May 25 05:09:41 2025.

 ---------------------------------------------------------------------
 #P Geom=AllCheck Guess=TCheck SCRF=Check GenChk RM062X/def2TZVPP Freq
 ---------------------------------------------------------------------

 Structure from the checkpoint file:  "/tmp/Gau-290688.chk"
 ------------------------------
 Gaussian input prepared by ASE
 ------------------------------
 Charge =  0 Multiplicity = 1

                          Input orientation:
 ---------------------------------------------------------------------
 Center     Atomic      Atomic             Coordinates (Angstroms)
 Number     Number       Type             X           Y           Z
 ---------------------------------------------------------------------
      1          6           0        1.151222    2.104492    0.992490
      2          8           0        0.540765   -0.103401    0.257853
      3          6           0        1.529508    1.370559    2.291903
      4          9           0        0.467151    0.778985    2.820548
      5          9           0        2.481429    0.476552    2.062591
      6          9           0        1.992066    2.248887    3.170846
      7          8           0        0.706191    1.470997    0.065464
      8          1           0        0.181572   -0.297522   -0.617266
 ---------------------------------------------------------------------

 SCF Done:  E(RM062X) =  -526.649749268     A.U. after    1 cycles

 Isotropic polarizability for W=    0.000000       41.25 Bohr**3.
 End of Minotr F.D. properties file   721 does not exist.

                      1                      2                      3
                      A                      A                      A
 Frequencies --     78.1155               152.2377               199.2283
 Red. masses --     10.8925                 1.1147                10.3170
 Frc consts  --      0.0392                 0.0152                 0.2413
 IR Inten    --     10.9529               109.8647                 5.0685

                      4                      5                      6
                      A                      A                      A
 Frequencies --    246.1810               299.3697               427.0534
 Red. masses --     14.2421                13.8229                14.3716
 Frc consts  --      0.5085                 0.7299                 1.5443
 IR Inten    --      7.3031               107.5680               253.4848

                      7                      8                      9
                      A                      A                      A
 Frequencies --    496.3627               497.3108               549.0765
 Red. masses --      9.2536                14.6570                16.4018
 Frc consts  --      1.3433                 2.1358                 2.9134
 IR Inten    --     16.6894                 3.5992                 2.2732

                     10                     11                     12
                      A                      A                      A
 Frequencies --    623.8644               742.6140               854.2151
 Red. masses --     14.6384                10.3172                13.8887
 Frc consts  --      3.3568                 3.3523                 5.9710
 IR Inten    --      1.8541                19.9310                 2.0557

                     13                     14                     15
                      A                      A                      A
 Frequencies --   1213.3829              1252.8262              1262.3234
 Red. masses --      1.1825                12.6164                13.2381
 Frc consts  --      1.0257                11.6672                12.4285
 IR Inten    --     80.3880               196.1190               311.6789

                     16                     17                     18
                      A                      A                      A
 Frequencies --   1278.5236              1667.0815              3844.7380
 Red. masses --     13.0465                11.9718                 1.0684
 Frc consts  --     12.5650                19.6031                 9.3052
 IR Inten    --    361.7103               120.5085               138.3916

 - Thermochemistry -
 -------------------
 Temperature   298.150 Kelvin.  Pressure   1.00000 Atm.
 Atom     1 has atomic number  6 and mass  12.00000

 Molecular mass:   113.99286 amu.
 Principal axes and moments of inertia in atomic units:
                           1         2         3
     Eigenvalues --   380.12991 849.01542 908.69654
           X            0.37584   0.01112   0.92662
           Y            0.31843   0.93749  -0.14041
           Z            0.87026  -0.34784  -0.34880
 This molecule is an asymmetric top.
 Rotational symmetry number  1.
 Rotational temperatures (Kelvin)      0.22785     0.10202     0.09532
 Rotational constants (GHZ):           4.74770     2.12569     1.98608
 Zero-point vibrational energy      93814.2 (Joules/Mol)
                                   22.42213 (Kcal/Mol)
 Warning -- explicit consideration of   9 degrees of freedom as
           vibrations may cause significant error
 Vibrational temperatures:    112.39   219.04   286.65   354.20   430.73
          (Kelvin)            614.43   714.16   715.52   790.00   897.60
                             1068.46  1229.02  1745.79  1802.54  1816.20
                             1839.51  2398.56  5531.72

 Zero-point correction=                           0.035732 (Hartree/Particle)
 Thermal correction to Energy=                    0.042748
 Thermal correction to Enthalpy=                  0.043693
 Thermal correction to Gibbs Free Energy=         0.004301
 Sum of electronic and zero-point Energies=           -526.614017
 Sum of electronic and thermal Energies=              -526.607001
 Sum of electronic and thermal Enthalpies=            -526.606057
 Sum of electronic and thermal Free Energies=         -526.645449

                     E (Thermal)             CV                S
                      KCal/Mol        Cal/Mol-Kelvin    Cal/Mol-Kelvin
 Total                   26.825             23.212             82.907
 Electronic               0.000              0.000              0.000
 Translational            0.889              2.981             40.108
 Rotational               0.889              2.981             27.175
 Vibrational             25.048             17.250             15.624
 Vibration     1          0.599              1.964              3.938
 Vibration     2          0.619              1.900              2.644
 Vibration     3          0.637              1.841              2.140
 Vibration     4          0.661              1.769              1.758
 Vibration     5          0.692              1.675              1.420
 Vibration     6          0.789              1.411              0.868
 Vibration     7          0.852              1.258              0.667
 Vibration     8          0.853              1.256              0.665
 Vibration     9          0.904              1.142              0.546

 Optimization completed.
    -- Stationary point found.
 Normal termination of Gaussian 16 at Sun May 25 05:10:47 2025.
