 Gaussian 16, Revision C.01,
 Gaussian 16:  ES64L-G16RevC.01  3-Jul-2019

 ----------------------------------------------------------------------
 #P M062X/Def2TZVPP Symm(None) scf(xqc) pop(None) opt(NoFreeze,TS,CalcA
 ll,NoEigentest,MaxCycle=999)
 ----------------------------------------------------------------------

 ------------------------------
 Gaussian input prepared by ASE
 ------------------------------
 Symbolic Z-matrix:
 Charge =  0 Multiplicity = 1

 SCF Done:  E(RM062X) =  -526.724212245     A.U. after   15 cycles
 SCF Done:  E(RM062X) =  -526.727663190     A.U. after   14 cycles
 SCF Done:  E(RM062X) =  -526.728354148     A.U. after   13 cycles
 SCF Done:  E(RM062X) =  -526.728361719     A.U. after   10 cycles

 Isotropic polarizability for W=    0.000000       35.71 Bohr**3.
 End of Minotr F.D. properties file   721 does not exist.

 Optimization completed.
    -- Stationary point found.

                          Input orientation:
 ---------------------------------------------------------------------
 Center     Atomic      Atomic             Coordinates (Angstroms)
 Number     Number       Type             X           Y           Z
 ---------------------------------------------------------------------
      1          6           0        1.770134   -0.035282    0.112637
      2          8           0        2.305117   -0.894509   -0.526222
      3          6           0        0.051307    0.029809    0.006305
      4          9           0        1.366195   -0.363701    1.509416
      5          9           0       -0.696989    0.946006    0.454613
      6          9           0       -0.608040   -1.026229   -0.198153
      7          8           0        2.154984    1.266762    0.167449
      8          1           0        2.943852    1.328351   -0.382701
 ---------------------------------------------------------------------

 ******    1 imaginary frequencies (negative Signs) ******

                      1                      2                      3
                      A                      A                      A
 Frequencies --   -363.4320               101.7693               143.7203
 Red. masses --      9.8707                15.3079                15.9098
 Frc consts  --      0.7681                 0.0934                 0.1936
 IR Inten    --      7.2635                 0.6462                48.8890

                      4                      5                      6
                      A                      A                      A
 Frequencies --    162.2592               299.9976               403.4724
 Red. masses --     15.5246                 2.6089                 2.1481
 Frc consts  --      0.2408                 0.1383                 0.2060
 IR Inten    --      0.4213                46.9117                27.7919

                      7                      8                      9
                      A                      A                      A
 Frequencies --    450.7273               540.3650               605.5990
 Red. masses --      4.6381                11.1791                11.0355
 Frc consts  --      0.5552                 1.9232                 2.3846
 IR Inten    --     22.2388                 8.7084                 6.3897

                     10                     11                     12
                      A                      A                      A
 Frequencies --    675.3360               730.3730               787.1713
 Red. masses --      6.6929                 9.4484                12.3556
 Frc consts  --      1.7985                 2.9696                 4.5108
 IR Inten    --    204.3542                53.5546               252.0214

                     13                     14                     15
                      A                      A                      A
 Frequencies --   1083.5533              1309.4009              1412.3050
 Red. masses --      8.1905                 1.4576                10.2658
 Frc consts  --      5.6658                 1.4724                12.0642
 IR Inten    --    392.9805                94.9967               110.5031

                     16                     17                     18
                      A                      A                      A
 Frequencies --   1431.6086              1790.6377              3861.7569
 Red. masses --     13.1533                11.5150                 1.0653
 Frc consts  --     15.8831                21.7536                 9.3606
 IR Inten    --    278.0843               636.4122               123.5788

 - Thermochemistry -
 -------------------
 Temperature   298.150 Kelvin.  Pressure   1.00000 Atm.
 Atom     1 has atomic number  6 and mass  12.00000

 Molecular mass:   113.99286 amu.
 Principal axes and moments of inertia in atomic units:
                           1         2         3
     Eigenvalues --   447.67253 772.41983 921.59724
           X            0.99873  -0.04504   0.02242
           Y            0.04978   0.94945  -0.30995
           Z           -0.00733   0.31067   0.95049
 This molecule is an asymmetric top.
 Rotational symmetry number  1.
 Warning -- assumption of classical behavior for rotation
           may cause significant error
 Rotational temperatures (Kelvin)      0.19348     0.11213     0.09398
 Rotational constants (GHZ):           4.03139     2.33648     1.95828
    1 imaginary frequencies ignored.
 Zero-point vibrational energy      94445.5 (Joules/Mol)
                                   22.57301 (Kcal/Mol)
 Warning -- explicit consideration of   8 degrees of freedom as
           vibrations may cause significant error
 Vibrational temperatures:    146.42   206.78   233.45   431.63   580.51
          (Kelvin)            648.50   777.46   871.32   971.66  1050.84
                             1132.56  1558.99  1883.94  2031.99  2059.77
                             2576.33  5556.21

 Zero-point correction=                           0.035972 (Hartree/Particle)
 Thermal correction to Energy=                    0.042514
 Thermal correction to Enthalpy=                  0.043458
 Thermal correction to Gibbs Free Energy=         0.004885
 Sum of electronic and zero-point Energies=           -526.692389
 Sum of electronic and thermal Energies=              -526.685848
 Sum of electronic and thermal Enthalpies=            -526.684904
 Sum of electronic and thermal Free Energies=         -526.723477

                     E (Thermal)             CV                S
                      KCal/Mol        Cal/Mol-Kelvin    Cal/Mol-Kelvin
 Total                   26.678             21.366             81.184
 Electronic               0.000              0.000              0.000
 Translational            0.889              2.981             40.108
 Rotational               0.889              2.981             27.257
 Vibrational             24.900             15.404             13.818
 Vibration     1          0.604              1.948              3.420
 Vibration     2          0.616              1.909              2.754
 Vibration     3          0.622              1.889              2.523
 Vibration     4          0.693              1.674              1.417
 Vibration     5          0.769              1.463              0.950
 Vibration     6          0.810              1.359              0.794
 Vibration     7          0.895              1.161              0.565
 Vibration     8          0.964              1.020              0.440

 Normal termination of Gaussian 16 at Sun May 25 04:30:50 2025.
