 Gaussian 16, Revision C.01,
 Gaussian 16:  ES64L-G16RevC.01  3-Jul-2019

 -----------------------------------------------------------------
 #P M062X/Def2TZVPP Symm(None) scf(xqc) pop(None) freq opt(CalcFC)
 -----------------------------------------------------------------

 ------------------------------
 Gaussian input prepared by ASE
 ------------------------------
 Symbolic Z-matrix:
 Charge =  0 Multiplicity = 1

 SCF Done:  E(RM062X) =  -526.589108456     A.U. after   18 cycles
 SCF Done:  E(RM062X) =  -526.622990315     A.U. after   16 cycles
 SCF Done:  E(RM062X) =  -526.638074361     A.U. after   17 cycles
 SCF Done:  E(RM062X) =  -526.645652155     A.U. after   16 cycles
 SCF Done:  E(RM062X) =  -526.647329714     A.U. after   15 cycles
 SCF Done:  E(RM062X) =  -526.647956985     A.U. after   14 cycles
 SCF Done:  E(RM062X) =  -526.648241589     A.U. after   14 cycles
 SCF Done:  E(RM062X) =  -526.648401420     A.U. after   13 cycles
 SCF Done:  E(RM062X) =  -526.648527631     A.U. after   13 cycles
 SCF Done:  E(RM062X) =  -526.648643885     A.U. after   14 cycles
 SCF Done:  E(RM062X) =  -526.649546863     A.U. after   12 cycles
 SCF Done:  E(RM062X) =  -526.649622943     A.U. after   12 cycles
 SCF Done:  E(RM062X) =  -526.649665072     A.U. after   12 cycles
 SCF Done:  E(RM062X) =  -526.649693694     A.U. after   12 cycles
 SCF Done:  E(RM062X) =  -526.649721044     A.U. after   12 cycles
 SCF Done:  E(RM062X) =  -526.649739523     A.U. after   12 cycles
 SCF Done:  E(RM062X) =  -526.649747864     A.U. after   10 cycles
 SCF Done:  E(RM062X) =  -526.649752106     A.U. after   10 cycles
 SCF Done:  E(RM062X) =  -526.649752591     A.U. after    9 cycles
 Optimization completed.
    -- Stationary point found.
 Normal termination of Gaussian 16 at Sun May 25 05:10:58 2025.

 ---------------------------------------------------------------------
 #P Geom=AllCheck Guess=TCheck SCRF=Check GenChk RM062X/def2TZVPP Freq
 ---------------------------------------------------------------------

 Structure from the checkpoint file:  "/tmp/Gau-109334.chk"
 ------------------------------
 Gaussian input prepared by ASE
 ------------------------------
 Charge =  0 Multiplicity = 1

                          Input orientation:
 ---------------------------------------------------------------------
 Center     Atomic      Atomic             Coordinates (Angstroms)
 Number     Number       Type             X           Y           Z
 ---------------------------------------------------------------------
      1          6           0        0.465639    2.181276    0.530175
      2          8           0        0.525835   -0.173995    0.045317
      3          6           0       -0.969315    1.864831    0.989855
      4          9           0       -1.545756    2.978535    1.420359
      5          9           0       -1.688394    1.392025   -0.018806
      6          9           0       -0.958677    0.993533    1.989154
      7          8           0        1.157861    1.288908    0.102062
      8          1           0        1.290400   -0.624263   -0.335813
 ---------------------------------------------------------------------

 SCF Done:  E(RM062X) =  -526.649752591     A.U. after    1 cycles

 Isotropic polarizability for W=    0.000000       41.22 Bohr**3.
 End of Minotr F.D. properties file   721 does not exist.

                      1                      2                      3
                      A                      A                      A
 Frequencies --     80.1744               161.6242               199.6151
 Red. masses --     12.9256                 1.1002                10.3316
 Frc consts  --      0.0490                 0.0169                 0.2426
 IR Inten    --      7.6187               112.5969                 4.5804

                      4                      5                      6
                      A                      A                      A
 Frequencies --    246.2990               300.1213               427.2523
 Red. masses --     13.8135                13.7372                14.3915
 Frc consts  --      0.4937                 0.7290                 1.5478
 IR Inten    --      7.8811               107.0235               253.4334

                      7                      8                      9
                      A                      A                      A
 Frequencies --    496.5608               497.4543               549.4346
 Red. masses --      9.3284                14.4019                16.4111
 Frc consts  --      1.3552                 2.0998                 2.9189
 IR Inten    --     16.3363                 4.0701                 2.2961

                     10                     11                     12
                      A                      A                      A
 Frequencies --    623.9135               742.8357               854.6709
 Red. masses --     14.6257                10.3345                13.8885
 Frc consts  --      3.3544                 3.3599                 5.9773
 IR Inten    --      1.8176                19.8802                 2.1461

                     13                     14                     15
                      A                      A                      A
 Frequencies --   1213.7399              1254.0806              1262.1387
 Red. masses --      1.1822                12.6353                13.2400
 Frc consts  --      1.0261                11.7081                12.4266
 IR Inten    --     80.0912               192.9786               311.5061

                     16                     17                     18
                      A                      A                      A
 Frequencies --   1278.5453              1668.7451              3846.2976
 Red. masses --     13.0385                11.9827                 1.0684
 Frc consts  --     12.5577                19.6601                 9.3128
 IR Inten    --    365.7174               120.6214               138.2808

 - Thermochemistry -
 -------------------
 Temperature   298.150 Kelvin.  Pressure   1.00000 Atm.
 Atom     1 has atomic number  6 and mass  12.00000

 Molecular mass:   113.99286 amu.
 Principal axes and moments of inertia in atomic units:
                           1         2         3
     Eigenvalues --   380.12760 848.87187 908.55631
           X            0.72911   0.59559   0.33713
           Y           -0.57066   0.80101  -0.18093
           Z           -0.37781  -0.06047   0.92391
 This molecule is an asymmetric top.
 Rotational symmetry number  1.
 Rotational temperatures (Kelvin)      0.22785     0.10203     0.09533
 Rotational constants (GHZ):           4.74772     2.12605     1.98638
 Zero-point vibrational energy      93927.8 (Joules/Mol)
                                   22.44929 (Kcal/Mol)
 Warning -- explicit consideration of   9 degrees of freedom as
           vibrations may cause significant error
 Vibrational temperatures:    115.35   232.54   287.20   354.37   431.81
          (Kelvin)            614.72   714.44   715.73   790.51   897.67
                             1068.77  1229.68  1746.30  1804.34  1815.94
                             1839.54  2400.95  5533.96

 Zero-point correction=                           0.035775 (Hartree/Particle)
 Thermal correction to Energy=                    0.042769
 Thermal correction to Enthalpy=                  0.043713
 Thermal correction to Gibbs Free Energy=         0.004405
 Sum of electronic and zero-point Energies=           -526.613977
 Sum of electronic and thermal Energies=              -526.606984
 Sum of electronic and thermal Enthalpies=            -526.606040
 Sum of electronic and thermal Free Energies=         -526.645348

                     E (Thermal)             CV                S
                      KCal/Mol        Cal/Mol-Kelvin    Cal/Mol-Kelvin
 Total                   26.838             23.193             82.731
 Electronic               0.000              0.000              0.000
 Translational            0.889              2.981             40.108
 Rotational               0.889              2.981             27.174
 Vibrational             25.060             17.232             15.448
 Vibration     1          0.600              1.963              3.887
 Vibration     2          0.622              1.889              2.531
 Vibration     3          0.638              1.840              2.137
 Vibration     4          0.661              1.769              1.757
 Vibration     5          0.693              1.673              1.416
 Vibration     6          0.789              1.411              0.868
 Vibration     7          0.852              1.258              0.667
 Vibration     8          0.853              1.256              0.665
 Vibration     9          0.905              1.141              0.545

 Optimization completed.
    -- Stationary point found.
 Normal termination of Gaussian 16 at Sun May 25 05:12:11 2025.
