 Gaussian 16, Revision C.01,
 Gaussian 16:  ES64L-G16RevC.01  3-Jul-2019

 -----------------------------------------------------------------
 #P M062X/Def2TZVPP Symm(None) scf(xqc) pop(None) freq opt(CalcFC)
 -----------------------------------------------------------------

 ------------------------------
 Gaussian input prepared by ASE
 ------------------------------
 Symbolic Z-matrix:
 Charge =  0 Multiplicity = 1

 SCF Done:  E(RM062X) =  -526.589886109     A.U. after   18 cycles
 SCF Done:  E(RM062X) =  -526.623453359     A.U. after   16 cycles
 SCF Done:  E(RM062X) =  -526.586298169     A.U. after   19 cycles
 SCF Done:  E(RM062X) =  -526.625870753     A.U. after   17 cycles
 SCF Done:  E(RM062X) =  -526.595297516     A.U. after   18 cycles
 SCF Done:  E(RM062X) =  -526.634047730     A.U. after   15 cycles
 SCF Done:  E(RM062X) =  -526.635005991     A.U. after   15 cycles
 SCF Done:  E(RM062X) =  -526.638888473     A.U. after   16 cycles
 SCF Done:  E(RM062X) =  -526.639612213     A.U. after   15 cycles
 SCF Done:  E(RM062X) =  -526.639847503     A.U. after   14 cycles
 SCF Done:  E(RM062X) =  -526.649385218     A.U. after   11 cycles
 SCF Done:  E(RM062X) =  -526.649557582     A.U. after   14 cycles
 SCF Done:  E(RM062X) =  -526.649623736     A.U. after   13 cycles
 SCF Done:  E(RM062X) =  -526.649712123     A.U. after   14 cycles
 SCF Done:  E(RM062X) =  -526.649742477     A.U. after   13 cycles
 SCF Done:  E(RM062X) =  -526.649750157     A.U. after   10 cycles
 SCF Done:  E(RM062X) =  -526.649753815     A.U. after   10 cycles
 SCF Done:  E(RM062X) =  -526.649755111     A.U. after    9 cycles
 SCF Done:  E(RM062X) =  -526.649755318     A.U. after    9 cycles
 Optimization completed.
    -- Stationary point found.
 Normal termination of Gaussian 16 at Sun May 25 05:12:38 2025.

 ---------------------------------------------------------------------
 #P Geom=AllCheck Guess=TCheck SCRF=Check GenChk RM062X/def2TZVPP Freq
 ---------------------------------------------------------------------

 Structure from the checkpoint file:  "/tmp/Gau-86176.chk"
 ------------------------------
 Gaussian input prepared by ASE
 ------------------------------
 Charge =  0 Multiplicity = 1

                          Input orientation:
 ---------------------------------------------------------------------
 Center     Atomic      Atomic             Coordinates (Angstroms)
 Number     Number       Type             X           Y           Z
 ---------------------------------------------------------------------
      1          6           0        0.544532    1.422639   -1.455535
      2          8           0        0.457381    0.473228    0.752934
      3          6           0       -0.951005    1.687647   -1.203185
      4          9           0       -1.473336    2.287890   -2.263757
      5          9           0       -1.601073    0.547789   -1.012913
      6          9           0       -1.114222    2.484856   -0.156462
      7          8           0        1.200016    0.880311   -0.598183
      8          1           0        1.218154    0.078575    1.197951
 ---------------------------------------------------------------------

 SCF Done:  E(RM062X) =  -526.649755318     A.U. after    1 cycles

 Isotropic polarizability for W=    0.000000       41.25 Bohr**3.
 End of Minotr F.D. properties file   721 does not exist.

                      1                      2                      3
                      A                      A                      A
 Frequencies --     74.6299               141.0993               201.4237
 Red. masses --      7.2539                 1.1741                10.3512
 Frc consts  --      0.0238                 0.0138                 0.2474
 IR Inten    --     19.9855               100.9546                 4.7064

                      4                      5                      6
                      A                      A                      A
 Frequencies --    246.3688               298.9367               426.9794
 Red. masses --     14.3712                13.7483                14.3715
 Frc consts  --      0.5139                 0.7239                 1.5437
 IR Inten    --      7.0552               109.1426               252.9342

                      7                      8                      9
                      A                      A                      A
 Frequencies --    496.3287               497.2759               549.0757
 Red. masses --      9.2694                14.6629                16.3758
 Frc consts  --      1.3454                 2.1363                 2.9088
 IR Inten    --     16.9521                 3.5994                 2.2777

                     10                     11                     12
                      A                      A                      A
 Frequencies --    623.8847               742.6299               854.5217
 Red. masses --     14.6354                10.3092                13.8879
 Frc consts  --      3.3563                 3.3498                 5.9749
 IR Inten    --      1.8426                19.9350                 2.1233

                     13                     14                     15
                      A                      A                      A
 Frequencies --   1213.4090              1253.0372              1262.4257
 Red. masses --      1.1830                12.5680                13.2417
 Frc consts  --      1.0263                11.6264                12.4338
 IR Inten    --     79.7468               200.4742               312.0641

                     16                     17                     18
                      A                      A                      A
 Frequencies --   1277.0249              1665.8765              3845.5420
 Red. masses --     13.0404                11.9652                 1.0684
 Frc consts  --     12.5297                19.5640                 9.3092
 IR Inten    --    357.6645               120.3636               138.5896

 - Thermochemistry -
 -------------------
 Temperature   298.150 Kelvin.  Pressure   1.00000 Atm.
 Atom     1 has atomic number  6 and mass  12.00000

 Molecular mass:   113.99286 amu.
 Principal axes and moments of inertia in atomic units:
                           1         2         3
     Eigenvalues --   380.12290 848.86302 908.57212
           X            0.71368  -0.66339   0.22488
           Y           -0.42467  -0.15447   0.89207
           Z            0.55706   0.73216   0.39196
 This molecule is an asymmetric top.
 Rotational symmetry number  1.
 Rotational temperatures (Kelvin)      0.22786     0.10204     0.09533
 Rotational constants (GHZ):           4.74778     2.12607     1.98635
 Zero-point vibrational energy      93730.2 (Joules/Mol)
                                   22.40206 (Kcal/Mol)
 Warning -- explicit consideration of   9 degrees of freedom as
           vibrations may cause significant error
 Vibrational temperatures:    107.38   203.01   289.80   354.47   430.10
          (Kelvin)            614.33   714.11   715.47   790.00   897.63
                             1068.48  1229.47  1745.82  1802.84  1816.35
                             1837.35  2396.82  5532.88

 Zero-point correction=                           0.035700 (Hartree/Particle)
 Thermal correction to Energy=                    0.042740
 Thermal correction to Enthalpy=                  0.043684
 Thermal correction to Gibbs Free Energy=         0.004190
 Sum of electronic and zero-point Energies=           -526.614055
 Sum of electronic and thermal Energies=              -526.607016
 Sum of electronic and thermal Enthalpies=            -526.606071
 Sum of electronic and thermal Free Energies=         -526.645566

                     E (Thermal)             CV                S
                      KCal/Mol        Cal/Mol-Kelvin    Cal/Mol-Kelvin
 Total                   26.820             23.224             83.123
 Electronic               0.000              0.000              0.000
 Translational            0.889              2.981             40.108
 Rotational               0.889              2.981             27.174
 Vibrational             25.042             17.262             15.840
 Vibration     1          0.599              1.966              4.027
 Vibration     2          0.615              1.912              2.789
 Vibration     3          0.638              1.838              2.120
 Vibration     4          0.661              1.769              1.756
 Vibration     5          0.692              1.676              1.423
 Vibration     6          0.789              1.412              0.869
 Vibration     7          0.852              1.258              0.667
 Vibration     8          0.853              1.256              0.665
 Vibration     9          0.904              1.142              0.546

 Optimization completed.
    -- Stationary point found.
 Normal termination of Gaussian 16 at Sun May 25 05:14:01 2025.
