 Gaussian 16, Revision C.01,
 Gaussian 16:  ES64L-G16RevC.01  3-Jul-2019

 -----------------------------------------------------------------
 #P M062X/Def2TZVPP Symm(None) scf(xqc) pop(None) freq opt(CalcFC)
 -----------------------------------------------------------------

 ------------------------------
 Gaussian input prepared by ASE
 ------------------------------
 Symbolic Z-matrix:
 Charge =  0 Multiplicity = 1

 SCF Done:  E(RM062X) =  -526.645311735     A.U. after   15 cycles
 SCF Done:  E(RM062X) =  -526.649892192     A.U. after   15 cycles
 SCF Done:  E(RM062X) =  -526.649853434     A.U. after   16 cycles
 SCF Done:  E(RM062X) =  -526.650548542     A.U. after   14 cycles
 SCF Done:  E(RM062X) =  -526.650589865     A.U. after   15 cycles
 SCF Done:  E(RM062X) =  -526.650640910     A.U. after   13 cycles
 SCF Done:  E(RM062X) =  -526.650644121     A.U. after   10 cycles
 SCF Done:  E(RM062X) =  -526.650644348     A.U. after   10 cycles
 SCF Done:  E(RM062X) =  -526.650644378     A.U. after    9 cycles
 Optimization completed.
    -- Stationary point found.
 Normal termination of Gaussian 16 at Sun May 25 05:07:31 2025.

 ---------------------------------------------------------------------
 #P Geom=AllCheck Guess=TCheck SCRF=Check GenChk RM062X/def2TZVPP Freq
 ---------------------------------------------------------------------

 Structure from the checkpoint file:  "/tmp/Gau-28117.chk"
 ------------------------------
 Gaussian input prepared by ASE
 ------------------------------
 Charge =  0 Multiplicity = 1

                          Input orientation:
 ---------------------------------------------------------------------
 Center     Atomic      Atomic             Coordinates (Angstroms)
 Number     Number       Type             X           Y           Z
 ---------------------------------------------------------------------
      1          6           0        0.606131    1.989576    0.851369
      2          8           0        0.831349    0.069231   -0.285199
      3          6           0        1.048097    3.464430    0.852358
      4          9           0        1.674323    3.702401    2.000744
      5          9           0        1.856627    3.832688   -0.139099
      6          9           0       -0.045073    4.218597    0.790458
      7          8           0        1.145391    1.453162   -0.141905
      8          1           0        0.248150   -0.067784    0.484727
 ---------------------------------------------------------------------

 SCF Done:  E(RM062X) =  -526.650644378     A.U. after    1 cycles

 Isotropic polarizability for W=    0.000000       37.45 Bohr**3.
 End of Minotr F.D. properties file   721 does not exist.

                      1                      2                      3
                      A                      A                      A
 Frequencies --     24.9146               205.2483               218.6865
 Red. masses --     12.7655                12.5841                 3.8903
 Frc consts  --      0.0047                 0.3123                 0.1096
 IR Inten    --      1.2869                 2.1693                 2.1644

                      4                      5                      6
                      A                      A                      A
 Frequencies --    383.6716               409.3924               422.9564
 Red. masses --     13.1107                 1.6623                 8.0536
 Frc consts  --      1.1371                 0.1642                 0.8489
 IR Inten    --      2.4747                77.3180                19.4756

                      7                      8                      9
                      A                      A                      A
 Frequencies --    452.1002               580.3755               585.3154
 Red. masses --      5.0332                15.5047                15.2804
 Frc consts  --      0.6061                 3.0770                 3.0844
 IR Inten    --     17.7048                 7.2224                 7.4814

                     10                     11                     12
                      A                      A                      A
 Frequencies --    724.5883               886.2020               970.1363
 Red. masses --     12.7390                14.6357                10.6178
 Frc consts  --      3.9406                 6.7722                 5.8878
 IR Inten    --     19.7360                33.7486                49.2789

                     13                     14                     15
                      A                      A                      A
 Frequencies --   1252.3345              1267.0850              1284.8176
 Red. masses --     13.2250                12.3505                10.7580
 Frc consts  --     12.2204                11.6827                10.4632
 IR Inten    --    306.7669               265.3127               269.9840

                     16                     17                     18
                      A                      A                      A
 Frequencies --   1468.2368              1516.3886              3675.4274
 Red. masses --      1.8740                 2.6667                 1.0662
 Frc consts  --      2.3802                 3.6128                 8.4863
 IR Inten    --     14.8308                50.6611                64.1291

 - Thermochemistry -
 -------------------
 Temperature   298.150 Kelvin.  Pressure   1.00000 Atm.
 Atom     1 has atomic number  6 and mass  12.00000

 Molecular mass:   113.99286 amu.
 Principal axes and moments of inertia in atomic units:
                           1         2         3
     Eigenvalues --   331.253461116.621211129.84859
           X            0.04986  -0.60607   0.79385
           Y            0.94252  -0.23440  -0.23815
           Z            0.33042   0.76009   0.55954
 This molecule is an asymmetric top.
 Rotational symmetry number  1.
 Rotational temperatures (Kelvin)      0.26147     0.07757     0.07666
 Rotational constants (GHZ):           5.44822     1.61625     1.59733
 Zero-point vibrational energy      97662.4 (Joules/Mol)
                                   23.34187 (Kcal/Mol)
 Warning -- explicit consideration of   9 degrees of freedom as
           vibrations may cause significant error
 Vibrational temperatures:     35.85   295.31   314.64   552.02   589.02
          (Kelvin)            608.54   650.47   835.03   842.14  1042.52
                             1275.05  1395.81  1801.83  1823.05  1848.57
                             2112.47  2181.74  5288.12

 Zero-point correction=                           0.037198 (Hartree/Particle)
 Thermal correction to Energy=                    0.043768
 Thermal correction to Enthalpy=                  0.044712
 Thermal correction to Gibbs Free Energy=         0.005218
 Sum of electronic and zero-point Energies=           -526.613447
 Sum of electronic and thermal Energies=              -526.606876
 Sum of electronic and thermal Enthalpies=            -526.605932
 Sum of electronic and thermal Free Energies=         -526.645427

                     E (Thermal)             CV                S
                      KCal/Mol        Cal/Mol-Kelvin    Cal/Mol-Kelvin
 Total                   27.465             21.821             83.123
 Electronic               0.000              0.000              0.000
 Translational            0.889              2.981             40.108
 Rotational               0.889              2.981             27.527
 Vibrational             25.687             15.859             15.488
 Vibration     1          0.593              1.985              6.198
 Vibration     2          0.640              1.832              2.086
 Vibration     3          0.646              1.813              1.970
 Vibration     4          0.753              1.505              1.025
 Vibration     5          0.774              1.450              0.929
 Vibration     6          0.785              1.420              0.882
 Vibration     7          0.811              1.356              0.789
 Vibration     8          0.937              1.074              0.485
 Vibration     9          0.942              1.063              0.476

 Optimization completed.
    -- Stationary point found.
 Normal termination of Gaussian 16 at Sun May 25 05:08:37 2025.
