 Gaussian 16, Revision C.01,
 Gaussian 16:  ES64L-G16RevC.01  3-Jul-2019

 ----------------------------------------------------------------------
 #P M062X/Def2TZVPP Symm(None) scf(xqc) pop(None) opt(NoFreeze,TS,CalcA
 ll,NoEigentest,MaxCycle=999)
 ----------------------------------------------------------------------

 ------------------------------
 Gaussian input prepared by ASE
 ------------------------------
 Symbolic Z-matrix:
 Charge =  0 Multiplicity = 1

 SCF Done:  E(RM062X) =  -526.714887046     A.U. after   16 cycles
 SCF Done:  E(RM062X) =  -526.720428125     A.U. after   13 cycles
 SCF Done:  E(RM062X) =  -526.726223929     A.U. after   15 cycles
 SCF Done:  E(RM062X) =  -526.728094481     A.U. after   13 cycles
 SCF Done:  E(RM062X) =  -526.728352459     A.U. after   12 cycles
 SCF Done:  E(RM062X) =  -526.728360269     A.U. after   11 cycles

 Isotropic polarizability for W=    0.000000       35.72 Bohr**3.
 End of Minotr F.D. properties file   721 does not exist.

 Optimization completed.
    -- Stationary point found.

                          Input orientation:
 ---------------------------------------------------------------------
 Center     Atomic      Atomic             Coordinates (Angstroms)
 Number     Number       Type             X           Y           Z
 ---------------------------------------------------------------------
      1          6           0        1.609237    0.098399   -0.036745
      2          8           0        2.169734   -0.708907   -0.719890
      3          6           0       -0.102946   -0.062402    0.077851
      4          9           0        1.429468   -0.224695    1.407304
      5          9           0       -0.903962    0.767374    0.597738
      6          9           0       -0.637188   -1.201583   -0.015435
      7          8           0        1.821650    1.440306   -0.060673
      8          1           0        2.519904    1.581740   -0.709677
 ---------------------------------------------------------------------

 ******    1 imaginary frequencies (negative Signs) ******

                      1                      2                      3
                      A                      A                      A
 Frequencies --   -363.7384               102.0404               143.5914
 Red. masses --      9.8046                15.2383                15.9402
 Frc consts  --      0.7643                 0.0935                 0.1936
 IR Inten    --      7.2219                 0.6241                48.9628

                      4                      5                      6
                      A                      A                      A
 Frequencies --    161.8819               298.3594               402.5388
 Red. masses --     15.5966                 2.5463                 2.1654
 Frc consts  --      0.2408                 0.1336                 0.2067
 IR Inten    --      0.4567                47.9724                27.5637

                      7                      8                      9
                      A                      A                      A
 Frequencies --    450.5306               540.2419               605.7279
 Red. masses --      4.7742                11.2049                11.0236
 Frc consts  --      0.5709                 1.9268                 2.3830
 IR Inten    --     21.6354                 8.5942                 6.3800

                     10                     11                     12
                      A                      A                      A
 Frequencies --    675.3157               730.3935               787.3575
 Red. masses --      6.7023                 9.4558                12.3579
 Frc consts  --      1.8009                 2.9721                 4.5138
 IR Inten    --    204.7196                53.4890               251.4927

                     13                     14                     15
                      A                      A                      A
 Frequencies --   1083.5504              1309.5463              1411.6530
 Red. masses --      8.2116                 1.4580                10.1961
 Frc consts  --      5.6804                 1.4731                11.9712
 IR Inten    --    393.3492                95.4188               109.1159

                     16                     17                     18
                      A                      A                      A
 Frequencies --   1431.7896              1790.4869              3861.0328
 Red. masses --     13.1373                11.5117                 1.0653
 Frc consts  --     15.8677                21.7436                 9.3571
 IR Inten    --    279.4586               636.1776               123.4509

 - Thermochemistry -
 -------------------
 Temperature   298.150 Kelvin.  Pressure   1.00000 Atm.
 Atom     1 has atomic number  6 and mass  12.00000

 Molecular mass:   113.99286 amu.
 Principal axes and moments of inertia in atomic units:
                           1         2         3
     Eigenvalues --   447.64545 772.44733 921.67093
           X            0.97453  -0.13143   0.18172
           Y            0.17745   0.94738  -0.26644
           Z           -0.13714   0.29190   0.94657
 This molecule is an asymmetric top.
 Rotational symmetry number  1.
 Warning -- assumption of classical behavior for rotation
           may cause significant error
 Rotational temperatures (Kelvin)      0.19349     0.11213     0.09397
 Rotational constants (GHZ):           4.03163     2.33639     1.95812
    1 imaginary frequencies ignored.
 Zero-point vibrational energy      94421.5 (Joules/Mol)
                                   22.56727 (Kcal/Mol)
 Warning -- explicit consideration of   8 degrees of freedom as
           vibrations may cause significant error
 Vibrational temperatures:    146.81   206.60   232.91   429.27   579.16
          (Kelvin)            648.21   777.29   871.51   971.63  1050.87
                             1132.83  1558.99  1884.15  2031.05  2060.03
                             2576.11  5555.17

 Zero-point correction=                           0.035963 (Hartree/Particle)
 Thermal correction to Energy=                    0.042508
 Thermal correction to Enthalpy=                  0.043452
 Thermal correction to Gibbs Free Energy=         0.004872
 Sum of electronic and zero-point Energies=           -526.692397
 Sum of electronic and thermal Energies=              -526.685852
 Sum of electronic and thermal Enthalpies=            -526.684908
 Sum of electronic and thermal Free Energies=         -526.723488

                     E (Thermal)             CV                S
                      KCal/Mol        Cal/Mol-Kelvin    Cal/Mol-Kelvin
 Total                   26.674             21.372             81.198
 Electronic               0.000              0.000              0.000
 Translational            0.889              2.981             40.108
 Rotational               0.889              2.981             27.257
 Vibrational             24.897             15.410             13.832
 Vibration     1          0.604              1.948              3.415
 Vibration     2          0.616              1.910              2.755
 Vibration     3          0.622              1.889              2.528
 Vibration     4          0.691              1.677              1.426
 Vibration     5          0.768              1.465              0.953
 Vibration     6          0.809              1.360              0.794
 Vibration     7          0.895              1.161              0.565
 Vibration     8          0.964              1.020              0.440

 Normal termination of Gaussian 16 at Sun May 25 04:30:56 2025.
