 Gaussian 16, Revision C.01,
 Gaussian 16:  ES64L-G16RevC.01  3-Jul-2019

 ----------------------------------------------------------------------
 #P M062X/Def2TZVPP Symm(None) scf(xqc) pop(None) opt(NoFreeze,TS,CalcA
 ll,NoEigentest,MaxCycle=999)
 ----------------------------------------------------------------------

 ------------------------------
 Gaussian input prepared by ASE
 ------------------------------
 Symbolic Z-matrix:
 Charge =  0 Multiplicity = 1

 SCF Done:  E(RM062X) =  -526.674155357     A.U. after   15 cycles
 SCF Done:  E(RM062X) =  -526.691010465     A.U. after   16 cycles
 SCF Done:  E(RM062X) =  -526.691271556     A.U. after   12 cycles
 SCF Done:  E(RM062X) =  -526.691271880     A.U. after    9 cycles

 Isotropic polarizability for W=    0.000000       36.20 Bohr**3.
 End of Minotr F.D. properties file   721 does not exist.

 Optimization completed.
    -- Stationary point found.

                          Input orientation:
 ---------------------------------------------------------------------
 Center     Atomic      Atomic             Coordinates (Angstroms)
 Number     Number       Type             X           Y           Z
 ---------------------------------------------------------------------
      1          6           0        1.770995    0.147130   -0.074250
      2          8           0        1.239250   -0.310231   -1.124636
      3          6           0       -0.006076    0.007094   -0.013425
      4          9           0       -0.286455    1.022359    0.825012
      5          9           0       -0.930122    0.168327   -0.966906
      6          9           0       -0.209171   -1.139669    0.583788
      7          8           0        3.015706    0.542704   -0.206509
      8          1           0        3.342096    0.861863    0.642136
 ---------------------------------------------------------------------

 ******    1 imaginary frequencies (negative Signs) ******

                      1                      2                      3
                      A                      A                      A
 Frequencies --   -772.8703                87.8892               145.1221
 Red. masses --     12.6581                 9.4369                12.5252
 Frc consts  --      4.4548                 0.0429                 0.1554
 IR Inten    --     74.8701                 5.0782                 5.0787

                      4                      5                      6
                      A                      A                      A
 Frequencies --    354.2134               420.5630               464.8032
 Red. masses --      9.8642                11.0793                 9.0493
 Frc consts  --      0.7292                 1.1546                 1.1519
 IR Inten    --     33.2175                32.5064                34.0808

                      7                      8                      9
                      A                      A                      A
 Frequencies --    526.8615               592.6566               634.6222
 Red. masses --     12.9868                13.8266                 1.2580
 Frc consts  --      2.1240                 2.8614                 0.2985
 IR Inten    --     15.1057                 1.2659                91.4549

                     10                     11                     12
                      A                      A                      A
 Frequencies --    706.2359               748.8700               943.9192
 Red. masses --      8.4632                12.9112                12.8198
 Frc consts  --      2.4871                 4.2661                 6.7298
 IR Inten    --     65.7649               246.0295               681.5063

                     13                     14                     15
                      A                      A                      A
 Frequencies --   1054.1118              1186.0479              1299.1624
 Red. masses --     10.4082                 1.3794                13.1686
 Frc consts  --      6.8139                 1.1433                13.0953
 IR Inten    --    279.5411                54.4666               332.5997

                     16                     17                     18
                      A                      A                      A
 Frequencies --   1350.5905              1613.8444              3858.0258
 Red. masses --      7.6943                 8.3561                 1.0663
 Frc consts  --      8.2692                12.8227                 9.3509
 IR Inten    --    278.0076               171.0129               190.3194

 - Thermochemistry -
 -------------------
 Temperature   298.150 Kelvin.  Pressure   1.00000 Atm.
 Atom     1 has atomic number  6 and mass  12.00000

 Molecular mass:   113.99286 amu.
 Principal axes and moments of inertia in atomic units:
                           1         2         3
     Eigenvalues --   377.08962 887.73854 941.77129
           X            0.98961   0.01190  -0.14327
           Y            0.11306   0.55114   0.82672
           Z           -0.08880   0.83433  -0.54407
 This molecule is an asymmetric top.
 Rotational symmetry number  1.
 Rotational temperatures (Kelvin)      0.22969     0.09757     0.09197
 Rotational constants (GHZ):           4.78597     2.03296     1.91633
    1 imaginary frequencies ignored.
 Zero-point vibrational energy      95626.7 (Joules/Mol)
                                   22.85533 (Kcal/Mol)
 Warning -- explicit consideration of   7 degrees of freedom as
           vibrations may cause significant error
 Vibrational temperatures:    126.45   208.80   509.63   605.10   668.75
          (Kelvin)            758.04   852.70   913.08  1016.12  1077.46
                             1358.09  1516.63  1706.46  1869.20  1943.20
                             2321.96  5550.84

 Zero-point correction=                           0.036422 (Hartree/Particle)
 Thermal correction to Energy=                    0.042395
 Thermal correction to Enthalpy=                  0.043339
 Thermal correction to Gibbs Free Energy=         0.005860
 Sum of electronic and zero-point Energies=           -526.654850
 Sum of electronic and thermal Energies=              -526.648877
 Sum of electronic and thermal Enthalpies=            -526.647933
 Sum of electronic and thermal Free Energies=         -526.685412

                     E (Thermal)             CV                S
                      KCal/Mol        Cal/Mol-Kelvin    Cal/Mol-Kelvin
 Total                   26.603             20.203             78.882
 Electronic               0.000              0.000              0.000
 Translational            0.889              2.981             40.108
 Rotational               0.889              2.981             27.247
 Vibrational             24.826             14.241             11.527
 Vibration     1          0.601              1.958              3.707
 Vibration     2          0.617              1.908              2.735
 Vibration     3          0.730              1.567              1.147
 Vibration     4          0.783              1.426              0.890
 Vibration     5          0.822              1.328              0.752
 Vibration     6          0.882              1.191              0.594
 Vibration     7          0.950              1.047              0.462

 Normal termination of Gaussian 16 at Sun May 25 04:31:18 2025.
