 Gaussian 16, Revision C.01,
 Gaussian 16:  ES64L-G16RevC.01  3-Jul-2019

 -----------------------------------------------------------------
 #P M062X/Def2TZVPP Symm(None) scf(xqc) pop(None) freq opt(CalcFC)
 -----------------------------------------------------------------

 ------------------------------
 Gaussian input prepared by ASE
 ------------------------------
 Symbolic Z-matrix:
 Charge =  0 Multiplicity = 1

 SCF Done:  E(RM062X) =  -526.837373224     A.U. after   13 cycles
 SCF Done:  E(RM062X) =  -526.846349320     A.U. after   14 cycles
 SCF Done:  E(RM062X) =  -526.847313709     A.U. after   12 cycles
 SCF Done:  E(RM062X) =  -526.847525768     A.U. after   12 cycles
 SCF Done:  E(RM062X) =  -526.847651851     A.U. after   13 cycles
 SCF Done:  E(RM062X) =  -526.847798349     A.U. after   13 cycles
 SCF Done:  E(RM062X) =  -526.847835290     A.U. after   12 cycles
 SCF Done:  E(RM062X) =  -526.847858997     A.U. after   11 cycles
 SCF Done:  E(RM062X) =  -526.847872481     A.U. after   13 cycles
 SCF Done:  E(RM062X) =  -526.847878805     A.U. after   11 cycles
 SCF Done:  E(RM062X) =  -526.847882550     A.U. after   12 cycles
 SCF Done:  E(RM062X) =  -526.847884278     A.U. after   12 cycles
 SCF Done:  E(RM062X) =  -526.847888448     A.U. after   12 cycles
 SCF Done:  E(RM062X) =  -526.847889409     A.U. after    9 cycles
 SCF Done:  E(RM062X) =  -526.847889533     A.U. after    8 cycles
 SCF Done:  E(RM062X) =  -526.847889539     A.U. after    7 cycles
 Optimization completed.
    -- Stationary point found.
 Normal termination of Gaussian 16 at Sun May 25 03:23:00 2025.

 ---------------------------------------------------------------------
 #P Geom=AllCheck Guess=TCheck SCRF=Check GenChk RM062X/def2TZVPP Freq
 ---------------------------------------------------------------------

 Structure from the checkpoint file:  "/tmp/Gau-141093.chk"
 ------------------------------
 Gaussian input prepared by ASE
 ------------------------------
 Charge =  0 Multiplicity = 1

                          Input orientation:
 ---------------------------------------------------------------------
 Center     Atomic      Atomic             Coordinates (Angstroms)
 Number     Number       Type             X           Y           Z
 ---------------------------------------------------------------------
      1          6           0        1.567137    0.041882    0.077678
      2          8           0        2.152422   -0.784886    0.690799
      3          6           0        0.016500    0.024264    0.031609
      4          9           0       -0.480642    0.138430    1.251805
      5          9           0       -0.459003    1.041831   -0.707357
      6          9           0       -0.413916   -1.105704   -0.504470
      7          8           0        2.147870    1.024679   -0.603668
      8          1           0        1.494486    1.590861   -1.031677
 ---------------------------------------------------------------------

 SCF Done:  E(RM062X) =  -526.847889539     A.U. after    1 cycles

 Isotropic polarizability for W=    0.000000       31.66 Bohr**3.
 End of Minotr F.D. properties file   721 does not exist.

                      1                      2                      3
                      A                      A                      A
 Frequencies --     15.2381               256.0561               267.2860
 Red. masses --     10.6799                17.3038                12.3237
 Frc consts  --      0.0015                 0.6684                 0.5187
 IR Inten    --      2.0529                10.2529                11.6538

                      4                      5                      6
                      A                      A                      A
 Frequencies --    398.6294               436.0236               517.5849
 Red. masses --      9.3102                13.4215                 7.7989
 Frc consts  --      0.8717                 1.5034                 1.2310
 IR Inten    --      4.8755                 4.1095                37.5161

                      7                      8                      9
                      A                      A                      A
 Frequencies --    537.4969               603.5725               703.9978
 Red. masses --      1.2002                13.2391                10.0514
 Frc consts  --      0.2043                 2.8416                 2.9351
 IR Inten    --     82.8478                 0.2114                30.5871

                     10                     11                     12
                      A                      A                      A
 Frequencies --    792.1192               825.2968              1169.8593
 Red. masses --     10.8359                13.0983                 4.8164
 Frc consts  --      4.0059                 5.2563                 3.8836
 IR Inten    --      7.8589                12.4328                85.2760

                     13                     14                     15
                      A                      A                      A
 Frequencies --   1255.0229              1268.7703              1280.4421
 Red. masses --     13.0106                 1.6202                13.1228
 Frc consts  --     12.0740                 1.5367                12.6764
 IR Inten    --    423.8790               201.3214               293.1319

                     16                     17                     18
                      A                      A                      A
 Frequencies --   1432.5737              1951.5721              3844.0793
 Red. masses --      5.7934                11.4572                 1.0657
 Frc consts  --      7.0052                25.7097                 9.2785
 IR Inten    --    134.3514               292.8769               148.3758

 - Thermochemistry -
 -------------------
 Temperature   298.150 Kelvin.  Pressure   1.00000 Atm.
 Atom     1 has atomic number  6 and mass  12.00000

 Molecular mass:   113.99286 amu.
 Principal axes and moments of inertia in atomic units:
                           1         2         3
     Eigenvalues --   468.65263 715.00042 869.06989
           X            0.99762  -0.06177  -0.03060
           Y            0.06803   0.81077   0.58140
           Z           -0.01110  -0.58210   0.81304
 This molecule is an asymmetric top.
 Rotational symmetry number  1.
 Warning -- assumption of classical behavior for rotation
           may cause significant error
 Rotational temperatures (Kelvin)      0.18481     0.12114     0.09966
 Rotational constants (GHZ):           3.85091     2.52411     2.07664
 Zero-point vibrational energy     105005.9 (Joules/Mol)
                                   25.09702 (Kcal/Mol)
 Warning -- explicit consideration of   8 degrees of freedom as
           vibrations may cause significant error
 Vibrational temperatures:     21.92   368.41   384.56   573.54   627.34
          (Kelvin)            744.69   773.34   868.41  1012.90  1139.68
                             1187.42  1683.17  1805.70  1825.48  1842.27
                             2061.15  2807.88  5530.77

 Zero-point correction=                           0.039995 (Hartree/Particle)
 Thermal correction to Energy=                    0.046159
 Thermal correction to Enthalpy=                  0.047103
 Thermal correction to Gibbs Free Energy=         0.008119
 Sum of electronic and zero-point Energies=           -526.807895
 Sum of electronic and thermal Energies=              -526.801730
 Sum of electronic and thermal Enthalpies=            -526.800786
 Sum of electronic and thermal Free Energies=         -526.839771

                     E (Thermal)             CV                S
                      KCal/Mol        Cal/Mol-Kelvin    Cal/Mol-Kelvin
 Total                   28.965             20.624             82.050
 Electronic               0.000              0.000              0.000
 Translational            0.889              2.981             40.108
 Rotational               0.889              2.981             27.168
 Vibrational             27.188             14.662             14.774
 Vibration     1          0.593              1.986              7.174
 Vibration     2          0.666              1.753              1.689
 Vibration     3          0.672              1.733              1.614
 Vibration     4          0.765              1.473              0.968
 Vibration     5          0.796              1.392              0.839
 Vibration     6          0.873              1.211              0.616
 Vibration     7          0.893              1.167              0.571
 Vibration     8          0.962              1.024              0.444

 Optimization completed.
    -- Stationary point found.
 Normal termination of Gaussian 16 at Sun May 25 03:24:16 2025.
