 Gaussian 16, Revision C.01,
 Gaussian 16:  ES64L-G16RevC.01  3-Jul-2019

 -----------------------------------------------------------------
 #P M062X/Def2TZVPP Symm(None) scf(xqc) pop(None) freq opt(CalcFC)
 -----------------------------------------------------------------

 ------------------------------
 Gaussian input prepared by ASE
 ------------------------------
 Symbolic Z-matrix:
 Charge =  0 Multiplicity = 1

 SCF Done:  E(RM062X) =  -526.751967024     A.U. after   13 cycles
 SCF Done:  E(RM062X) =  -526.766391661     A.U. after   14 cycles
 SCF Done:  E(RM062X) =  -526.724419178     A.U. after   14 cycles
 SCF Done:  E(RM062X) =  -526.762357994     A.U. after   14 cycles
 SCF Done:  E(RM062X) =  -526.768786777     A.U. after   12 cycles
 SCF Done:  E(RM062X) =  -526.744880012     A.U. after   14 cycles
 SCF Done:  E(RM062X) =  -526.768205232     A.U. after   14 cycles
 SCF Done:  E(RM062X) =  -526.769990015     A.U. after   12 cycles
 SCF Done:  E(RM062X) =  -526.770485215     A.U. after   12 cycles
 SCF Done:  E(RM062X) =  -526.770804509     A.U. after   11 cycles
 SCF Done:  E(RM062X) =  -526.771064694     A.U. after   11 cycles
 SCF Done:  E(RM062X) =  -526.771161509     A.U. after   10 cycles
 SCF Done:  E(RM062X) =  -526.771176576     A.U. after   10 cycles
 SCF Done:  E(RM062X) =  -526.771177734     A.U. after    8 cycles
 SCF Done:  E(RM062X) =  -526.771177980     A.U. after    8 cycles
 Optimization completed.
    -- Stationary point found.
 Normal termination of Gaussian 16 at Sun May 25 04:30:08 2025.

 ---------------------------------------------------------------------
 #P Geom=AllCheck Guess=TCheck SCRF=Check GenChk RM062X/def2TZVPP Freq
 ---------------------------------------------------------------------

 Structure from the checkpoint file:  "/tmp/Gau-126366.chk"
 ------------------------------
 Gaussian input prepared by ASE
 ------------------------------
 Charge =  0 Multiplicity = 1

                          Input orientation:
 ---------------------------------------------------------------------
 Center     Atomic      Atomic             Coordinates (Angstroms)
 Number     Number       Type             X           Y           Z
 ---------------------------------------------------------------------
      1          6           0        1.140185    0.181088    0.559238
      2          8           0       -0.103785   -0.028049    0.031235
      3          6           0       -0.663079    0.651580   -1.015592
      4          9           0        0.063052    0.523955   -2.128780
      5          9           0       -1.861935    0.170765   -1.232631
      6          9           0       -0.759900    1.957925   -0.758189
      7          8           0        1.812061    1.122614   -0.025780
      8          1           0        1.411599    1.601961   -0.771643
 ---------------------------------------------------------------------

 SCF Done:  E(RM062X) =  -526.771177980     A.U. after    1 cycles

 Isotropic polarizability for W=    0.000000       34.24 Bohr**3.
 End of Minotr F.D. properties file   721 does not exist.

                      1                      2                      3
                      A                      A                      A
 Frequencies --     81.9327               182.7770               214.6123
 Red. masses --      6.3358                 4.2670                11.2913
 Frc consts  --      0.0251                 0.0840                 0.3064
 IR Inten    --      8.4023                34.4036                 4.5621

                      4                      5                      6
                      A                      A                      A
 Frequencies --    395.2901               439.6835               567.7828
 Red. masses --     12.9564                 9.2038                15.8085
 Frc consts  --      1.1928                 1.0483                 3.0027
 IR Inten    --      5.4081                 6.8840                 2.3228

                      7                      8                      9
                      A                      A                      A
 Frequencies --    592.6391               613.1014               685.2968
 Red. masses --      9.7048                 4.2400                 2.1561
 Frc consts  --      2.0083                 0.9390                 0.5966
 IR Inten    --     18.3622                 7.9097                52.3887

                     10                     11                     12
                      A                      A                      A
 Frequencies --    794.1483               871.5412              1063.7371
 Red. masses --      5.6270                17.1895                 7.8550
 Frc consts  --      2.0909                 7.6929                 5.2368
 IR Inten    --      7.4868                 6.9245               255.1855

                     13                     14                     15
                      A                      A                      A
 Frequencies --   1196.4004              1244.6970              1292.1461
 Red. masses --      6.1943                11.6644                 2.2442
 Frc consts  --      5.2239                10.6473                 2.2077
 IR Inten    --    276.8132               410.9360               524.1158

                     16                     17                     18
                      A                      A                      A
 Frequencies --   1362.2413              1403.6965              3683.4610
 Red. masses --      6.5287                 4.5491                 1.0632
 Frc consts  --      7.1381                 5.2811                 8.4994
 IR Inten    --    115.8690               253.1060                40.1521

 - Thermochemistry -
 -------------------
 Temperature   298.150 Kelvin.  Pressure   1.00000 Atm.
 Atom     1 has atomic number  6 and mass  12.00000

 Molecular mass:   113.99286 amu.
 Principal axes and moments of inertia in atomic units:
                           1         2         3
     Eigenvalues --   360.21024 804.06611 851.37452
           X            0.87706   0.29096  -0.38224
           Y            0.04543   0.74189   0.66898
           Z            0.47823  -0.60410   0.63746
 This molecule is an asymmetric top.
 Rotational symmetry number  1.
 Rotational temperatures (Kelvin)      0.24045     0.10772     0.10173
 Rotational constants (GHZ):           5.01024     2.24452     2.11980
 Zero-point vibrational energy      99799.6 (Joules/Mol)
                                   23.85267 (Kcal/Mol)
 Warning -- explicit consideration of   8 degrees of freedom as
           vibrations may cause significant error
 Vibrational temperatures:    117.88   262.98   308.78   568.73   632.61
          (Kelvin)            816.91   852.68   882.12   985.99  1142.60
                             1253.95  1530.48  1721.35  1790.84  1859.11
                             1959.96  2019.61  5299.68

 Zero-point correction=                           0.038012 (Hartree/Particle)
 Thermal correction to Energy=                    0.044169
 Thermal correction to Enthalpy=                  0.045113
 Thermal correction to Gibbs Free Energy=         0.007400
 Sum of electronic and zero-point Energies=           -526.733166
 Sum of electronic and thermal Energies=              -526.727009
 Sum of electronic and thermal Enthalpies=            -526.726065
 Sum of electronic and thermal Free Energies=         -526.763778

                     E (Thermal)             CV                S
                      KCal/Mol        Cal/Mol-Kelvin    Cal/Mol-Kelvin
 Total                   27.716             20.753             79.373
 Electronic               0.000              0.000              0.000
 Translational            0.889              2.981             40.108
 Rotational               0.889              2.981             27.002
 Vibrational             25.939             14.792             12.262
 Vibration     1          0.600              1.962              3.844
 Vibration     2          0.630              1.863              2.300
 Vibration     3          0.645              1.819              2.004
 Vibration     4          0.762              1.480              0.980
 Vibration     5          0.800              1.384              0.828
 Vibration     6          0.924              1.101              0.509
 Vibration     7          0.950              1.047              0.462
 Vibration     8          0.972              1.004              0.428

                           ! Non-Optimized Parameters !
 Normal termination of Gaussian 16 at Sun May 25 04:31:25 2025.
