 Gaussian 16, Revision C.01,
 Gaussian 16:  ES64L-G16RevC.01  3-Jul-2019

 ----------------------------------------------------------------------
 #P M062X/Def2TZVPP Symm(None) scf(xqc) pop(None) opt(NoFreeze,TS,CalcA
 ll,NoEigentest,MaxCycle=999)
 ----------------------------------------------------------------------

 ------------------------------
 Gaussian input prepared by ASE
 ------------------------------
 Symbolic Z-matrix:
 Charge =  0 Multiplicity = 1

 SCF Done:  E(RM062X) =  -526.567800513     A.U. after   20 cycles

 Isotropic polarizability for W=    0.000000       39.30 Bohr**3.
 End of Minotr F.D. properties file   721 does not exist.

 Optimization completed.
    -- Stationary point found.

                          Input orientation:
 ---------------------------------------------------------------------
 Center     Atomic      Atomic             Coordinates (Angstroms)
 Number     Number       Type             X           Y           Z
 ---------------------------------------------------------------------
      1          6           0        1.475206   -0.071342    0.434299
      2          8           0        2.295073   -0.454298   -0.706917
      3          6           0       -0.005273   -0.055893    0.089361
      4          9           0       -0.634086    0.773207    0.921311
      5          9           0       -0.272751    0.352473   -1.156034
      6          9           0       -0.506935   -1.277018    0.232289
      7          8           0        2.032784    1.092700   -0.081604
      8          1           0        2.935603    1.144449    0.266207
 ---------------------------------------------------------------------

 ******    1 imaginary frequencies (negative Signs) ******

                      1                      2                      3
                      A                      A                      A
 Frequencies --  -1456.4587                70.2661               226.2216
 Red. masses --     11.6235                13.3378                10.0591
 Frc consts  --     14.5272                 0.0388                 0.3033
 IR Inten    --   1187.7866                 1.7785                 2.9817

                      4                      5                      6
                      A                      A                      A
 Frequencies --    243.1960               384.8551               446.4097
 Red. masses --     11.3734                16.0842                15.1746
 Frc consts  --      0.3963                 1.4036                 1.7817
 IR Inten    --      1.7711                 0.0513                 0.5624

                      7                      8                      9
                      A                      A                      A
 Frequencies --    556.4751               586.7855               658.7332
 Red. masses --     13.1558                15.4309                 5.8069
 Frc consts  --      2.4003                 3.1304                 1.4846
 IR Inten    --      1.2009                 4.8776                32.0057

                     10                     11                     12
                      A                      A                      A
 Frequencies --    801.2743               855.1981               928.5880
 Red. masses --      4.0154                 8.2604                 1.6619
 Frc consts  --      1.5189                 3.5594                 0.8443
 IR Inten    --      6.2065                11.2532                39.9657

                     13                     14                     15
                      A                      A                      A
 Frequencies --   1145.8949              1226.7211              1250.2209
 Red. masses --     11.8864                 3.2912                 3.4815
 Frc consts  --      9.1958                 2.9180                 3.2062
 IR Inten    --    128.2486               337.4502               290.4534

                     16                     17                     18
                      A                      A                      A
 Frequencies --   1288.9658              1345.5985              3782.7468
 Red. masses --      3.8605                 4.0486                 1.0682
 Frc consts  --      3.7790                 4.3190                 9.0056
 IR Inten    --    101.3960               164.6473               316.8470

 - Thermochemistry -
 -------------------
 Temperature   298.150 Kelvin.  Pressure   1.00000 Atm.
 Atom     1 has atomic number  6 and mass  12.00000

 Molecular mass:   113.99286 amu.
 Principal axes and moments of inertia in atomic units:
                           1         2         3
     Eigenvalues --   403.65185 774.90838 857.95287
           X            0.96822  -0.08172   0.23639
           Y            0.16274   0.92353  -0.34730
           Z           -0.18993   0.37473   0.90747
 This molecule is an asymmetric top.
 Rotational symmetry number  1.
 Rotational temperatures (Kelvin)      0.21458     0.11177     0.10095
 Rotational constants (GHZ):           4.47103     2.32897     2.10354
    1 imaginary frequencies ignored.
 Zero-point vibrational energy      94493.9 (Joules/Mol)
                                   22.58459 (Kcal/Mol)
 Warning -- explicit consideration of   7 degrees of freedom as
           vibrations may cause significant error
 Vibrational temperatures:    101.10   325.48   349.90   553.72   642.28
          (Kelvin)            800.64   844.25   947.77  1152.86  1230.44
                             1336.03  1648.69  1764.98  1798.79  1854.53
                             1936.02  5442.53

 Zero-point correction=                           0.035991 (Hartree/Particle)
 Thermal correction to Energy=                    0.041969
 Thermal correction to Enthalpy=                  0.042913
 Thermal correction to Gibbs Free Energy=         0.005430
 Sum of electronic and zero-point Energies=           -526.531810
 Sum of electronic and thermal Energies=              -526.525832
 Sum of electronic and thermal Enthalpies=            -526.524887
 Sum of electronic and thermal Free Energies=         -526.562370

                     E (Thermal)             CV                S
                      KCal/Mol        Cal/Mol-Kelvin    Cal/Mol-Kelvin
 Total                   26.336             20.033             78.890
 Electronic               0.000              0.000              0.000
 Translational            0.889              2.981             40.108
 Rotational               0.889              2.981             27.087
 Vibrational             24.558             14.071             11.695
 Vibration     1          0.598              1.968              4.146
 Vibration     2          0.650              1.801              1.909
 Vibration     3          0.659              1.774              1.779
 Vibration     4          0.754              1.503              1.020
 Vibration     5          0.806              1.369              0.807
 Vibration     6          0.912              1.126              0.531
 Vibration     7          0.944              1.060              0.473

 Normal termination of Gaussian 16 at Sun May 25 04:27:44 2025.
