 Gaussian 16, Revision C.01,
 Gaussian 16:  ES64L-G16RevC.01  3-Jul-2019

 ----------------------------------------------------------------------
 #P M062X/Def2TZVPP Symm(None) scf(xqc) pop(None) opt(NoFreeze,TS,CalcA
 ll,NoEigentest,MaxCycle=999)
 ----------------------------------------------------------------------

 ------------------------------
 Gaussian input prepared by ASE
 ------------------------------
 Symbolic Z-matrix:
 Charge =  0 Multiplicity = 1

 SCF Done:  E(RM062X) =  -526.620202451     A.U. after   22 cycles

 Isotropic polarizability for W=    0.000000       49.51 Bohr**3.
 End of Minotr F.D. properties file   721 does not exist.

 Optimization completed.
    -- Stationary point found.

                          Input orientation:
 ---------------------------------------------------------------------
 Center     Atomic      Atomic             Coordinates (Angstroms)
 Number     Number       Type             X           Y           Z
 ---------------------------------------------------------------------
      1          6           0        1.928729    1.059100   -0.164815
      2          8           0       -0.224709    1.055159    0.814015
      3          6           0        3.389827    1.155015   -0.623913
      4          9           0        4.200280    0.937641    0.387532
      5          9           0        3.644479    0.270880   -1.573780
      6          9           0        3.570657    2.375173   -1.092887
      7          8           0        0.980515    0.744399   -0.710729
      8          1           0       -1.182619    0.930226    0.873235
 ---------------------------------------------------------------------

 ******    1 imaginary frequencies (negative Signs) ******

                      1                      2                      3
                      A                      A                      A
 Frequencies --   -287.9057                29.0724               129.3757
 Red. masses --      2.3468                15.4882                 9.8485
 Frc consts  --      0.1146                 0.0077                 0.0971
 IR Inten    --     88.1326                 4.0948                 1.7876

                      4                      5                      6
                      A                      A                      A
 Frequencies --    191.0985               295.3574               316.4442
 Red. masses --     15.5707                 8.9592                 1.1180
 Frc consts  --      0.3350                 0.4605                 0.0660
 IR Inten    --     15.7462                72.9569               130.7483

                      7                      8                      9
                      A                      A                      A
 Frequencies --    431.8503               454.4964               575.4319
 Red. masses --     12.0815                14.8112                13.7295
 Frc consts  --      1.3275                 1.8026                 2.6785
 IR Inten    --     11.7545                 5.5334                49.8913

                     10                     11                     12
                      A                      A                      A
 Frequencies --    597.9547               616.3868               816.5632
 Red. masses --     16.1100                 8.9051                 4.3805
 Frc consts  --      3.3938                 1.9934                 1.7209
 IR Inten    --      1.8675               123.2077                36.0194

                     13                     14                     15
                      A                      A                      A
 Frequencies --    893.5199              1195.1094              1279.0087
 Red. masses --      3.1157                12.4290                13.1700
 Frc consts  --      1.4656                10.4593                12.6935
 IR Inten    --     72.5864               504.9506               311.2993

                     16                     17                     18
                      A                      A                      A
 Frequencies --   1302.7154              2102.9462              3806.5903
 Red. masses --     13.1271                12.5862                 1.0667
 Frc consts  --     13.1255                32.7944                 9.1065
 IR Inten    --    340.8487               617.3849                82.7874

 - Thermochemistry -
 -------------------
 Temperature   298.150 Kelvin.  Pressure   1.00000 Atm.
 Atom     1 has atomic number  6 and mass  12.00000

 Molecular mass:   113.99286 amu.
 Principal axes and moments of inertia in atomic units:
                           1         2         3
     Eigenvalues --   359.007191247.285071289.53782
           X            0.95749   0.24720  -0.14869
           Y            0.05531   0.34856   0.93565
           Z           -0.28312   0.90410  -0.32007
 This molecule is an asymmetric top.
 Rotational symmetry number  1.
 Rotational temperatures (Kelvin)      0.24126     0.06944     0.06717
 Rotational constants (GHZ):           5.02703     1.44694     1.39953
    1 imaginary frequencies ignored.
 Zero-point vibrational energy      89922.8 (Joules/Mol)
                                   21.49207 (Kcal/Mol)
 Warning -- explicit consideration of  10 degrees of freedom as
           vibrations may cause significant error
 Vibrational temperatures:     41.83   186.14   274.95   424.95   455.29
          (Kelvin)            621.34   653.92   827.92   860.32   886.84
                             1174.85  1285.58  1719.50  1840.21  1874.32
                             3025.67  5476.83

 Zero-point correction=                           0.034250 (Hartree/Particle)
 Thermal correction to Energy=                    0.041238
 Thermal correction to Enthalpy=                  0.042182
 Thermal correction to Gibbs Free Energy=         0.001685
 Sum of electronic and zero-point Energies=           -526.585953
 Sum of electronic and thermal Energies=              -526.578964
 Sum of electronic and thermal Enthalpies=            -526.578020
 Sum of electronic and thermal Free Energies=         -526.618517

                     E (Thermal)             CV                S
                      KCal/Mol        Cal/Mol-Kelvin    Cal/Mol-Kelvin
 Total                   25.877             22.570             85.234
 Electronic               0.000              0.000              0.000
 Translational            0.889              2.981             40.108
 Rotational               0.889              2.981             27.848
 Vibrational             24.100             16.608             17.277
 Vibration     1          0.593              1.984              5.892
 Vibration     2          0.612              1.924              2.955
 Vibration     3          0.634              1.852              2.217
 Vibration     4          0.690              1.682              1.443
 Vibration     5          0.703              1.642              1.328
 Vibration     6          0.793              1.401              0.853
 Vibration     7          0.813              1.351              0.782
 Vibration     8          0.932              1.084              0.494
 Vibration     9          0.956              1.036              0.453
 Vibration    10          0.976              0.997              0.422

 Normal termination of Gaussian 16 at Sun May 25 05:05:25 2025.
