 Gaussian 16, Revision C.01,
 Gaussian 16:  ES64L-G16RevC.01  3-Jul-2019

 ----------------------------------------------------------------------
 #P M062X/Def2TZVPP Symm(None) scf(xqc) pop(None) opt(NoFreeze,TS,CalcA
 ll,NoEigentest,MaxCycle=999)
 ----------------------------------------------------------------------

 ------------------------------
 Gaussian input prepared by ASE
 ------------------------------
 Symbolic Z-matrix:
 Charge =  0 Multiplicity = 1

 SCF Done:  E(RM062X) =  -526.714885286     A.U. after   16 cycles
 SCF Done:  E(RM062X) =  -526.720419041     A.U. after   13 cycles
 SCF Done:  E(RM062X) =  -526.726217598     A.U. after   15 cycles
 SCF Done:  E(RM062X) =  -526.728093058     A.U. after   13 cycles
 SCF Done:  E(RM062X) =  -526.728352389     A.U. after   12 cycles
 SCF Done:  E(RM062X) =  -526.728360272     A.U. after   11 cycles

 Isotropic polarizability for W=    0.000000       35.72 Bohr**3.
 End of Minotr F.D. properties file   721 does not exist.

 Optimization completed.
    -- Stationary point found.

                          Input orientation:
 ---------------------------------------------------------------------
 Center     Atomic      Atomic             Coordinates (Angstroms)
 Number     Number       Type             X           Y           Z
 ---------------------------------------------------------------------
      1          6           0        1.609229    0.098394   -0.036609
      2          8           0        2.169794   -0.708910   -0.719701
      3          6           0       -0.102952   -0.062480    0.077910
      4          9           0        1.429406   -0.224660    1.407442
      5          9           0       -0.904029    0.767278    0.597732
      6          9           0       -0.637138   -1.201688   -0.015363
      7          8           0        1.821584    1.440309   -0.060572
      8          1           0        2.519860    1.581752   -0.709550
 ---------------------------------------------------------------------

 ******    1 imaginary frequencies (negative Signs) ******

                      1                      2                      3
                      A                      A                      A
 Frequencies --   -363.7374               102.0415               143.5939
 Red. masses --      9.8046                15.2382                15.9401
 Frc consts  --      0.7643                 0.0935                 0.1936
 IR Inten    --      7.2214                 0.6241                48.9631

                      4                      5                      6
                      A                      A                      A
 Frequencies --    161.8826               298.3601               402.5391
 Red. masses --     15.5967                 2.5463                 2.1654
 Frc consts  --      0.2408                 0.1336                 0.2067
 IR Inten    --      0.4567                47.9722                27.5638

                      7                      8                      9
                      A                      A                      A
 Frequencies --    450.5308               540.2419               605.7282
 Red. masses --      4.7742                11.2049                11.0235
 Frc consts  --      0.5709                 1.9268                 2.3830
 IR Inten    --     21.6353                 8.5941                 6.3799

                     10                     11                     12
                      A                      A                      A
 Frequencies --    675.3159               730.3937               787.3586
 Red. masses --      6.7023                 9.4557                12.3579
 Frc consts  --      1.8009                 2.9721                 4.5138
 IR Inten    --    204.7193                53.4891               251.4936

                     13                     14                     15
                      A                      A                      A
 Frequencies --   1083.5509              1309.5470              1411.6541
 Red. masses --      8.2116                 1.4580                10.1961
 Frc consts  --      5.6804                 1.4731                11.9712
 IR Inten    --    393.3497                95.4185               109.1162

                     16                     17                     18
                      A                      A                      A
 Frequencies --   1431.7889              1790.4868              3861.0338
 Red. masses --     13.1373                11.5117                 1.0653
 Frc consts  --     15.8677                21.7436                 9.3571
 IR Inten    --    279.4573               636.1775               123.4508

 - Thermochemistry -
 -------------------
 Temperature   298.150 Kelvin.  Pressure   1.00000 Atm.
 Atom     1 has atomic number  6 and mass  12.00000

 Molecular mass:   113.99286 amu.
 Principal axes and moments of inertia in atomic units:
                           1         2         3
     Eigenvalues --   447.64538 772.44717 921.67071
           X            0.97453  -0.13148   0.18168
           Y            0.17749   0.94738  -0.26640
           Z           -0.13709   0.29186   0.94658
 This molecule is an asymmetric top.
 Rotational symmetry number  1.
 Warning -- assumption of classical behavior for rotation
           may cause significant error
 Rotational temperatures (Kelvin)      0.19349     0.11213     0.09397
 Rotational constants (GHZ):           4.03163     2.33639     1.95812
    1 imaginary frequencies ignored.
 Zero-point vibrational energy      94421.5 (Joules/Mol)
                                   22.56729 (Kcal/Mol)
 Warning -- explicit consideration of   8 degrees of freedom as
           vibrations may cause significant error
 Vibrational temperatures:    146.81   206.60   232.91   429.27   579.16
          (Kelvin)            648.21   777.29   871.51   971.63  1050.87
                             1132.83  1558.99  1884.15  2031.06  2060.02
                             2576.11  5555.17

 Zero-point correction=                           0.035963 (Hartree/Particle)
 Thermal correction to Energy=                    0.042508
 Thermal correction to Enthalpy=                  0.043452
 Thermal correction to Gibbs Free Energy=         0.004872
 Sum of electronic and zero-point Energies=           -526.692397
 Sum of electronic and thermal Energies=              -526.685852
 Sum of electronic and thermal Enthalpies=            -526.684908
 Sum of electronic and thermal Free Energies=         -526.723488

                     E (Thermal)             CV                S
                      KCal/Mol        Cal/Mol-Kelvin    Cal/Mol-Kelvin
 Total                   26.674             21.372             81.198
 Electronic               0.000              0.000              0.000
 Translational            0.889              2.981             40.108
 Rotational               0.889              2.981             27.257
 Vibrational             24.897             15.410             13.832
 Vibration     1          0.604              1.948              3.415
 Vibration     2          0.616              1.910              2.755
 Vibration     3          0.622              1.889              2.528
 Vibration     4          0.691              1.677              1.426
 Vibration     5          0.768              1.465              0.953
 Vibration     6          0.809              1.360              0.794
 Vibration     7          0.895              1.161              0.565
 Vibration     8          0.964              1.020              0.440

 Normal termination of Gaussian 16 at Sun May 25 04:33:21 2025.
