 Gaussian 16, Revision C.01,
 Gaussian 16:  ES64L-G16RevC.01  3-Jul-2019

 -----------------------------------------------------------------
 #P M062X/Def2TZVPP Symm(None) scf(xqc) pop(None) freq opt(CalcFC)
 -----------------------------------------------------------------

 ------------------------------
 Gaussian input prepared by ASE
 ------------------------------
 Symbolic Z-matrix:
 Charge =  0 Multiplicity = 1

 SCF Done:  E(RM062X) =  -526.598204376     A.U. after   18 cycles
 SCF Done:  E(RM062X) =  -526.635773663     A.U. after   17 cycles
 SCF Done:  E(RM062X) =  -526.638829020     A.U. after   16 cycles
 SCF Done:  E(RM062X) =  -526.645323036     A.U. after   17 cycles
 SCF Done:  E(RM062X) =  -526.647238832     A.U. after   17 cycles
 SCF Done:  E(RM062X) =  -526.649221190     A.U. after   15 cycles
 SCF Done:  E(RM062X) =  -526.649425540     A.U. after   14 cycles
 SCF Done:  E(RM062X) =  -526.649539365     A.U. after   13 cycles
 SCF Done:  E(RM062X) =  -526.649674582     A.U. after   14 cycles
 SCF Done:  E(RM062X) =  -526.649710660     A.U. after   12 cycles
 SCF Done:  E(RM062X) =  -526.649734279     A.U. after   10 cycles
 SCF Done:  E(RM062X) =  -526.649740852     A.U. after   10 cycles
 SCF Done:  E(RM062X) =  -526.649744914     A.U. after   10 cycles
 SCF Done:  E(RM062X) =  -526.649749953     A.U. after   12 cycles
 SCF Done:  E(RM062X) =  -526.649751588     A.U. after   10 cycles
 SCF Done:  E(RM062X) =  -526.649751925     A.U. after    9 cycles
 SCF Done:  E(RM062X) =  -526.649752052     A.U. after    8 cycles
 Optimization completed.
    -- Stationary point found.
 Normal termination of Gaussian 16 at Sun May 25 05:09:22 2025.

 ---------------------------------------------------------------------
 #P Geom=AllCheck Guess=TCheck SCRF=Check GenChk RM062X/def2TZVPP Freq
 ---------------------------------------------------------------------

 Structure from the checkpoint file:  "/tmp/Gau-290687.chk"
 ------------------------------
 Gaussian input prepared by ASE
 ------------------------------
 Charge =  0 Multiplicity = 1

                          Input orientation:
 ---------------------------------------------------------------------
 Center     Atomic      Atomic             Coordinates (Angstroms)
 Number     Number       Type             X           Y           Z
 ---------------------------------------------------------------------
      1          6           0        2.171435    1.924241   -0.372821
      2          8           0        0.907181   -0.109511   -0.141173
      3          6           0        2.981794    1.090957   -1.382453
      4          9           0        3.537858    0.045905   -0.785264
      5          9           0        2.208771    0.686690   -2.380917
      6          9           0        3.951273    1.840225   -1.889100
      7          8           0        1.237459    1.413733    0.197785
      8          1           0        0.148636   -0.205660    0.448665
 ---------------------------------------------------------------------

 SCF Done:  E(RM062X) =  -526.649752052     A.U. after    1 cycles

 Isotropic polarizability for W=    0.000000       41.25 Bohr**3.
 End of Minotr F.D. properties file   721 does not exist.

                      1                      2                      3
                      A                      A                      A
 Frequencies --     78.3458               150.8591               200.5291
 Red. masses --      9.8569                 1.1284                10.3285
 Frc consts  --      0.0356                 0.0151                 0.2447
 IR Inten    --     13.0295               107.5335                 4.6172

                      4                      5                      6
                      A                      A                      A
 Frequencies --    246.9592               299.4221               426.9275
 Red. masses --     14.0652                13.7454                14.3588
 Frc consts  --      0.5054                 0.7261                 1.5420
 IR Inten    --      7.4647               108.9180               252.6220

                      7                      8                      9
                      A                      A                      A
 Frequencies --    496.1219               497.3332               549.3503
 Red. masses --      9.2560                14.6017                16.3906
 Frc consts  --      1.3423                 2.1279                 2.9144
 IR Inten    --     16.6788                 3.6463                 2.3008

                     10                     11                     12
                      A                      A                      A
 Frequencies --    623.8596               742.6941               854.5999
 Red. masses --     14.6366                10.3022                13.8678
 Frc consts  --      3.3563                 3.3481                 5.9674
 IR Inten    --      1.8268                19.8995                 2.1518

                     13                     14                     15
                      A                      A                      A
 Frequencies --   1212.3136              1253.4286              1262.3125
 Red. masses --      1.1831                12.6200                13.2382
 Frc consts  --      1.0245                11.6818                12.4283
 IR Inten    --     79.9219               196.3728               311.1758

                     16                     17                     18
                      A                      A                      A
 Frequencies --   1276.9923              1666.7292              3849.6808
 Red. masses --     13.0391                11.9824                 1.0684
 Frc consts  --     12.5278                19.6121                 9.3292
 IR Inten    --    362.8134               120.9073               138.4049

 - Thermochemistry -
 -------------------
 Temperature   298.150 Kelvin.  Pressure   1.00000 Atm.
 Atom     1 has atomic number  6 and mass  12.00000

 Molecular mass:   113.99286 amu.
 Principal axes and moments of inertia in atomic units:
                           1         2         3
     Eigenvalues --   380.13911 848.86922 908.56605
           X            0.79182   0.01085   0.61066
           Y            0.21547   0.93059  -0.29594
           Z           -0.57148   0.36591   0.73452
 This molecule is an asymmetric top.
 Rotational symmetry number  1.
 Rotational temperatures (Kelvin)      0.22785     0.10203     0.09533
 Rotational constants (GHZ):           4.74758     2.12605     1.98636
 Zero-point vibrational energy      93837.8 (Joules/Mol)
                                   22.42778 (Kcal/Mol)
 Warning -- explicit consideration of   9 degrees of freedom as
           vibrations may cause significant error
 Vibrational temperatures:    112.72   217.05   288.52   355.32   430.80
          (Kelvin)            614.25   713.81   715.55   790.39   897.59
                             1068.57  1229.58  1744.25  1803.40  1816.19
                             1837.31  2398.05  5538.83

 Zero-point correction=                           0.035741 (Hartree/Particle)
 Thermal correction to Energy=                    0.042756
 Thermal correction to Enthalpy=                  0.043700
 Thermal correction to Gibbs Free Energy=         0.004312
 Sum of electronic and zero-point Energies=           -526.614011
 Sum of electronic and thermal Energies=              -526.606996
 Sum of electronic and thermal Enthalpies=            -526.606052
 Sum of electronic and thermal Free Energies=         -526.645440

                     E (Thermal)             CV                S
                      KCal/Mol        Cal/Mol-Kelvin    Cal/Mol-Kelvin
 Total                   26.830             23.210             82.901
 Electronic               0.000              0.000              0.000
 Translational            0.889              2.981             40.108
 Rotational               0.889              2.981             27.174
 Vibrational             25.052             17.249             15.618
 Vibration     1          0.600              1.964              3.932
 Vibration     2          0.618              1.902              2.661
 Vibration     3          0.638              1.839              2.128
 Vibration     4          0.661              1.768              1.752
 Vibration     5          0.692              1.675              1.420
 Vibration     6          0.789              1.412              0.869
 Vibration     7          0.852              1.259              0.668
 Vibration     8          0.853              1.256              0.665
 Vibration     9          0.905              1.141              0.546

 Optimization completed.
    -- Stationary point found.
 Normal termination of Gaussian 16 at Sun May 25 05:10:30 2025.
