 Gaussian 16, Revision C.01,
 Gaussian 16:  ES64L-G16RevC.01  3-Jul-2019

 -----------------------------------------------------------------
 #P M062X/Def2TZVPP Symm(None) scf(xqc) pop(None) freq opt(CalcFC)
 -----------------------------------------------------------------

 ------------------------------
 Gaussian input prepared by ASE
 ------------------------------
 Symbolic Z-matrix:
 Charge =  0 Multiplicity = 1

 SCF Done:  E(RM062X) =  -526.764252804     A.U. after   13 cycles
 SCF Done:  E(RM062X) =  -526.787395044     A.U. after   14 cycles
 SCF Done:  E(RM062X) =  -526.788056115     A.U. after   12 cycles
 SCF Done:  E(RM062X) =  -526.788083655     A.U. after   11 cycles
 SCF Done:  E(RM062X) =  -526.788151432     A.U. after   11 cycles
 SCF Done:  E(RM062X) =  -526.788151842     A.U. after    8 cycles
 Optimization completed.
    -- Stationary point found.
 Normal termination of Gaussian 16 at Sun May 25 04:28:11 2025.

 ---------------------------------------------------------------------
 #P Geom=AllCheck Guess=TCheck SCRF=Check GenChk RM062X/def2TZVPP Freq
 ---------------------------------------------------------------------

 Structure from the checkpoint file:  "/tmp/Gau-126368.chk"
 ------------------------------
 Gaussian input prepared by ASE
 ------------------------------
 Charge =  0 Multiplicity = 1

                          Input orientation:
 ---------------------------------------------------------------------
 Center     Atomic      Atomic             Coordinates (Angstroms)
 Number     Number       Type             X           Y           Z
 ---------------------------------------------------------------------
      1          6           0        1.281028    0.044554   -0.205349
      2          8           0       -0.053273    0.013101   -0.073978
      3          6           0       -0.593845   -1.249772    0.009108
      4          9           0       -0.135341   -1.906770    1.059380
      5          9           0       -1.897984   -1.100117    0.132630
      6          9           0       -0.343566   -1.958077   -1.077444
      7          8           0        1.560681    1.314552   -0.263097
      8          1           0        2.515239    1.396070   -0.358505
 ---------------------------------------------------------------------

 SCF Done:  E(RM062X) =  -526.788151842     A.U. after    1 cycles

 Isotropic polarizability for W=    0.000000       34.28 Bohr**3.
 End of Minotr F.D. properties file   721 does not exist.

                      1                      2                      3
                      A                      A                      A
 Frequencies --    117.8624               160.4609               214.9345
 Red. masses --      8.5352                13.8446                 9.5423
 Frc consts  --      0.0699                 0.2100                 0.2597
 IR Inten    --      1.6789                 0.1176                 0.9163

                      4                      5                      6
                      A                      A                      A
 Frequencies --    440.7845               443.3099               470.7461
 Red. masses --     14.3253                15.1060                11.1432
 Frc consts  --      1.6399                 1.7491                 1.4549
 IR Inten    --      1.1418                 0.2276                 0.7598

                      7                      8                      9
                      A                      A                      A
 Frequencies --    627.5151               635.4126               740.2075
 Red. masses --     12.4864                13.4156                 1.1590
 Frc consts  --      2.8969                 3.1913                 0.3742
 IR Inten    --     10.1681                 9.1116                82.6752

                     10                     11                     12
                      A                      A                      A
 Frequencies --    749.6062               947.6529              1148.9796
 Red. masses --     12.9536                 7.9038                 4.0131
 Frc consts  --      4.2885                 4.1820                 3.1214
 IR Inten    --     48.7763               112.1683               354.1071

                     13                     14                     15
                      A                      A                      A
 Frequencies --   1238.3617              1303.1678              1314.4311
 Red. masses --      4.1269                13.0326                 7.3333
 Frc consts  --      3.7288                13.0401                 7.4649
 IR Inten    --    535.2821               347.1696               342.7844

                     16                     17                     18
                      A                      A                      A
 Frequencies --   1385.2216              1419.4705              3871.0697
 Red. masses --      2.9347                 7.2038                 1.0665
 Frc consts  --      3.3178                 8.5519                 9.4165
 IR Inten    --     91.1484               216.1990               196.8343

 - Thermochemistry -
 -------------------
 Temperature   298.150 Kelvin.  Pressure   1.00000 Atm.
 Atom     1 has atomic number  6 and mass  12.00000

 Molecular mass:   113.99286 amu.
 Principal axes and moments of inertia in atomic units:
                           1         2         3
     Eigenvalues --   328.497081016.484161032.08194
           X            0.68830   0.71886   0.09734
           Y            0.72047  -0.69307   0.02385
           Z           -0.08461  -0.05371   0.99497
 This molecule is an asymmetric top.
 Rotational symmetry number  1.
 Rotational temperatures (Kelvin)      0.26367     0.08521     0.08392
 Rotational constants (GHZ):           5.49393     1.77547     1.74864
 Zero-point vibrational energy     103053.5 (Joules/Mol)
                                   24.63037 (Kcal/Mol)
 Warning -- explicit consideration of   6 degrees of freedom as
           vibrations may cause significant error
 Vibrational temperatures:    169.58   230.87   309.24   634.19   637.82
          (Kelvin)            677.30   902.85   914.22  1064.99  1078.52
                             1363.46  1653.13  1781.73  1874.97  1891.17
                             1993.02  2042.30  5569.61

 Zero-point correction=                           0.039251 (Hartree/Particle)
 Thermal correction to Energy=                    0.045331
 Thermal correction to Enthalpy=                  0.046275
 Thermal correction to Gibbs Free Energy=         0.008691
 Sum of electronic and zero-point Energies=           -526.748901
 Sum of electronic and thermal Energies=              -526.742821
 Sum of electronic and thermal Enthalpies=            -526.741877
 Sum of electronic and thermal Free Energies=         -526.779461

                     E (Thermal)             CV                S
                      KCal/Mol        Cal/Mol-Kelvin    Cal/Mol-Kelvin
 Total                   28.445             20.458             79.102
 Electronic               0.000              0.000              0.000
 Translational            0.889              2.981             40.108
 Rotational               0.889              2.981             27.335
 Vibrational             26.668             14.497             11.658
 Vibration     1          0.608              1.934              3.135
 Vibration     2          0.622              1.891              2.544
 Vibration     3          0.645              1.818              2.001
 Vibration     4          0.801              1.381              0.824
 Vibration     5          0.803              1.376              0.816
 Vibration     6          0.828              1.315              0.735

 Optimization completed.
    -- Stationary point found.
 Normal termination of Gaussian 16 at Sun May 25 04:29:22 2025.
