 Gaussian 16, Revision C.01,
 Gaussian 16:  ES64L-G16RevC.01  3-Jul-2019

 -----------------------------------------------------------------
 #P M062X/Def2TZVPP Symm(None) scf(xqc) pop(None) freq opt(CalcFC)
 -----------------------------------------------------------------

 ------------------------------
 Gaussian input prepared by ASE
 ------------------------------
 Symbolic Z-matrix:
 Charge =  0 Multiplicity = 1

 SCF Done:  E(RM062X) =  -526.735950019     A.U. after   14 cycles
 SCF Done:  E(RM062X) =  -526.765366861     A.U. after   16 cycles
 SCF Done:  E(RM062X) =  -526.775097425     A.U. after   15 cycles
 SCF Done:  E(RM062X) =  -526.777885275     A.U. after   14 cycles
 SCF Done:  E(RM062X) =  -526.777324342     A.U. after   15 cycles
 SCF Done:  E(RM062X) =  -526.778850662     A.U. after   14 cycles
 SCF Done:  E(RM062X) =  -526.779964862     A.U. after   13 cycles
 SCF Done:  E(RM062X) =  -526.780429750     A.U. after   10 cycles
 SCF Done:  E(RM062X) =  -526.781065986     A.U. after   13 cycles
 SCF Done:  E(RM062X) =  -526.781128285     A.U. after   11 cycles
 SCF Done:  E(RM062X) =  -526.781132480     A.U. after   11 cycles
 SCF Done:  E(RM062X) =  -526.781137033     A.U. after    8 cycles
 Optimization completed.
    -- Stationary point found.
 Normal termination of Gaussian 16 at Sun May 25 04:29:41 2025.

 ---------------------------------------------------------------------
 #P Geom=AllCheck Guess=TCheck SCRF=Check GenChk RM062X/def2TZVPP Freq
 ---------------------------------------------------------------------

 Structure from the checkpoint file:  "/tmp/Gau-197211.chk"
 ------------------------------
 Gaussian input prepared by ASE
 ------------------------------
 Charge =  0 Multiplicity = 1

                          Input orientation:
 ---------------------------------------------------------------------
 Center     Atomic      Atomic             Coordinates (Angstroms)
 Number     Number       Type             X           Y           Z
 ---------------------------------------------------------------------
      1          6           0        1.300462    0.244984    0.239088
      2          8           0       -0.000608    0.062455   -0.025277
      3          6           0       -0.687276    0.667851   -1.066074
      4          9           0       -0.191767    0.331769   -2.245218
      5          9           0       -1.931919    0.239960   -0.994204
      6          9           0       -0.685961    1.985773   -0.956764
      7          8           0        1.798491    1.076844   -0.639556
      8          1           0        2.731520    1.194231   -0.432861
 ---------------------------------------------------------------------

 SCF Done:  E(RM062X) =  -526.781137033     A.U. after    1 cycles

 Isotropic polarizability for W=    0.000000       34.07 Bohr**3.
 End of Minotr F.D. properties file   721 does not exist.

                      1                      2                      3
                      A                      A                      A
 Frequencies --    115.0660               217.0136               238.6622
 Red. masses --     10.0584                 9.2276                11.4596
 Frc consts  --      0.0785                 0.2560                 0.3846
 IR Inten    --      3.3631                 2.1259                 0.2355

                      4                      5                      6
                      A                      A                      A
 Frequencies --    384.6323               455.0630               559.5161
 Red. masses --     13.6218                12.1036                13.4651
 Frc consts  --      1.1873                 1.4768                 2.4836
 IR Inten    --      0.6186                 1.4401                 4.8045

                      7                      8                      9
                      A                      A                      A
 Frequencies --    587.1381               631.0143               733.5148
 Red. masses --     12.1381                 8.2435                 1.2493
 Frc consts  --      2.4654                 1.9339                 0.3960
 IR Inten    --     10.3193                21.8239                75.0280

                     10                     11                     12
                      A                      A                      A
 Frequencies --    807.3849               887.3970              1116.5437
 Red. masses --      7.4340                16.9146                 3.6892
 Frc consts  --      2.8552                 7.8478                 2.7098
 IR Inten    --     25.2754                 1.6912               363.7962

                     13                     14                     15
                      A                      A                      A
 Frequencies --   1186.8950              1296.9930              1308.4544
 Red. masses --      4.6748                13.0579                11.8878
 Frc consts  --      3.8801                12.9419                11.9914
 IR Inten    --    290.4088               375.5470               189.7328

                     16                     17                     18
                      A                      A                      A
 Frequencies --   1368.6815              1374.0900              3868.4600
 Red. masses --      8.7030                 2.2720                 1.0667
 Frc consts  --      9.6056                 2.5275                 9.4056
 IR Inten    --    468.5258               152.0421               196.4699

 - Thermochemistry -
 -------------------
 Temperature   298.150 Kelvin.  Pressure   1.00000 Atm.
 Atom     1 has atomic number  6 and mass  12.00000

 Molecular mass:   113.99286 amu.
 Principal axes and moments of inertia in atomic units:
                           1         2         3
     Eigenvalues --   360.59879 787.61628 833.41174
           X            0.94899  -0.21679  -0.22896
           Y            0.03948  -0.63872   0.76843
           Z            0.31282   0.73827   0.59758
 This molecule is an asymmetric top.
 Rotational symmetry number  1.
 Rotational temperatures (Kelvin)      0.24019     0.10997     0.10393
 Rotational constants (GHZ):           5.00485     2.29140     2.16549
 Zero-point vibrational energy     102499.2 (Joules/Mol)
                                   24.49789 (Kcal/Mol)
 Warning -- explicit consideration of   7 degrees of freedom as
           vibrations may cause significant error
 Vibrational temperatures:    165.55   312.23   343.38   553.40   654.73
          (Kelvin)            805.02   844.76   907.89  1055.36  1161.65
                             1276.77  1606.46  1707.68  1866.08  1882.57
                             1969.23  1977.01  5565.85

 Zero-point correction=                           0.039040 (Hartree/Particle)
 Thermal correction to Energy=                    0.045007
 Thermal correction to Enthalpy=                  0.045951
 Thermal correction to Gibbs Free Energy=         0.008863
 Sum of electronic and zero-point Energies=           -526.742097
 Sum of electronic and thermal Energies=              -526.736130
 Sum of electronic and thermal Enthalpies=            -526.735186
 Sum of electronic and thermal Free Energies=         -526.772274

                     E (Thermal)             CV                S
                      KCal/Mol        Cal/Mol-Kelvin    Cal/Mol-Kelvin
 Total                   28.242             20.422             78.060
 Electronic               0.000              0.000              0.000
 Translational            0.889              2.981             40.108
 Rotational               0.889              2.981             26.962
 Vibrational             26.465             14.460             10.990
 Vibration     1          0.608              1.937              3.182
 Vibration     2          0.646              1.815              1.984
 Vibration     3          0.657              1.781              1.813
 Vibration     4          0.754              1.503              1.021
 Vibration     5          0.813              1.350              0.781
 Vibration     6          0.915              1.119              0.525
 Vibration     7          0.944              1.059              0.472

 Optimization completed.
    -- Stationary point found.
 Normal termination of Gaussian 16 at Sun May 25 04:30:57 2025.
