 Gaussian 16, Revision C.01,
 Gaussian 16:  ES64L-G16RevC.01  3-Jul-2019

 ----------------------------------------------------------------------
 #P M062X/Def2TZVPP Symm(None) scf(xqc) pop(None) opt(NoFreeze,TS,CalcA
 ll,NoEigentest,MaxCycle=999)
 ----------------------------------------------------------------------

 ------------------------------
 Gaussian input prepared by ASE
 ------------------------------
 Symbolic Z-matrix:
 Charge =  0 Multiplicity = 1

 SCF Done:  E(RM062X) =  -526.674150466     A.U. after   15 cycles
 SCF Done:  E(RM062X) =  -526.691003268     A.U. after   16 cycles
 SCF Done:  E(RM062X) =  -526.691271473     A.U. after   12 cycles
 SCF Done:  E(RM062X) =  -526.691271811     A.U. after    9 cycles

 Isotropic polarizability for W=    0.000000       36.20 Bohr**3.
 End of Minotr F.D. properties file   721 does not exist.

 Optimization completed.
    -- Stationary point found.

                          Input orientation:
 ---------------------------------------------------------------------
 Center     Atomic      Atomic             Coordinates (Angstroms)
 Number     Number       Type             X           Y           Z
 ---------------------------------------------------------------------
      1          6           0        1.770625    0.148094   -0.074031
      2          8           0        1.239146   -0.308768   -1.124768
      3          6           0       -0.006387    0.007233   -0.013412
      4          9           0       -0.287267    1.021793    0.825710
      5          9           0       -0.930448    0.168715   -0.966838
      6          9           0       -0.209011   -1.140033    0.582995
      7          8           0        3.015171    0.544306   -0.205936
      8          1           0        3.341368    0.863011    0.642953
 ---------------------------------------------------------------------

 ******    1 imaginary frequencies (negative Signs) ******

                      1                      2                      3
                      A                      A                      A
 Frequencies --   -772.8729                87.8760               145.0917
 Red. masses --     12.6580                 9.4371                12.5242
 Frc consts  --      4.4548                 0.0429                 0.1553
 IR Inten    --     74.8722                 5.0772                 5.0808

                      4                      5                      6
                      A                      A                      A
 Frequencies --    354.2101               420.5586               464.7974
 Red. masses --      9.8633                11.0783                 9.0489
 Frc consts  --      0.7291                 1.1545                 1.1518
 IR Inten    --     33.2149                32.5097                34.0837

                      7                      8                      9
                      A                      A                      A
 Frequencies --    526.8606               592.6567               634.6022
 Red. masses --     12.9864                13.8242                 1.2581
 Frc consts  --      2.1239                 2.8609                 0.2985
 IR Inten    --     15.1053                 1.2663                91.4523

                     10                     11                     12
                      A                      A                      A
 Frequencies --    706.2329               748.8613               943.9136
 Red. masses --      8.4629                12.9108                12.8196
 Frc consts  --      2.4869                 4.2658                 6.7296
 IR Inten    --     65.7683               246.0450               681.4957

                     13                     14                     15
                      A                      A                      A
 Frequencies --   1054.1041              1186.0296              1299.1460
 Red. masses --     10.4077                 1.3795                13.1686
 Frc consts  --      6.8135                 1.1433                13.0950
 IR Inten    --    279.5399                54.4640               332.5933

                     16                     17                     18
                      A                      A                      A
 Frequencies --   1350.5761              1613.8429              3858.0290
 Red. masses --      7.6947                 8.3564                 1.0663
 Frc consts  --      8.2695                12.8231                 9.3509
 IR Inten    --    278.0033               171.0179               190.3193

 - Thermochemistry -
 -------------------
 Temperature   298.150 Kelvin.  Pressure   1.00000 Atm.
 Atom     1 has atomic number  6 and mass  12.00000

 Molecular mass:   113.99286 amu.
 Principal axes and moments of inertia in atomic units:
                           1         2         3
     Eigenvalues --   377.08941 887.73889 941.77151
           X            0.98957   0.01161  -0.14360
           Y            0.11356   0.55056   0.82704
           Z           -0.08866   0.83472  -0.54350
 This molecule is an asymmetric top.
 Rotational symmetry number  1.
 Rotational temperatures (Kelvin)      0.22969     0.09757     0.09197
 Rotational constants (GHZ):           4.78598     2.03296     1.91633
    1 imaginary frequencies ignored.
 Zero-point vibrational energy      95625.8 (Joules/Mol)
                                   22.85512 (Kcal/Mol)
 Warning -- explicit consideration of   7 degrees of freedom as
           vibrations may cause significant error
 Vibrational temperatures:    126.43   208.75   509.63   605.09   668.74
          (Kelvin)            758.03   852.70   913.05  1016.11  1077.44
                             1358.08  1516.62  1706.43  1869.18  1943.18
                             2321.96  5550.84

 Zero-point correction=                           0.036422 (Hartree/Particle)
 Thermal correction to Energy=                    0.042395
 Thermal correction to Enthalpy=                  0.043339
 Thermal correction to Gibbs Free Energy=         0.005859
 Sum of electronic and zero-point Energies=           -526.654850
 Sum of electronic and thermal Energies=              -526.648877
 Sum of electronic and thermal Enthalpies=            -526.647933
 Sum of electronic and thermal Free Energies=         -526.685413

                     E (Thermal)             CV                S
                      KCal/Mol        Cal/Mol-Kelvin    Cal/Mol-Kelvin
 Total                   26.603             20.203             78.883
 Electronic               0.000              0.000              0.000
 Translational            0.889              2.981             40.108
 Rotational               0.889              2.981             27.247
 Vibrational             24.826             14.241             11.528
 Vibration     1          0.601              1.958              3.707
 Vibration     2          0.616              1.908              2.736
 Vibration     3          0.730              1.567              1.147
 Vibration     4          0.783              1.426              0.890
 Vibration     5          0.822              1.328              0.752
 Vibration     6          0.882              1.191              0.594
 Vibration     7          0.950              1.047              0.462

 Normal termination of Gaussian 16 at Sun May 25 04:38:32 2025.
