 Gaussian 16, Revision C.01,
 Gaussian 16:  ES64L-G16RevC.01  3-Jul-2019

 -----------------------------------------------------------------
 #P M062X/Def2TZVPP Symm(None) scf(xqc) pop(None) freq opt(CalcFC)
 -----------------------------------------------------------------

 ------------------------------
 Gaussian input prepared by ASE
 ------------------------------
 Symbolic Z-matrix:
 Charge =  0 Multiplicity = 1

 SCF Done:  E(RM062X) =  -188.595890141     A.U. after   11 cycles
 Optimization completed.
    -- Stationary point found.
 Normal termination of Gaussian 16 at Sun May 25 04:33:20 2025.

 ---------------------------------------------------------------------
 #P Geom=AllCheck Guess=TCheck SCRF=Check GenChk RM062X/def2TZVPP Freq
 ---------------------------------------------------------------------

 Structure from the checkpoint file:  "/tmp/Gau-229573.chk"
 ------------------------------
 Gaussian input prepared by ASE
 ------------------------------
 Charge =  0 Multiplicity = 1

                          Input orientation:
 ---------------------------------------------------------------------
 Center     Atomic      Atomic             Coordinates (Angstroms)
 Number     Number       Type             X           Y           Z
 ---------------------------------------------------------------------
      1          6           0        2.063312   -0.115223   -0.665953
      2          8           0        2.112305   -0.690609   -1.648215
      3          8           0        2.015196    0.460096    0.316063
 ---------------------------------------------------------------------

 SCF Done:  E(RM062X) =  -188.595890141     A.U. after    1 cycles

 Isotropic polarizability for W=    0.000000       14.54 Bohr**3.
 End of Minotr F.D. properties file   721 does not exist.

                      1                      2                      3
                      A                      A                      A
 Frequencies --    644.4493              1490.0162              2598.1861
 Red. masses --     12.8774                15.9949                12.8774
 Frc consts  --      3.1510                20.9225                51.2174
 IR Inten    --     38.2361                 0.0005               815.5729

 - Thermochemistry -
 -------------------
 Temperature   298.150 Kelvin.  Pressure   1.00000 Atm.
 Atom     1 has atomic number  6 and mass  12.00000

 Molecular mass:    43.98983 amu.
 Principal axes and moments of inertia in atomic units:
                           1         2         3
     Eigenvalues --     0.00001 148.27890 148.27890
           X           -0.04262   0.99615  -0.07656
           Y            0.50501   0.08760   0.85866
           Z            0.86206  -0.00207  -0.50680
 This molecule is an asymmetric top.
 Rotational symmetry number  1.
 Rotational temperatures (Kelvin) ************     0.58413     0.58413
 Rotational constants (GHZ):      ************    12.17126    12.17126
 Zero-point vibrational energy      28307.5 (Joules/Mol)
                                    6.76566 (Kcal/Mol)
 Vibrational temperatures:    927.22  2143.80  3738.21
          (Kelvin)

 Zero-point correction=                           0.010782 (Hartree/Particle)
 Thermal correction to Energy=                    0.013757
 Thermal correction to Enthalpy=                  0.014701
 Thermal correction to Gibbs Free Energy=        -0.005935
 Sum of electronic and zero-point Energies=           -188.585108
 Sum of electronic and thermal Energies=              -188.582134
 Sum of electronic and thermal Enthalpies=            -188.581189
 Sum of electronic and thermal Free Energies=         -188.601825

                     E (Thermal)             CV                S
                      KCal/Mol        Cal/Mol-Kelvin    Cal/Mol-Kelvin
 Total                    8.632              6.979             43.431
 Electronic               0.000              0.000              0.000
 Translational            0.889              2.981             37.270
 Rotational               0.889              2.981              5.769
 Vibrational              6.855              1.018              0.392

 Optimization completed.
    -- Stationary point found.
 Normal termination of Gaussian 16 at Sun May 25 04:33:25 2025.
