 Gaussian 16, Revision C.01,
 Gaussian 16:  ES64L-G16RevC.01  3-Jul-2019

 -----------------------------------------------------------------
 #P M062X/Def2TZVPP Symm(None) scf(xqc) pop(None) freq opt(CalcFC)
 -----------------------------------------------------------------

 ------------------------------
 Gaussian input prepared by ASE
 ------------------------------
 Symbolic Z-matrix:
 Charge =  0 Multiplicity = 1

 SCF Done:  E(RM062X) =  -289.037433152     A.U. after   13 cycles
 Optimization completed.
    -- Stationary point found.
 Normal termination of Gaussian 16 at Sun May 25 04:22:22 2025.

 ---------------------------------------------------------------------
 #P Geom=AllCheck Guess=TCheck SCRF=Check GenChk RM062X/def2TZVPP Freq
 ---------------------------------------------------------------------

 Structure from the checkpoint file:  "/tmp/Gau-110599.chk"
 ------------------------------
 Gaussian input prepared by ASE
 ------------------------------
 Charge =  0 Multiplicity = 1

                          Input orientation:
 ---------------------------------------------------------------------
 Center     Atomic      Atomic             Coordinates (Angstroms)
 Number     Number       Type             X           Y           Z
 ---------------------------------------------------------------------
      1          6           0        1.341741    0.000000    0.000000
      2          8           0        1.978657   -0.984326   -0.000020
      3          9           0        0.000000    0.000000    0.000000
      4          8           0        1.797430    1.241340    0.000000
      5          1           0        1.065557    1.868357   -0.000791
 ---------------------------------------------------------------------

 SCF Done:  E(RM062X) =  -289.037433152     A.U. after    1 cycles

 Isotropic polarizability for W=    0.000000       19.43 Bohr**3.
 End of Minotr F.D. properties file   721 does not exist.

                      1                      2                      3
                      A                      A                      A
 Frequencies --    501.0432               567.8843               628.6297
 Red. masses --      1.1032                 5.2491                14.8450
 Frc consts  --      0.1632                 0.9974                 3.4564
 IR Inten    --    132.1682                16.9787                 3.8474

                      4                      5                      6
                      A                      A                      A
 Frequencies --    796.0205               968.6168              1213.3470
 Red. masses --     12.3124                11.4987                 1.9322
 Frc consts  --      4.5966                 6.3563                 1.6760
 IR Inten    --     31.1994                88.9577                29.6676

                      7                      8                      9
                      A                      A                      A
 Frequencies --   1358.8624              2006.5946              3858.3146
 Red. masses --      2.7323                11.1382                 1.0659
 Frc consts  --      2.9726                26.4231                 9.3486
 IR Inten    --    508.4272               532.2453               138.5858

 - Thermochemistry -
 -------------------
 Temperature   298.150 Kelvin.  Pressure   1.00000 Atm.
 Atom     1 has atomic number  6 and mass  12.00000

 Molecular mass:    63.99606 amu.
 Principal axes and moments of inertia in atomic units:
                           1         2         3
     Eigenvalues --   151.17436 156.34943 307.52378
           X           -0.68561   0.72797   0.00000
           Y            0.72797   0.68561   0.00002
           Z           -0.00002  -0.00002   1.00000
 This molecule is an asymmetric top.
 Rotational symmetry number  1.
 Rotational temperatures (Kelvin)      0.57294     0.55398     0.28165
 Rotational constants (GHZ):          11.93814    11.54300     5.86862
 Zero-point vibrational energy      71173.7 (Joules/Mol)
                                   17.01092 (Kcal/Mol)
 Warning -- explicit consideration of   2 degrees of freedom as
           vibrations may cause significant error
 Vibrational temperatures:    720.89   817.06   904.46  1145.30  1393.62
          (Kelvin)           1745.74  1955.10  2887.04  5551.25

 Zero-point correction=                           0.027109 (Hartree/Particle)
 Thermal correction to Energy=                    0.030634
 Thermal correction to Enthalpy=                  0.031578
 Thermal correction to Gibbs Free Energy=         0.001249
 Sum of electronic and zero-point Energies=           -289.010325
 Sum of electronic and thermal Energies=              -289.006799
 Sum of electronic and thermal Enthalpies=            -289.005855
 Sum of electronic and thermal Free Energies=         -289.036184

                     E (Thermal)             CV                S
                      KCal/Mol        Cal/Mol-Kelvin    Cal/Mol-Kelvin
 Total                   19.223             10.682             63.834
 Electronic               0.000              0.000              0.000
 Translational            0.889              2.981             38.388
 Rotational               0.889              2.981             23.501
 Vibrational             17.446              4.720              1.945
 Vibration     1          0.856              1.248              0.656
 Vibration     2          0.924              1.101              0.508

 Optimization completed.
    -- Stationary point found.
 Normal termination of Gaussian 16 at Sun May 25 04:22:39 2025.
