 Gaussian 16, Revision C.01,
 Gaussian 16:  ES64L-G16RevC.01  3-Jul-2019

 -----------------------------------------------------------------
 #P M062X/Def2TZVPP Symm(None) scf(xqc) pop(None) freq opt(CalcFC)
 -----------------------------------------------------------------

 ------------------------------
 Gaussian input prepared by ASE
 ------------------------------
 Symbolic Z-matrix:
 Charge =  0 Multiplicity = 1

 SCF Done:  E(RM062X) =  -289.027327179     A.U. after   13 cycles
 SCF Done:  E(RM062X) =  -289.038483119     A.U. after   14 cycles
 SCF Done:  E(RM062X) =  -289.040190817     A.U. after   14 cycles
 SCF Done:  E(RM062X) =  -289.040366333     A.U. after   11 cycles
 SCF Done:  E(RM062X) =  -289.040376182     A.U. after    8 cycles
 SCF Done:  E(RM062X) =  -289.040376879     A.U. after    7 cycles
 Optimization completed.
    -- Stationary point found.
 Normal termination of Gaussian 16 at Sun May 25 04:22:39 2025.

 ---------------------------------------------------------------------
 #P Geom=AllCheck Guess=TCheck SCRF=Check GenChk RM062X/def2TZVPP Freq
 ---------------------------------------------------------------------

 Structure from the checkpoint file:  "/tmp/Gau-110597.chk"
 ------------------------------
 Gaussian input prepared by ASE
 ------------------------------
 Charge =  0 Multiplicity = 1

                          Input orientation:
 ---------------------------------------------------------------------
 Center     Atomic      Atomic             Coordinates (Angstroms)
 Number     Number       Type             X           Y           Z
 ---------------------------------------------------------------------
      1          6           0        1.293526    0.019250   -0.073237
      2          8           0        1.999614   -0.926665   -0.096218
      3          9           0        0.006734   -0.038632    0.204991
      4          8           0        1.606761    1.284480   -0.307002
      5          1           0        2.549094    1.319870   -0.510283
 ---------------------------------------------------------------------

 SCF Done:  E(RM062X) =  -289.040376879     A.U. after    1 cycles

 Isotropic polarizability for W=    0.000000       19.34 Bohr**3.
 End of Minotr F.D. properties file   721 does not exist.

                      1                      2                      3
                      A                      A                      A
 Frequencies --    569.6049               571.7153               630.3368
 Red. masses --      2.5190                 1.4892                10.7062
 Frc consts  --      0.4815                 0.2868                 2.5063
 IR Inten    --     42.5440                81.3105                19.4614

                      4                      5                      6
                      A                      A                      A
 Frequencies --    810.4103              1000.9465              1225.2062
 Red. masses --     12.2736                 6.5152                 2.0702
 Frc consts  --      4.7493                 3.8459                 1.8309
 IR Inten    --     45.8285                58.0068               313.0014

                      7                      8                      9
                      A                      A                      A
 Frequencies --   1420.2227              1952.5205              3853.6693
 Red. masses --      3.0315                11.9842                 1.0653
 Frc consts  --      3.6026                26.9186                 9.3212
 IR Inten    --    204.7896               574.3813               133.3576

 - Thermochemistry -
 -------------------
 Temperature   298.150 Kelvin.  Pressure   1.00000 Atm.
 Atom     1 has atomic number  6 and mass  12.00000

 Molecular mass:    63.99606 amu.
 Principal axes and moments of inertia in atomic units:
                           1         2         3
     Eigenvalues --   149.45056 156.34543 305.79599
           X            0.95042  -0.23466   0.20407
           Y            0.21156   0.96884   0.12878
           Z           -0.22793  -0.07922   0.97045
 This molecule is an asymmetric top.
 Rotational symmetry number  1.
 Rotational temperatures (Kelvin)      0.57955     0.55399     0.28324
 Rotational constants (GHZ):          12.07584    11.54329     5.90178
 Zero-point vibrational energy      71983.1 (Joules/Mol)
                                   17.20437 (Kcal/Mol)
 Warning -- explicit consideration of   2 degrees of freedom as
           vibrations may cause significant error
 Vibrational temperatures:    819.53   822.57   906.91  1166.00  1440.14
          (Kelvin)           1762.80  2043.38  2809.24  5544.57

 Zero-point correction=                           0.027417 (Hartree/Particle)
 Thermal correction to Energy=                    0.030882
 Thermal correction to Enthalpy=                  0.031826
 Thermal correction to Gibbs Free Energy=         0.001596
 Sum of electronic and zero-point Energies=           -289.012960
 Sum of electronic and thermal Energies=              -289.009495
 Sum of electronic and thermal Enthalpies=            -289.008551
 Sum of electronic and thermal Free Energies=         -289.038781

                     E (Thermal)             CV                S
                      KCal/Mol        Cal/Mol-Kelvin    Cal/Mol-Kelvin
 Total                   19.379             10.431             63.625
 Electronic               0.000              0.000              0.000
 Translational            0.889              2.981             38.388
 Rotational               0.889              2.981             23.484
 Vibrational             17.601              4.470              1.754
 Vibration     1          0.926              1.097              0.505
 Vibration     2          0.928              1.092              0.501

 Optimization completed.
    -- Stationary point found.
 Normal termination of Gaussian 16 at Sun May 25 04:22:54 2025.
