 Gaussian 16, Revision C.01,
 Gaussian 16:  ES64L-G16RevC.01  3-Jul-2019

 -----------------------------------------------------------------
 #P M062X/Def2TZVPP Symm(None) scf(xqc) pop(None) freq opt(CalcFC)
 -----------------------------------------------------------------

 ------------------------------
 Gaussian input prepared by ASE
 ------------------------------
 Symbolic Z-matrix:
 Charge =  0 Multiplicity = 2

 SCF Done:  E(UM062X) =  -337.599904469     A.U. after   14 cycles
 Optimization completed.
    -- Stationary point found.
 Normal termination of Gaussian 16 at Sun May 25 03:27:00 2025.

 ---------------------------------------------------------------------
 #P Geom=AllCheck Guess=TCheck SCRF=Check GenChk UM062X/def2TZVPP Freq
 ---------------------------------------------------------------------

 Structure from the checkpoint file:  "/tmp/Gau-213648.chk"
 ------------------------------
 Gaussian input prepared by ASE
 ------------------------------
 Charge =  0 Multiplicity = 2

                          Input orientation:
 ---------------------------------------------------------------------
 Center     Atomic      Atomic             Coordinates (Angstroms)
 Number     Number       Type             X           Y           Z
 ---------------------------------------------------------------------
      1          6           0       -0.047158    0.004831   -0.000079
      2          9           0       -0.444625    0.632446    1.080897
      3          9           0       -0.443820    0.627107   -1.084432
      4          9           0       -0.443984   -1.245189    0.002856
 ---------------------------------------------------------------------

 SCF Done:  E(UM062X) =  -337.599904469     A.U. after    1 cycles

 Isotropic polarizability for W=    0.000000       14.83 Bohr**3.
 End of Minotr F.D. properties file   721 does not exist.

                      1                      2                      3
                      A                      A                      A
 Frequencies --    518.7444               518.7534               712.7128
 Red. masses --     18.2286                18.2255                16.1413
 Frc consts  --      2.8901                 2.8897                 4.8308
 IR Inten    --      2.2589                 2.2975                16.4603

                      4                      5                      6
                      A                      A                      A
 Frequencies --   1126.6959              1317.5526              1318.0706
 Red. masses --     14.5608                13.3490                13.3507
 Frc consts  --     10.8905                13.6532                13.6657
 IR Inten    --     47.2902               366.8847               366.2838

 - Thermochemistry -
 -------------------
 Temperature   298.150 Kelvin.  Pressure   1.00000 Atm.
 Atom     1 has atomic number  6 and mass  12.00000

 Molecular mass:    68.99521 amu.
 Principal axes and moments of inertia in atomic units:
                           1         2         3
     Eigenvalues --   164.58461 164.62948 318.05634
           X           -0.00037  -0.00013   1.00000
           Y            0.00180   1.00000   0.00013
           Z            1.00000  -0.00180   0.00037
 This molecule is an asymmetric top.
 Rotational symmetry number  1.
 Rotational temperatures (Kelvin)      0.52626     0.52611     0.27232
 Rotational constants (GHZ):          10.96543    10.96244     5.67428
 Zero-point vibrational energy      32972.2 (Joules/Mol)
                                    7.88056 (Kcal/Mol)
 Warning -- explicit consideration of   2 degrees of freedom as
           vibrations may cause significant error
 Vibrational temperatures:    746.36   746.37  1025.43  1621.06  1895.66
          (Kelvin)           1896.41

 Zero-point correction=                           0.012558 (Hartree/Particle)
 Thermal correction to Energy=                    0.015963
 Thermal correction to Enthalpy=                  0.016907
 Thermal correction to Gibbs Free Energy=        -0.014111
 Sum of electronic and zero-point Energies=           -337.587346
 Sum of electronic and thermal Energies=              -337.583941
 Sum of electronic and thermal Enthalpies=            -337.582997
 Sum of electronic and thermal Free Energies=         -337.614015

                     E (Thermal)             CV                S
                      KCal/Mol        Cal/Mol-Kelvin    Cal/Mol-Kelvin
 Total                   10.017              9.721             65.283
 Electronic               0.000              0.000              1.377
 Translational            0.889              2.981             38.612
 Rotational               0.889              2.981             23.670
 Vibrational              8.240              3.759              1.624
 Vibration     1          0.874              1.208              0.613
 Vibration     2          0.874              1.208              0.613

 Optimization completed.
    -- Stationary point found.
 Normal termination of Gaussian 16 at Sun May 25 03:27:13 2025.
