 Gaussian 16, Revision C.01,
 Gaussian 16:  ES64L-G16RevC.01  3-Jul-2019

 -----------------------------------------------------------------
 #P M062X/Def2TZVPP Symm(None) scf(xqc) pop(None) freq opt(CalcFC)
 -----------------------------------------------------------------

 ------------------------------
 Gaussian input prepared by ASE
 ------------------------------
 Symbolic Z-matrix:
 Charge =  0 Multiplicity = 1

 SCF Done:  E(RM062X) =  -338.276419411     A.U. after   11 cycles
 Optimization completed.
    -- Stationary point found.
 Normal termination of Gaussian 16 at Sun May 25 04:33:31 2025.

 ---------------------------------------------------------------------
 #P Geom=AllCheck Guess=TCheck SCRF=Check GenChk RM062X/def2TZVPP Freq
 ---------------------------------------------------------------------

 Structure from the checkpoint file:  "/tmp/Gau-229574.chk"
 ------------------------------
 Gaussian input prepared by ASE
 ------------------------------
 Charge =  0 Multiplicity = 1

                          Input orientation:
 ---------------------------------------------------------------------
 Center     Atomic      Atomic             Coordinates (Angstroms)
 Number     Number       Type             X           Y           Z
 ---------------------------------------------------------------------
      1          6           0       -0.993605    0.167598    0.523058
      2          9           0       -2.300858    0.134323    0.768607
      3          9           0       -0.802941    0.753083   -0.656423
      4          9           0       -0.548986   -1.084127    0.446924
      5          1           0       -0.471300    0.711240    1.307972
 ---------------------------------------------------------------------

 SCF Done:  E(RM062X) =  -338.276419411     A.U. after    1 cycles

 Isotropic polarizability for W=    0.000000       15.78 Bohr**3.
 End of Minotr F.D. properties file   721 does not exist.

                      1                      2                      3
                      A                      A                      A
 Frequencies --    515.5872               515.7174               714.1628
 Red. masses --     13.7984                13.7899                13.3366
 Frc consts  --      2.1611                 2.1609                 4.0077
 IR Inten    --      3.1249                 3.1078                16.3364

                      4                      5                      6
                      A                      A                      A
 Frequencies --   1176.6446              1208.7912              1209.2473
 Red. masses --      8.5482                 4.6195                 4.6105
 Frc consts  --      6.9730                 3.9769                 3.9722
 IR Inten    --    108.2890               284.3502               284.1447

                      7                      8                      9
                      A                      A                      A
 Frequencies --   1421.5014              1423.6052              3176.2463
 Red. masses --      1.2861                 1.2843                 1.0900
 Frc consts  --      1.5312                 1.5336                 6.4788
 IR Inten    --     64.7560                63.8898                29.4271

 - Thermochemistry -
 -------------------
 Temperature   298.150 Kelvin.  Pressure   1.00000 Atm.
 Atom     1 has atomic number  6 and mass  12.00000

 Molecular mass:    70.00303 amu.
 Principal axes and moments of inertia in atomic units:
                           1         2         3
     Eigenvalues --   173.40007 173.40706 315.96767
           X           -0.60659  -0.63387   0.47985
           Y           -0.40508   0.76577   0.49950
           Z            0.68407  -0.10861   0.72128
 This molecule is an asymmetric top.
 Rotational symmetry number  1.
 Rotational temperatures (Kelvin)      0.49950     0.49948     0.27412
 Rotational constants (GHZ):          10.40796    10.40754     5.71179
 Zero-point vibrational energy      67956.9 (Joules/Mol)
                                   16.24208 (Kcal/Mol)
 Warning -- explicit consideration of   2 degrees of freedom as
           vibrations may cause significant error
 Vibrational temperatures:    741.81   742.00  1027.52  1692.93  1739.18
          (Kelvin)           1739.84  2045.22  2048.25  4569.91

 Zero-point correction=                           0.025883 (Hartree/Particle)
 Thermal correction to Energy=                    0.029313
 Thermal correction to Enthalpy=                  0.030257
 Thermal correction to Gibbs Free Energy=        -0.000204
 Sum of electronic and zero-point Energies=           -338.250536
 Sum of electronic and thermal Energies=              -338.247107
 Sum of electronic and thermal Enthalpies=            -338.246162
 Sum of electronic and thermal Free Energies=         -338.276623

                     E (Thermal)             CV                S
                      KCal/Mol        Cal/Mol-Kelvin    Cal/Mol-Kelvin
 Total                   18.394             10.009             64.110
 Electronic               0.000              0.000              0.000
 Translational            0.889              2.981             38.655
 Rotational               0.889              2.981             23.767
 Vibrational             16.617              4.048              1.688
 Vibration     1          0.871              1.215              0.620
 Vibration     2          0.871              1.215              0.620

 Optimization completed.
    -- Stationary point found.
 Normal termination of Gaussian 16 at Sun May 25 04:33:45 2025.
