 Gaussian 16, Revision C.01,
 Gaussian 16:  ES64L-G16RevC.01  3-Jul-2019

 -----------------------------------------------------------------
 #P M062X/Def2TZVPP Symm(None) scf(xqc) pop(None) freq opt(CalcFC)
 -----------------------------------------------------------------

 ------------------------------
 Gaussian input prepared by ASE
 ------------------------------
 Symbolic Z-matrix:
 Charge =  0 Multiplicity = 2

 SCF Done:  E(UM062X) =  -426.913257718     A.U. after   17 cycles
 SCF Done:  E(UM062X) =  -426.919158420     A.U. after   16 cycles
 SCF Done:  E(UM062X) =  -426.920498325     A.U. after   16 cycles
 SCF Done:  E(UM062X) =  -426.920767055     A.U. after   15 cycles
 SCF Done:  E(UM062X) =  -426.921060301     A.U. after   15 cycles
 SCF Done:  E(UM062X) =  -426.921201743     A.U. after   15 cycles
 SCF Done:  E(UM062X) =  -426.921246969     A.U. after   14 cycles
 SCF Done:  E(UM062X) =  -426.921348206     A.U. after   13 cycles
 SCF Done:  E(UM062X) =  -426.921370588     A.U. after   10 cycles
 SCF Done:  E(UM062X) =  -426.921371642     A.U. after   11 cycles
 SCF Done:  E(UM062X) =  -426.921372147     A.U. after   11 cycles
 SCF Done:  E(UM062X) =  -426.921372283     A.U. after   10 cycles
 Optimization completed.
    -- Stationary point found.
 Normal termination of Gaussian 16 at Sun May 25 03:37:50 2025.

 ---------------------------------------------------------------------
 #P Geom=AllCheck Guess=TCheck SCRF=Check GenChk UM062X/def2TZVPP Freq
 ---------------------------------------------------------------------

 Structure from the checkpoint file:  "/tmp/Gau-150467.chk"
 ------------------------------
 Gaussian input prepared by ASE
 ------------------------------
 Charge =  0 Multiplicity = 2

                          Input orientation:
 ---------------------------------------------------------------------
 Center     Atomic      Atomic             Coordinates (Angstroms)
 Number     Number       Type             X           Y           Z
 ---------------------------------------------------------------------
      1          6           0        1.465037   -0.042133    0.068003
      2          8           0        2.081867   -1.059241   -0.051234
      3          6           0        0.015956    0.007008   -0.098160
      4          9           0       -0.666997    1.070139    0.276439
      5          9           0       -0.695415   -1.076425   -0.106112
      6          8           0        2.049190    1.145738    0.303168
      7          1           0        1.399747    1.850107    0.404809
 ---------------------------------------------------------------------

 SCF Done:  E(UM062X) =  -426.921372283     A.U. after    1 cycles

 Isotropic polarizability for W=    0.000000       31.44 Bohr**3.
 End of Minotr F.D. properties file   721 does not exist.

                      1                      2                      3
                      A                      A                      A
 Frequencies --    119.2969               175.2564               237.2510
 Red. masses --     10.0899                12.6113                11.0260
 Frc consts  --      0.0846                 0.2282                 0.3657
 IR Inten    --      5.3380                17.7512                13.3680

                      4                      5                      6
                      A                      A                      A
 Frequencies --    416.4020               448.4154               541.3312
 Red. masses --     12.0156                 1.1470                 9.1707
 Frc consts  --      1.2275                 0.1359                 1.5834
 IR Inten    --      7.8223               120.2895                 1.7366

                      7                      8                      9
                      A                      A                      A
 Frequencies --    616.0785               693.1302               809.9478
 Red. masses --     12.6367                 9.1566                10.7981
 Frc consts  --      2.8259                 2.5919                 4.1736
 IR Inten    --      4.2111                 8.7133                36.7661

                     10                     11                     12
                      A                      A                      A
 Frequencies --   1161.2881              1290.8425              1385.0753
 Red. masses --      3.1623                 1.7207                13.2271
 Frc consts  --      2.5127                 1.6892                14.9507
 IR Inten    --     85.9067               356.1979               331.3407

                     13                     14                     15
                      A                      A                      A
 Frequencies --   1517.0844              1846.0558              3855.2468
 Red. masses --     10.2969                10.8417                 1.0660
 Frc consts  --     13.9629                21.7689                 9.3349
 IR Inten    --     33.8655               277.7184               103.5960

 - Thermochemistry -
 -------------------
 Temperature   298.150 Kelvin.  Pressure   1.00000 Atm.
 Atom     1 has atomic number  6 and mass  12.00000

 Molecular mass:    94.99446 amu.
 Principal axes and moments of inertia in atomic units:
                           1         2         3
     Eigenvalues --   317.01401 519.26766 833.62831
           X            0.99775  -0.06429  -0.01893
           Y            0.06020   0.98386  -0.16849
           Z            0.02946   0.16697   0.98552
 This molecule is an asymmetric top.
 Rotational symmetry number  1.
 Rotational temperatures (Kelvin)      0.27322     0.16680     0.10390
 Rotational constants (GHZ):           5.69294     3.47555     2.16492
 Zero-point vibrational energy      90394.0 (Joules/Mol)
                                   21.60469 (Kcal/Mol)
 Warning -- explicit consideration of   7 degrees of freedom as
           vibrations may cause significant error
 Vibrational temperatures:    171.64   252.15   341.35   599.11   645.17
          (Kelvin)            778.85   886.40   997.26  1165.33  1670.83
                             1857.23  1992.81  2182.75  2656.06  5546.84

 Zero-point correction=                           0.034429 (Hartree/Particle)
 Thermal correction to Energy=                    0.040207
 Thermal correction to Enthalpy=                  0.041151
 Thermal correction to Gibbs Free Energy=         0.004096
 Sum of electronic and zero-point Energies=           -426.886943
 Sum of electronic and thermal Energies=              -426.881166
 Sum of electronic and thermal Enthalpies=            -426.880221
 Sum of electronic and thermal Free Energies=         -426.917277

                     E (Thermal)             CV                S
                      KCal/Mol        Cal/Mol-Kelvin    Cal/Mol-Kelvin
 Total                   25.230             18.571             77.989
 Electronic               0.000              0.000              1.377
 Translational            0.889              2.981             39.565
 Rotational               0.889              2.981             26.420
 Vibrational             23.453             12.610             10.627
 Vibration     1          0.609              1.933              3.112
 Vibration     2          0.627              1.873              2.378
 Vibration     3          0.656              1.784              1.823
 Vibration     4          0.780              1.435              0.904
 Vibration     5          0.807              1.364              0.801
 Vibration     6          0.896              1.159              0.562
 Vibration     7          0.976              0.998              0.423

 Optimization completed.
    -- Stationary point found.
 Normal termination of Gaussian 16 at Sun May 25 03:39:05 2025.
