 Gaussian 16, Revision C.01,
 Gaussian 16:  ES64L-G16RevC.01  3-Jul-2019

 -----------------------------------------------------------------
 #P M062X/Def2TZVPP Symm(None) scf(xqc) pop(None) freq opt(CalcFC)
 -----------------------------------------------------------------

 ------------------------------
 Gaussian input prepared by ASE
 ------------------------------
 Symbolic Z-matrix:
 Charge =  0 Multiplicity = 2

 SCF Done:  E(UM062X) =  -426.927895268     A.U. after   17 cycles
 SCF Done:  E(UM062X) =  -426.927895305     A.U. after    8 cycles
 Optimization completed.
    -- Stationary point found.
 Normal termination of Gaussian 16 at Sun May 25 03:35:06 2025.

 ---------------------------------------------------------------------
 #P Geom=AllCheck Guess=TCheck SCRF=Check GenChk UM062X/def2TZVPP Freq
 ---------------------------------------------------------------------

 Structure from the checkpoint file:  "/tmp/Gau-209093.chk"
 ------------------------------
 Gaussian input prepared by ASE
 ------------------------------
 Charge =  0 Multiplicity = 2

                          Input orientation:
 ---------------------------------------------------------------------
 Center     Atomic      Atomic             Coordinates (Angstroms)
 Number     Number       Type             X           Y           Z
 ---------------------------------------------------------------------
      1          6           0        1.434563    0.000031   -0.000054
      2          8           0        2.094320   -1.009560    0.000297
      3          6           0        0.000084    0.000037   -0.000953
      4          9           0       -0.732240    1.074165   -0.001222
      5          9           0       -0.682261   -1.102175   -0.001312
      6          8           0        1.931059    1.251160    0.000297
      7          1           0        2.893124    1.169978    0.000842
 ---------------------------------------------------------------------

 SCF Done:  E(UM062X) =  -426.927895305     A.U. after    1 cycles

 Isotropic polarizability for W=    0.000000       31.82 Bohr**3.
 End of Minotr F.D. properties file   721 does not exist.

                      1                      2                      3
                      A                      A                      A
 Frequencies --     96.9620               132.0268               230.3410
 Red. masses --     12.9906                14.4736                11.9180
 Frc consts  --      0.0720                 0.1486                 0.3726
 IR Inten    --      1.0436                 0.0940                 1.8740

                      4                      5                      6
                      A                      A                      A
 Frequencies --    415.8136               495.5118               537.7284
 Red. masses --     12.3790                 1.1519                12.1228
 Frc consts  --      1.2611                 0.1666                 2.0653
 IR Inten    --      3.3186                85.5024                 8.1555

                      7                      8                      9
                      A                      A                      A
 Frequencies --    606.2711               686.6117               805.9679
 Red. masses --      7.6961                 7.1972                 5.7052
 Frc consts  --      1.6667                 1.9991                 2.1835
 IR Inten    --     24.0902                51.1842                53.6692

                     10                     11                     12
                      A                      A                      A
 Frequencies --   1153.3001              1310.9664              1439.8222
 Red. masses --      3.4472                 2.0611                11.4885
 Frc consts  --      2.7015                 2.0870                14.0323
 IR Inten    --    381.3083                96.7710               238.3764

                     13                     14                     15
                      A                      A                      A
 Frequencies --   1585.8009              1793.7808              3835.3843
 Red. masses --     10.3194                10.4846                 1.0648
 Frc consts  --     15.2899                19.8765                 9.2285
 IR Inten    --     84.2557               272.3548               136.8228

 - Thermochemistry -
 -------------------
 Temperature   298.150 Kelvin.  Pressure   1.00000 Atm.
 Atom     1 has atomic number  6 and mass  12.00000

 Molecular mass:    94.99446 amu.
 Principal axes and moments of inertia in atomic units:
                           1         2         3
     Eigenvalues --   311.09027 526.28678 837.37705
           X            0.99674  -0.08063  -0.00058
           Y            0.08063   0.99674  -0.00005
           Z            0.00058   0.00000   1.00000
 This molecule is an asymmetric top.
 Rotational symmetry number  1.
 Rotational temperatures (Kelvin)      0.27842     0.16458     0.10343
 Rotational constants (GHZ):           5.80134     3.42920     2.15523
 Zero-point vibrational energy      90475.3 (Joules/Mol)
                                   21.62412 (Kcal/Mol)
 Warning -- explicit consideration of   7 degrees of freedom as
           vibrations may cause significant error
 Vibrational temperatures:    139.51   189.96   331.41   598.26   712.93
          (Kelvin)            773.67   872.29   987.88  1159.61  1659.34
                             1886.19  2071.58  2281.61  2580.85  5518.26

 Zero-point correction=                           0.034460 (Hartree/Particle)
 Thermal correction to Energy=                    0.040336
 Thermal correction to Enthalpy=                  0.041280
 Thermal correction to Gibbs Free Energy=         0.003801
 Sum of electronic and zero-point Energies=           -426.893435
 Sum of electronic and thermal Energies=              -426.887559
 Sum of electronic and thermal Enthalpies=            -426.886615
 Sum of electronic and thermal Free Energies=         -426.924094

                     E (Thermal)             CV                S
                      KCal/Mol        Cal/Mol-Kelvin    Cal/Mol-Kelvin
 Total                   25.311             18.560             78.881
 Electronic               0.000              0.000              1.377
 Translational            0.889              2.981             39.565
 Rotational               0.889              2.981             26.419
 Vibrational             23.534             12.598             11.520
 Vibration     1          0.603              1.951              3.514
 Vibration     2          0.612              1.921              2.916
 Vibration     3          0.652              1.795              1.876
 Vibration     4          0.779              1.436              0.906
 Vibration     5          0.851              1.260              0.669
 Vibration     6          0.893              1.167              0.570
 Vibration     7          0.965              1.019              0.439

 Optimization completed.
    -- Stationary point found.
 Normal termination of Gaussian 16 at Sun May 25 03:36:15 2025.
