 Gaussian 16, Revision C.01,
 Gaussian 16:  ES64L-G16RevC.01  3-Jul-2019

 -----------------------------------------------------------------
 #P M062X/Def2TZVPP Symm(None) scf(xqc) pop(None) freq opt(CalcFC)
 -----------------------------------------------------------------

 ------------------------------
 Gaussian input prepared by ASE
 ------------------------------
 Symbolic Z-matrix:
 Charge =  0 Multiplicity = 2

 SCF Done:  E(UM062X) =  -426.913252817     A.U. after   17 cycles
 SCF Done:  E(UM062X) =  -426.919150957     A.U. after   16 cycles
 SCF Done:  E(UM062X) =  -426.920491189     A.U. after   16 cycles
 SCF Done:  E(UM062X) =  -426.920759096     A.U. after   15 cycles
 SCF Done:  E(UM062X) =  -426.921056722     A.U. after   15 cycles
 SCF Done:  E(UM062X) =  -426.921209189     A.U. after   15 cycles
 SCF Done:  E(UM062X) =  -426.921245573     A.U. after   14 cycles
 SCF Done:  E(UM062X) =  -426.921350228     A.U. after   12 cycles
 SCF Done:  E(UM062X) =  -426.921370715     A.U. after   11 cycles
 SCF Done:  E(UM062X) =  -426.921371759     A.U. after   11 cycles
 SCF Done:  E(UM062X) =  -426.921372158     A.U. after   10 cycles
 SCF Done:  E(UM062X) =  -426.921372288     A.U. after   10 cycles
 Optimization completed.
    -- Stationary point found.
 Normal termination of Gaussian 16 at Sun May 25 03:36:45 2025.

 ---------------------------------------------------------------------
 #P Geom=AllCheck Guess=TCheck SCRF=Check GenChk UM062X/def2TZVPP Freq
 ---------------------------------------------------------------------

 Structure from the checkpoint file:  "/tmp/Gau-243871.chk"
 ------------------------------
 Gaussian input prepared by ASE
 ------------------------------
 Charge =  0 Multiplicity = 2

                          Input orientation:
 ---------------------------------------------------------------------
 Center     Atomic      Atomic             Coordinates (Angstroms)
 Number     Number       Type             X           Y           Z
 ---------------------------------------------------------------------
      1          6           0        1.465171   -0.042255   -0.068202
      2          8           0        2.081794   -1.059384    0.051914
      3          6           0        0.015909    0.007026    0.096366
      4          9           0       -0.666547    1.070141   -0.279194
      5          9           0       -0.695553   -1.076351    0.103722
      6          8           0        2.049667    1.145526   -0.302955
      7          1           0        1.400386    1.849917   -0.405463
 ---------------------------------------------------------------------

 SCF Done:  E(UM062X) =  -426.921372288     A.U. after    1 cycles

 Isotropic polarizability for W=    0.000000       31.44 Bohr**3.
 End of Minotr F.D. properties file   721 does not exist.

                      1                      2                      3
                      A                      A                      A
 Frequencies --    119.3030               175.2820               237.2473
 Red. masses --     10.0908                12.6117                11.0251
 Frc consts  --      0.0846                 0.2283                 0.3656
 IR Inten    --      5.3329                17.7582                13.3660

                      4                      5                      6
                      A                      A                      A
 Frequencies --    416.4008               448.4536               541.3306
 Red. masses --     12.0108                 1.1471                 9.1706
 Frc consts  --      1.2270                 0.1359                 1.5833
 IR Inten    --      7.8251               120.2873                 1.7384

                      7                      8                      9
                      A                      A                      A
 Frequencies --    616.0779               693.1340               809.9480
 Red. masses --     12.6371                 9.1565                10.7976
 Frc consts  --      2.8260                 2.5919                 4.1734
 IR Inten    --      4.2097                 8.7143                36.7658

                     10                     11                     12
                      A                      A                      A
 Frequencies --   1161.2840              1290.8283              1385.0652
 Red. masses --      3.1619                 1.7208                13.2271
 Frc consts  --      2.5123                 1.6894                14.9505
 IR Inten    --     85.8788               356.2072               331.3574

                     13                     14                     15
                      A                      A                      A
 Frequencies --   1517.0871              1846.0678              3855.2797
 Red. masses --     10.2973                10.8419                 1.0660
 Frc consts  --     13.9635                21.7695                 9.3351
 IR Inten    --     33.8664               277.7183               103.5953

 - Thermochemistry -
 -------------------
 Temperature   298.150 Kelvin.  Pressure   1.00000 Atm.
 Atom     1 has atomic number  6 and mass  12.00000

 Molecular mass:    94.99446 amu.
 Principal axes and moments of inertia in atomic units:
                           1         2         3
     Eigenvalues --   317.01409 519.26732 833.62781
           X            0.99779  -0.06403   0.01786
           Y            0.06011   0.98384   0.16868
           Z           -0.02837  -0.16723   0.98551
 This molecule is an asymmetric top.
 Rotational symmetry number  1.
 Rotational temperatures (Kelvin)      0.27322     0.16680     0.10390
 Rotational constants (GHZ):           5.69294     3.47555     2.16492
 Zero-point vibrational energy      90394.6 (Joules/Mol)
                                   21.60482 (Kcal/Mol)
 Warning -- explicit consideration of   7 degrees of freedom as
           vibrations may cause significant error
 Vibrational temperatures:    171.65   252.19   341.35   599.11   645.22
          (Kelvin)            778.85   886.40   997.27  1165.33  1670.83
                             1857.21  1992.80  2182.75  2656.08  5546.89

 Zero-point correction=                           0.034429 (Hartree/Particle)
 Thermal correction to Energy=                    0.040207
 Thermal correction to Enthalpy=                  0.041151
 Thermal correction to Gibbs Free Energy=         0.004096
 Sum of electronic and zero-point Energies=           -426.886943
 Sum of electronic and thermal Energies=              -426.881165
 Sum of electronic and thermal Enthalpies=            -426.880221
 Sum of electronic and thermal Free Energies=         -426.917276

                     E (Thermal)             CV                S
                      KCal/Mol        Cal/Mol-Kelvin    Cal/Mol-Kelvin
 Total                   25.230             18.571             77.989
 Electronic               0.000              0.000              1.377
 Translational            0.889              2.981             39.565
 Rotational               0.889              2.981             26.420
 Vibrational             23.453             12.609             10.626
 Vibration     1          0.609              1.933              3.112
 Vibration     2          0.627              1.873              2.378
 Vibration     3          0.656              1.784              1.823
 Vibration     4          0.780              1.435              0.904
 Vibration     5          0.807              1.364              0.800
 Vibration     6          0.896              1.159              0.562
 Vibration     7          0.976              0.998              0.423

 Optimization completed.
    -- Stationary point found.
 Normal termination of Gaussian 16 at Sun May 25 03:37:45 2025.
