 Gaussian 16, Revision C.01,
 Gaussian 16:  ES64L-G16RevC.01  3-Jul-2019

 -----------------------------------------------------------------
 #P M062X/Def2TZVPP Symm(None) scf(xqc) pop(None) freq opt(CalcFC)
 -----------------------------------------------------------------

 ------------------------------
 Gaussian input prepared by ASE
 ------------------------------
 Symbolic Z-matrix:
 Charge =  0 Multiplicity = 2

 SCF Done:  E(UM062X) =  -450.933850090     A.U. after   17 cycles
 Optimization completed.
    -- Stationary point found.
 Normal termination of Gaussian 16 at Sun May 25 03:29:18 2025.

 ---------------------------------------------------------------------
 #P Geom=AllCheck Guess=TCheck SCRF=Check GenChk UM062X/def2TZVPP Freq
 ---------------------------------------------------------------------

 Structure from the checkpoint file:  "/tmp/Gau-271425.chk"
 ------------------------------
 Gaussian input prepared by ASE
 ------------------------------
 Charge =  0 Multiplicity = 2

                          Input orientation:
 ---------------------------------------------------------------------
 Center     Atomic      Atomic             Coordinates (Angstroms)
 Number     Number       Type             X           Y           Z
 ---------------------------------------------------------------------
      1          6           0        1.552319   -0.005050    0.000023
      2          8           0        2.214829   -0.959302    0.003263
      3          6           0       -0.013829   -0.012294   -0.000160
      4          9           0       -0.441405    0.625270    1.078293
      5          9           0       -0.441227    0.620216   -1.081644
      6          9           0       -0.507505   -1.240788    0.002661
 ---------------------------------------------------------------------

 SCF Done:  E(UM062X) =  -450.933850090     A.U. after    1 cycles

 Isotropic polarizability for W=    0.000000       27.34 Bohr**3.
 End of Minotr F.D. properties file   721 does not exist.

                      1                      2                      3
                      A                      A                      A
 Frequencies --     50.9413               240.4055               401.8624
 Red. masses --     15.6759                17.3358                14.8066
 Frc consts  --      0.0240                 0.5903                 1.4088
 IR Inten    --      1.4345                 2.0186                 0.4202

                      4                      5                      6
                      A                      A                      A
 Frequencies --    419.2868               543.4919               553.8814
 Red. masses --     16.4259                16.3865                17.3968
 Frc consts  --      1.7014                 2.8518                 3.1445
 IR Inten    --      0.7873                 7.0939                 6.3728

                      7                      8                      9
                      A                      A                      A
 Frequencies --    677.7457               807.7558              1194.3059
 Red. masses --     14.4702                15.9571                13.3320
 Frc consts  --      3.9161                 6.1343                11.2041
 IR Inten    --     23.7230                 1.6881               219.6331

                     10                     11                     12
                      A                      A                      A
 Frequencies --   1266.3523              1282.2391              2037.9196
 Red. masses --     13.3217                13.1247                13.3873
 Frc consts  --     12.5869                12.7138                32.7579
 IR Inten    --    330.8483               310.7961                85.4937

 - Thermochemistry -
 -------------------
 Temperature   298.150 Kelvin.  Pressure   1.00000 Atm.
 Atom     1 has atomic number  6 and mass  12.00000

 Molecular mass:    96.99012 amu.
 Principal axes and moments of inertia in atomic units:
                           1         2         3
     Eigenvalues --   317.05574 599.87188 600.40898
           X            0.92268   0.38556  -0.00321
           Y           -0.38557   0.92267  -0.00399
           Z            0.00142   0.00492   0.99999
 This molecule is an asymmetric top.
 Rotational symmetry number  1.
 Rotational temperatures (Kelvin)      0.27318     0.14439     0.14426
 Rotational constants (GHZ):           5.69219     3.00854     3.00585
 Zero-point vibrational energy      56680.2 (Joules/Mol)
                                   13.54689 (Kcal/Mol)
 Warning -- explicit consideration of   6 degrees of freedom as
           vibrations may cause significant error
 Vibrational temperatures:     73.29   345.89   578.19   603.26   781.96
          (Kelvin)            796.91   975.12  1162.18  1718.34  1822.00
                             1844.86  2932.11

 Zero-point correction=                           0.021588 (Hartree/Particle)
 Thermal correction to Energy=                    0.026974
 Thermal correction to Enthalpy=                  0.027918
 Thermal correction to Gibbs Free Energy=        -0.008859
 Sum of electronic and zero-point Energies=           -450.912262
 Sum of electronic and thermal Energies=              -450.906876
 Sum of electronic and thermal Enthalpies=            -450.905932
 Sum of electronic and thermal Free Energies=         -450.942710

                     E (Thermal)             CV                S
                      KCal/Mol        Cal/Mol-Kelvin    Cal/Mol-Kelvin
 Total                   16.927             16.949             77.406
 Electronic               0.000              0.000              1.377
 Translational            0.889              2.981             39.627
 Rotational               0.889              2.981             26.238
 Vibrational             15.149             10.987             10.164
 Vibration     1          0.595              1.977              4.781
 Vibration     2          0.657              1.779              1.800
 Vibration     3          0.767              1.466              0.956
 Vibration     4          0.782              1.428              0.894
 Vibration     5          0.899              1.154              0.558
 Vibration     6          0.909              1.131              0.536

 Optimization completed.
    -- Stationary point found.
 Normal termination of Gaussian 16 at Sun May 25 03:30:05 2025.
