 Gaussian 16, Revision C.01,
 Gaussian 16:  ES64L-G16RevC.01  3-Jul-2019

 -----------------------------------------------------------------
 #P M062X/Def2TZVPP Symm(None) scf(xqc) pop(None) freq opt(CalcFC)
 -----------------------------------------------------------------

 ------------------------------
 Gaussian input prepared by ASE
 ------------------------------
 Symbolic Z-matrix:
 Charge =  0 Multiplicity = 1

 SCF Done:  E(RM062X) =  -451.476896062     A.U. after   15 cycles
 SCF Done:  E(RM062X) =  -451.508571793     A.U. after   15 cycles
 SCF Done:  E(RM062X) =  -451.508350036     A.U. after   16 cycles
 SCF Done:  E(RM062X) =  -451.509398731     A.U. after   13 cycles
 SCF Done:  E(RM062X) =  -451.509434863     A.U. after   10 cycles
 SCF Done:  E(RM062X) =  -451.509437773     A.U. after    9 cycles
 SCF Done:  E(RM062X) =  -451.509437957     A.U. after    8 cycles
 Optimization completed.
    -- Stationary point found.
 Normal termination of Gaussian 16 at Sun May 25 03:31:26 2025.

 ---------------------------------------------------------------------
 #P Geom=AllCheck Guess=TCheck SCRF=Check GenChk RM062X/def2TZVPP Freq
 ---------------------------------------------------------------------

 Structure from the checkpoint file:  "/tmp/Gau-74298.chk"
 ------------------------------
 Gaussian input prepared by ASE
 ------------------------------
 Charge =  0 Multiplicity = 1

                          Input orientation:
 ---------------------------------------------------------------------
 Center     Atomic      Atomic             Coordinates (Angstroms)
 Number     Number       Type             X           Y           Z
 ---------------------------------------------------------------------
      1          6           0        1.571150   -0.060754    0.058908
      2          6           0        0.021488   -0.027842    0.045002
      3          9           0       -0.504292    1.210224    0.216720
      4          9           0       -0.418685   -0.482874   -1.119034
      5          9           0       -0.444490   -0.790768    1.023206
      6          8           0        2.022993    1.124183    0.236555
      7          1           0        1.336935    1.819347    0.328947
 ---------------------------------------------------------------------

 SCF Done:  E(RM062X) =  -451.509437957     A.U. after    1 cycles

 Isotropic polarizability for W=    0.000000       30.17 Bohr**3.
 End of Minotr F.D. properties file   721 does not exist.

                      1                      2                      3
                      A                      A                      A
 Frequencies --     81.0605               323.3807               383.6275
 Red. masses --      7.6680                 9.9573                 6.4582
 Frc consts  --      0.0297                 0.6135                 0.5600
 IR Inten    --      5.4071                13.8363                33.4729

                      4                      5                      6
                      A                      A                      A
 Frequencies --    433.1339               541.6206               554.9831
 Red. masses --     10.1305                11.7910                16.5461
 Frc consts  --      1.1198                 2.0379                 3.0027
 IR Inten    --     12.5337                27.0126                 4.2695

                      7                      8                      9
                      A                      A                      A
 Frequencies --    700.2809               817.6967               907.3665
 Red. masses --      7.4047                11.2221                 1.2972
 Frc consts  --      2.1394                 4.4209                 0.6292
 IR Inten    --     19.9129                18.5622               131.7882

                     10                     11                     12
                      A                      A                      A
 Frequencies --   1194.5239              1266.9250              1286.5401
 Red. masses --     12.4743                12.6704                 6.6690
 Frc consts  --     10.4871                11.9824                 6.5037
 IR Inten    --    186.7058               288.4138               322.8985

                     13                     14                     15
                      A                      A                      A
 Frequencies --   1383.9600              1479.6093              3540.8978
 Red. masses --      1.3423                12.3904                 1.0627
 Frc consts  --      1.5148                15.9820                 7.8500
 IR Inten    --     31.2404                71.0672                56.1643

 - Thermochemistry -
 -------------------
 Temperature   298.150 Kelvin.  Pressure   1.00000 Atm.
 Atom     1 has atomic number  6 and mass  12.00000

 Molecular mass:    97.99795 amu.
 Principal axes and moments of inertia in atomic units:
                           1         2         3
     Eigenvalues --   324.26659 588.48683 594.92509
           X            0.86336  -0.50445  -0.01183
           Y            0.49775   0.85529  -0.14397
           Z            0.08274   0.11841   0.98951
 This molecule is an asymmetric top.
 Rotational symmetry number  1.
 Rotational temperatures (Kelvin)      0.26711     0.14718     0.14559
 Rotational constants (GHZ):           5.56561     3.06675     3.03356
 Zero-point vibrational energy      89095.5 (Joules/Mol)
                                   21.29434 (Kcal/Mol)
 Warning -- explicit consideration of   6 degrees of freedom as
           vibrations may cause significant error
 Vibrational temperatures:    116.63   465.27   551.95   623.18   779.27
          (Kelvin)            798.50  1007.55  1176.48  1305.50  1718.65
                             1822.82  1851.04  1991.21  2128.83  5094.56

 Zero-point correction=                           0.033935 (Hartree/Particle)
 Thermal correction to Energy=                    0.039210
 Thermal correction to Enthalpy=                  0.040154
 Thermal correction to Gibbs Free Energy=         0.004621
 Sum of electronic and zero-point Energies=           -451.475503
 Sum of electronic and thermal Energies=              -451.470228
 Sum of electronic and thermal Enthalpies=            -451.469284
 Sum of electronic and thermal Free Energies=         -451.504817

                     E (Thermal)             CV                S
                      KCal/Mol        Cal/Mol-Kelvin    Cal/Mol-Kelvin
 Total                   24.604             17.404             74.786
 Electronic               0.000              0.000              0.000
 Translational            0.889              2.981             39.658
 Rotational               0.889              2.981             26.232
 Vibrational             22.827             11.442              8.896
 Vibration     1          0.600              1.962              3.865
 Vibration     2          0.708              1.629              1.293
 Vibration     3          0.753              1.505              1.025
 Vibration     4          0.794              1.398              0.848
 Vibration     5          0.897              1.158              0.562
 Vibration     6          0.910              1.129              0.534

 Optimization completed.
    -- Stationary point found.
 Normal termination of Gaussian 16 at Sun May 25 03:32:36 2025.
