 Gaussian 16, Revision C.01,
 Gaussian 16:  ES64L-G16RevC.01  3-Jul-2019

 -----------------------------------------------------------------
 #P M062X/Def2TZVPP Symm(None) scf(xqc) pop(None) freq opt(CalcFC)
 -----------------------------------------------------------------

 ------------------------------
 Gaussian input prepared by ASE
 ------------------------------
 Symbolic Z-matrix:
 Charge =  0 Multiplicity = 1

 SCF Done:  E(RM062X) =  -451.476891648     A.U. after   15 cycles
 SCF Done:  E(RM062X) =  -451.508566392     A.U. after   15 cycles
 SCF Done:  E(RM062X) =  -451.508350148     A.U. after   16 cycles
 SCF Done:  E(RM062X) =  -451.509398461     A.U. after   13 cycles
 SCF Done:  E(RM062X) =  -451.509434914     A.U. after   10 cycles
 SCF Done:  E(RM062X) =  -451.509437847     A.U. after   10 cycles
 SCF Done:  E(RM062X) =  -451.509438032     A.U. after    8 cycles
 Optimization completed.
    -- Stationary point found.
 Normal termination of Gaussian 16 at Sun May 25 03:31:21 2025.

 ---------------------------------------------------------------------
 #P Geom=AllCheck Guess=TCheck SCRF=Check GenChk RM062X/def2TZVPP Freq
 ---------------------------------------------------------------------

 Structure from the checkpoint file:  "/tmp/Gau-74299.chk"
 ------------------------------
 Gaussian input prepared by ASE
 ------------------------------
 Charge =  0 Multiplicity = 1

                          Input orientation:
 ---------------------------------------------------------------------
 Center     Atomic      Atomic             Coordinates (Angstroms)
 Number     Number       Type             X           Y           Z
 ---------------------------------------------------------------------
      1          6           0        1.571106   -0.060876   -0.059942
      2          6           0        0.021450   -0.027893   -0.045492
      3          9           0       -0.504315    1.210445   -0.215266
      4          9           0       -0.444881   -0.789387   -1.024646
      5          9           0       -0.418382   -0.484572    1.118027
      6          8           0        2.022960    1.124272   -0.236145
      7          1           0        1.336914    1.819599   -0.327385
 ---------------------------------------------------------------------

 SCF Done:  E(RM062X) =  -451.509438032     A.U. after    1 cycles

 Isotropic polarizability for W=    0.000000       30.17 Bohr**3.
 End of Minotr F.D. properties file   721 does not exist.

                      1                      2                      3
                      A                      A                      A
 Frequencies --     81.0148               323.3670               383.6259
 Red. masses --      7.6679                 9.9565                 6.4588
 Frc consts  --      0.0297                 0.6134                 0.5600
 IR Inten    --      5.4078                13.8393                33.4703

                      4                      5                      6
                      A                      A                      A
 Frequencies --    433.1293               541.6115               554.9842
 Red. masses --     10.1306                11.7914                16.5460
 Frc consts  --      1.1197                 2.0379                 3.0026
 IR Inten    --     12.5332                27.0134                 4.2694

                      7                      8                      9
                      A                      A                      A
 Frequencies --    700.2766               817.6943               907.3777
 Red. masses --      7.4046                11.2222                 1.2972
 Frc consts  --      2.1394                 4.4209                 0.6292
 IR Inten    --     19.9131                18.5630               131.7945

                     10                     11                     12
                      A                      A                      A
 Frequencies --   1194.5212              1266.9180              1286.5337
 Red. masses --     12.4742                12.6702                 6.6690
 Frc consts  --     10.4870                11.9820                 6.5035
 IR Inten    --    186.7003               288.4109               322.9036

                     13                     14                     15
                      A                      A                      A
 Frequencies --   1383.9485              1479.5865              3540.9029
 Red. masses --      1.3423                12.3906                 1.0627
 Frc consts  --      1.5148                15.9817                 7.8500
 IR Inten    --     31.2381                71.0659                56.1627

 - Thermochemistry -
 -------------------
 Temperature   298.150 Kelvin.  Pressure   1.00000 Atm.
 Atom     1 has atomic number  6 and mass  12.00000

 Molecular mass:    97.99795 amu.
 Principal axes and moments of inertia in atomic units:
                           1         2         3
     Eigenvalues --   324.26641 588.48707 594.92501
           X            0.86337  -0.50443   0.01221
           Y            0.49781   0.85549   0.14256
           Z           -0.08236  -0.11701   0.98971
 This molecule is an asymmetric top.
 Rotational symmetry number  1.
 Rotational temperatures (Kelvin)      0.26711     0.14718     0.14559
 Rotational constants (GHZ):           5.56561     3.06675     3.03356
 Zero-point vibrational energy      89094.8 (Joules/Mol)
                                   21.29418 (Kcal/Mol)
 Warning -- explicit consideration of   6 degrees of freedom as
           vibrations may cause significant error
 Vibrational temperatures:    116.56   465.25   551.95   623.18   779.26
          (Kelvin)            798.50  1007.54  1176.48  1305.51  1718.65
                             1822.81  1851.04  1991.19  2128.79  5094.57

 Zero-point correction=                           0.033934 (Hartree/Particle)
 Thermal correction to Energy=                    0.039210
 Thermal correction to Enthalpy=                  0.040154
 Thermal correction to Gibbs Free Energy=         0.004620
 Sum of electronic and zero-point Energies=           -451.475504
 Sum of electronic and thermal Energies=              -451.470228
 Sum of electronic and thermal Enthalpies=            -451.469284
 Sum of electronic and thermal Free Energies=         -451.504818

                     E (Thermal)             CV                S
                      KCal/Mol        Cal/Mol-Kelvin    Cal/Mol-Kelvin
 Total                   24.604             17.404             74.787
 Electronic               0.000              0.000              0.000
 Translational            0.889              2.981             39.658
 Rotational               0.889              2.981             26.232
 Vibrational             22.827             11.442              8.898
 Vibration     1          0.600              1.962              3.866
 Vibration     2          0.708              1.629              1.293
 Vibration     3          0.753              1.505              1.025
 Vibration     4          0.794              1.398              0.848
 Vibration     5          0.897              1.158              0.562
 Vibration     6          0.910              1.129              0.534

 Optimization completed.
    -- Stationary point found.
 Normal termination of Gaussian 16 at Sun May 25 03:32:10 2025.
