 Gaussian 16, Revision C.01,
 Gaussian 16:  ES64L-G16RevC.01  3-Jul-2019

 -----------------------------------------------------------------
 #P M062X/Def2TZVPP Symm(None) scf(xqc) pop(None) freq opt(CalcFC)
 -----------------------------------------------------------------

 ------------------------------
 Gaussian input prepared by ASE
 ------------------------------
 Symbolic Z-matrix:
 Charge =  0 Multiplicity = 1

 SCF Done:  E(RM062X) =  -451.511596589     A.U. after   13 cycles
 Optimization completed.
    -- Stationary point found.
 Normal termination of Gaussian 16 at Sun May 25 03:30:03 2025.

 ---------------------------------------------------------------------
 #P Geom=AllCheck Guess=TCheck SCRF=Check GenChk RM062X/def2TZVPP Freq
 ---------------------------------------------------------------------

 Structure from the checkpoint file:  "/tmp/Gau-223337.chk"
 ------------------------------
 Gaussian input prepared by ASE
 ------------------------------
 Charge =  0 Multiplicity = 1

                          Input orientation:
 ---------------------------------------------------------------------
 Center     Atomic      Atomic             Coordinates (Angstroms)
 Number     Number       Type             X           Y           Z
 ---------------------------------------------------------------------
      1          6           0        1.543481    0.000000    0.000000
      2          6           0        0.000000    0.000000    0.000000
      3          9           0       -0.587514    1.197417    0.001240
      4          9           0       -0.413859   -0.654303   -1.084435
      5          9           0       -0.414284   -0.656636    1.082848
      6          8           0        1.903155    1.235709    0.000000
      7          1           0        2.868755    1.286682   -0.000149
 ---------------------------------------------------------------------

 SCF Done:  E(RM062X) =  -451.511596589     A.U. after    1 cycles

 Isotropic polarizability for W=    0.000000       30.00 Bohr**3.
 End of Minotr F.D. properties file   721 does not exist.

                      1                      2                      3
                      A                      A                      A
 Frequencies --     21.3158               287.6172               386.8799
 Red. masses --     11.7581                 9.5751                 8.9148
 Frc consts  --      0.0031                 0.4667                 0.7862
 IR Inten    --      2.4816                 2.9714                 0.1962

                      4                      5                      6
                      A                      A                      A
 Frequencies --    427.8925               539.9815               559.6905
 Red. masses --     13.4007                10.5747                13.4378
 Frc consts  --      1.4456                 1.8167                 2.4801
 IR Inten    --      3.0688                 0.7551                 5.3336

                      7                      8                      9
                      A                      A                      A
 Frequencies --    688.1973               837.8226               863.8378
 Red. masses --      8.3536                 8.8774                 1.2269
 Frc consts  --      2.3310                 3.6715                 0.5394
 IR Inten    --     25.1225                 6.8283                46.9185

                     10                     11                     12
                      A                      A                      A
 Frequencies --   1236.6614              1242.8041              1282.4671
 Red. masses --      3.8592                10.7536                 7.2257
 Frc consts  --      3.4773                 9.7861                 7.0020
 IR Inten    --    356.4128               354.8760               171.6030

                     13                     14                     15
                      A                      A                      A
 Frequencies --   1350.8751              1472.4617              3786.1293
 Red. masses --      1.9501                 8.0695                 1.0666
 Frc consts  --      2.0967                10.3082                 9.0086
 IR Inten    --     91.3169                59.9232               158.8642

 - Thermochemistry -
 -------------------
 Temperature   298.150 Kelvin.  Pressure   1.00000 Atm.
 Atom     1 has atomic number  6 and mass  12.00000

 Molecular mass:    97.99795 amu.
 Principal axes and moments of inertia in atomic units:
                           1         2         3
     Eigenvalues --   323.18411 593.79331 598.30367
           X            0.85696  -0.51538   0.00230
           Y            0.51539   0.85695  -0.00365
           Z           -0.00009   0.00431   0.99999
 This molecule is an asymmetric top.
 Rotational symmetry number  1.
 Rotational temperatures (Kelvin)      0.26800     0.14587     0.14477
 Rotational constants (GHZ):           5.58425     3.03934     3.01643
 Zero-point vibrational energy      89628.0 (Joules/Mol)
                                   21.42161 (Kcal/Mol)
 Warning -- explicit consideration of   6 degrees of freedom as
           vibrations may cause significant error
 Vibrational temperatures:     30.67   413.82   556.63   615.64   776.91
          (Kelvin)            805.27   990.16  1205.44  1242.87  1779.28
                             1788.12  1845.18  1943.61  2118.54  5447.40

 Zero-point correction=                           0.034138 (Hartree/Particle)
 Thermal correction to Energy=                    0.039590
 Thermal correction to Enthalpy=                  0.040535
 Thermal correction to Gibbs Free Energy=         0.003636
 Sum of electronic and zero-point Energies=           -451.477459
 Sum of electronic and thermal Energies=              -451.472006
 Sum of electronic and thermal Enthalpies=            -451.471062
 Sum of electronic and thermal Free Energies=         -451.507960

                     E (Thermal)             CV                S
                      KCal/Mol        Cal/Mol-Kelvin    Cal/Mol-Kelvin
 Total                   24.843             17.550             77.659
 Electronic               0.000              0.000              0.000
 Translational            0.889              2.981             39.658
 Rotational               0.889              2.981             26.243
 Vibrational             23.066             11.589             11.758
 Vibration     1          0.593              1.985              6.508
 Vibration     2          0.685              1.697              1.488
 Vibration     3          0.755              1.498              1.012
 Vibration     4          0.789              1.410              0.866
 Vibration     5          0.895              1.162              0.565
 Vibration     6          0.915              1.119              0.524

 Optimization completed.
    -- Stationary point found.
 Normal termination of Gaussian 16 at Sun May 25 03:30:52 2025.
