 Gaussian 16, Revision C.01,
 Gaussian 16:  ES64L-G16RevC.01  3-Jul-2019

 -----------------------------------------------------------------
 #P M062X/Def2TZVPP Symm(None) scf(xqc) pop(None) freq opt(CalcFC)
 -----------------------------------------------------------------

 ------------------------------
 Gaussian input prepared by ASE
 ------------------------------
 Symbolic Z-matrix:
 Charge =  0 Multiplicity = 1

 SCF Done:  E(RM062X) =  -526.647544314     A.U. after   16 cycles
 SCF Done:  E(RM062X) =  -526.647544316     A.U. after    8 cycles
 Optimization completed.
    -- Stationary point found.
 Normal termination of Gaussian 16 at Sun May 25 05:02:27 2025.

 ---------------------------------------------------------------------
 #P Geom=AllCheck Guess=TCheck SCRF=Check GenChk RM062X/def2TZVPP Freq
 ---------------------------------------------------------------------

 Structure from the checkpoint file:  "1141942801461180600001_well.chk"
 ------------------------------
 Gaussian input prepared by ASE
 ------------------------------
 Charge =  0 Multiplicity = 1

                          Input orientation:
 ---------------------------------------------------------------------
 Center     Atomic      Atomic             Coordinates (Angstroms)
 Number     Number       Type             X           Y           Z
 ---------------------------------------------------------------------
      1          6           0       -0.522249    0.461910    0.756188
      2          8           0       -2.673901    0.002650    1.116429
      3          6           0        0.661922    0.103646   -0.165294
      4          9           0        1.629598   -0.401566    0.593698
      5          9           0        0.414420   -0.773195   -1.142014
      6          9           0        1.094735    1.225081   -0.732227
      7          8           0       -1.481100   -0.225770    0.340289
      8          1           0       -3.281014   -0.596486    0.658271
 ---------------------------------------------------------------------

 SCF Done:  E(RM062X) =  -526.647544316     A.U. after    1 cycles

 Isotropic polarizability for W=    0.000000       38.24 Bohr**3.
 End of Minotr F.D. properties file   721 does not exist.

                      1                      2                      3
                      A                      A                      A
 Frequencies --     10.5428               200.2927               206.3975
 Red. masses --      7.9581                 1.6579                 9.6353
 Frc consts  --      0.0005                 0.0392                 0.2418
 IR Inten    --      9.2168               115.6981                 1.3605

                      4                      5                      6
                      A                      A                      A
 Frequencies --    255.8857               380.3486               425.1935
 Red. masses --      2.9140                14.6419                11.2760
 Frc consts  --      0.1124                 1.2480                 1.2011
 IR Inten    --     10.6979                 0.3638                 0.0107

                      7                      8                      9
                      A                      A                      A
 Frequencies --    442.0898               580.5359               581.6572
 Red. masses --     15.2451                14.8276                16.3419
 Frc consts  --      1.7555                 2.9443                 3.2575
 IR Inten    --      0.0618                 2.9898                 5.3029

                     10                     11                     12
                      A                      A                      A
 Frequencies --    706.8361               855.7858               949.5178
 Red. masses --     14.5406                15.9816                10.2290
 Frc consts  --      4.2803                 6.8961                 5.4336
 IR Inten    --     62.6526                56.0405                48.3754

                     13                     14                     15
                      A                      A                      A
 Frequencies --   1245.8619              1252.4839              1278.9666
 Red. masses --     10.4002                12.9752                10.4308
 Frc consts  --      9.5112                11.9925                10.0528
 IR Inten    --    226.5110               301.9854               205.4505

                     16                     17                     18
                      A                      A                      A
 Frequencies --   1397.9722              1514.5642              3805.6798
 Red. masses --      1.7947                 2.8263                 1.0677
 Frc consts  --      2.0665                 3.8198                 9.1110
 IR Inten    --    115.2541                12.8972               108.7687

 - Thermochemistry -
 -------------------
 Temperature   298.150 Kelvin.  Pressure   1.00000 Atm.
 Atom     1 has atomic number  6 and mass  12.00000

 Molecular mass:   113.99286 amu.
 Principal axes and moments of inertia in atomic units:
                           1         2         3
     Eigenvalues --   329.911191122.077481133.79648
           X            0.94254   0.21278  -0.25759
           Y            0.05609   0.65928   0.74981
           Z           -0.32936   0.72117  -0.60946
 This molecule is an asymmetric top.
 Rotational symmetry number  1.
 Rotational temperatures (Kelvin)      0.26254     0.07719     0.07639
 Rotational constants (GHZ):           5.47038     1.60839     1.59177
 Zero-point vibrational energy      96243.2 (Joules/Mol)
                                   23.00268 (Kcal/Mol)
 Warning -- explicit consideration of   9 degrees of freedom as
           vibrations may cause significant error
 Vibrational temperatures:     15.17   288.18   296.96   368.16   547.24
          (Kelvin)            611.76   636.07   835.26   836.88  1016.98
                             1231.28  1366.14  1792.52  1802.04  1840.15
                             2011.37  2179.12  5475.52

 Zero-point correction=                           0.036657 (Hartree/Particle)
 Thermal correction to Energy=                    0.043496
 Thermal correction to Enthalpy=                  0.044440
 Thermal correction to Gibbs Free Energy=         0.003652
 Sum of electronic and zero-point Energies=           -526.610887
 Sum of electronic and thermal Energies=              -526.604048
 Sum of electronic and thermal Enthalpies=            -526.603104
 Sum of electronic and thermal Free Energies=         -526.643892

                     E (Thermal)             CV                S
                      KCal/Mol        Cal/Mol-Kelvin    Cal/Mol-Kelvin
 Total                   27.294             22.323             85.845
 Electronic               0.000              0.000              0.000
 Translational            0.889              2.981             40.108
 Rotational               0.889              2.981             27.531
 Vibrational             25.517             16.361             18.206
 Vibration     1          0.593              1.987              7.906
 Vibration     2          0.638              1.839              2.130
 Vibration     3          0.641              1.831              2.075
 Vibration     4          0.666              1.753              1.690
 Vibration     5          0.750              1.512              1.038
 Vibration     6          0.787              1.415              0.875
 Vibration     7          0.802              1.378              0.820
 Vibration     8          0.937              1.073              0.484
 Vibration     9          0.938              1.071              0.482

 Optimization completed.
    -- Stationary point found.
 Normal termination of Gaussian 16 at Sun May 25 05:03:34 2025.
