 Gaussian 16, Revision C.01,
 Gaussian 16:  ES64L-G16RevC.01  3-Jul-2019

 ----------------------------------------------------------------------
 #P M062X/Def2TZVPP Symm(None) scf(xqc) pop(None) geom(AllCheck,NoKeepC
 onstants) guess(Read) irc(RCFC,reverse,MaxPoints=100,StepSize=2)
 ----------------------------------------------------------------------

 Structure from the checkpoint file:  "1141903082400600000001_r12_insertion_R_4_3_1_IRC_R.chk"
 ------------------------------
 Gaussian input prepared by ASE
 ------------------------------
 Charge =  0 Multiplicity = 1

 SCF Done:  E(RM062X) =  -526.724708048     A.U. after    9 cycles
 SCF Done:  E(RM062X) =  -526.724764040     A.U. after   10 cycles
 SCF Done:  E(RM062X) =  -526.724855730     A.U. after   10 cycles
 SCF Done:  E(RM062X) =  -526.724981831     A.U. after   10 cycles
 SCF Done:  E(RM062X) =  -526.725141126     A.U. after   10 cycles
 SCF Done:  E(RM062X) =  -526.725332435     A.U. after   10 cycles
 SCF Done:  E(RM062X) =  -526.725554602     A.U. after   10 cycles
 SCF Done:  E(RM062X) =  -526.725806463     A.U. after   10 cycles
 SCF Done:  E(RM062X) =  -526.726086845     A.U. after   10 cycles
 SCF Done:  E(RM062X) =  -526.726394574     A.U. after   10 cycles
 SCF Done:  E(RM062X) =  -526.760178544     A.U. after   10 cycles
 SCF Done:  E(RM062X) =  -526.760278559     A.U. after   10 cycles
 SCF Done:  E(RM062X) =  -526.760373900     A.U. after   10 cycles
 SCF Done:  E(RM062X) =  -526.760464973     A.U. after   10 cycles
 SCF Done:  E(RM062X) =  -526.760552093     A.U. after    9 cycles
 SCF Done:  E(RM062X) =  -526.760635593     A.U. after    9 cycles
 SCF Done:  E(RM062X) =  -526.760715721     A.U. after    9 cycles
 SCF Done:  E(RM062X) =  -526.760792817     A.U. after    9 cycles
 SCF Done:  E(RM062X) =  -526.760867032     A.U. after    9 cycles
 SCF Done:  E(RM062X) =  -526.760938689     A.U. after    9 cycles

                          Input orientation:
 ---------------------------------------------------------------------
 Center     Atomic      Atomic             Coordinates (Angstroms)
 Number     Number       Type             X           Y           Z
 ---------------------------------------------------------------------
      1          6           0        1.276518   -0.040986    0.507389
      2          8           0        1.563200   -1.175713    0.555082
      3          6           0       -1.059993   -0.277466   -1.041089
      4          9           0        0.296033    0.488898    1.270206
      5          9           0       -1.604961    0.895146   -0.922891
      6          9           0       -1.737614   -1.037937   -0.255184
      7          8           0        1.807335    0.893948   -0.256677
      8          1           0        1.368042    1.739807   -0.112358
 ---------------------------------------------------------------------

 Normal termination of Gaussian 16 at Sun May 25 04:07:17 2025.
