 Gaussian 16, Revision C.01,
 Gaussian 16:  ES64L-G16RevC.01  3-Jul-2019

 ----------------------------------------------------------------------
 #P M062X/Def2TZVPP Symm(None) scf(xqc) pop(None) geom(AllCheck,NoKeepC
 onstants) guess(Read) irc(RCFC,forward,MaxPoints=100,StepSize=2)
 ----------------------------------------------------------------------

 Structure from the checkpoint file:  "1141903082400600000001_intra_H_migration_2_8_IRC_F.chk"
 ------------------------------
 Gaussian input prepared by ASE
 ------------------------------
 Charge =  0 Multiplicity = 1

 SCF Done:  E(RM062X) =  -526.789189421     A.U. after    9 cycles
 SCF Done:  E(RM062X) =  -526.789288139     A.U. after   10 cycles
 SCF Done:  E(RM062X) =  -526.789452186     A.U. after   10 cycles
 SCF Done:  E(RM062X) =  -526.789680794     A.U. after   10 cycles
 SCF Done:  E(RM062X) =  -526.789972827     A.U. after   10 cycles
 SCF Done:  E(RM062X) =  -526.790326769     A.U. after   10 cycles
 SCF Done:  E(RM062X) =  -526.790740760     A.U. after   10 cycles
 SCF Done:  E(RM062X) =  -526.791212685     A.U. after   10 cycles
 SCF Done:  E(RM062X) =  -526.791740306     A.U. after   10 cycles
 SCF Done:  E(RM062X) =  -526.792321363     A.U. after   10 cycles
 SCF Done:  E(RM062X) =  -526.848561783     A.U. after    8 cycles
 SCF Done:  E(RM062X) =  -526.848752280     A.U. after    8 cycles
 SCF Done:  E(RM062X) =  -526.848935356     A.U. after    8 cycles
 SCF Done:  E(RM062X) =  -526.849111165     A.U. after    8 cycles
 SCF Done:  E(RM062X) =  -526.849279863     A.U. after    8 cycles
 SCF Done:  E(RM062X) =  -526.849441608     A.U. after    8 cycles
 SCF Done:  E(RM062X) =  -526.849596560     A.U. after    8 cycles
 SCF Done:  E(RM062X) =  -526.849744884     A.U. after    8 cycles
 SCF Done:  E(RM062X) =  -526.849886749     A.U. after    8 cycles
 SCF Done:  E(RM062X) =  -526.850022329     A.U. after    8 cycles

                          Input orientation:
 ---------------------------------------------------------------------
 Center     Atomic      Atomic             Coordinates (Angstroms)
 Number     Number       Type             X           Y           Z
 ---------------------------------------------------------------------
      1          6           0       -0.326193    0.318892   -0.885976
      2          8           0        0.157231    0.005164   -1.925120
      3          6           0        0.206428   -0.219531    0.482001
      4          9           0        0.895813   -1.328944    0.272340
      5          9           0        1.018726    0.680910    1.033692
      6          9           0       -0.767290   -0.484946    1.344503
      7          8           0       -1.334340    1.175819   -0.811237
      8          1           0       -1.519099    1.431591   -1.726910
 ---------------------------------------------------------------------

 Normal termination of Gaussian 16 at Sun May 25 04:11:21 2025.
