 Gaussian 16, Revision C.01,
 Gaussian 16:  ES64L-G16RevC.01  3-Jul-2019

 ----------------------------------------------------------------------
 #P M062X/Def2TZVPP Symm(None) scf(xqc) pop(None) geom(AllCheck,NoKeepC
 onstants) guess(Read) irc(RCFC,forward,MaxPoints=100,StepSize=2)
 ----------------------------------------------------------------------

 Structure from the checkpoint file:  "1141903082400600000001_r12_insertion_R_4_3_5_IRC_F.chk"
 ------------------------------
 Gaussian input prepared by ASE
 ------------------------------
 Charge =  0 Multiplicity = 1

 SCF Done:  E(RM062X) =  -526.605747526     A.U. after   19 cycles
 SCF Done:  E(RM062X) =  -526.605747691     A.U. after   20 cycles
 SCF Done:  E(RM062X) =  -526.605781148     A.U. after   22 cycles
 SCF Done:  E(RM062X) =  -526.605838560     A.U. after   22 cycles
 SCF Done:  E(RM062X) =  -526.605918730     A.U. after   22 cycles
 SCF Done:  E(RM062X) =  -526.606019948     A.U. after   22 cycles
 SCF Done:  E(RM062X) =  -526.606140345     A.U. after   22 cycles
 SCF Done:  E(RM062X) =  -526.606278027     A.U. after   22 cycles
 SCF Done:  E(RM062X) =  -526.606431178     A.U. after   22 cycles
 SCF Done:  E(RM062X) =  -526.606598116     A.U. after   22 cycles
 SCF Done:  E(RM062X) =  -526.626156701     A.U. after   14 cycles
 SCF Done:  E(RM062X) =  -526.626361955     A.U. after   14 cycles
 SCF Done:  E(RM062X) =  -526.626567077     A.U. after   14 cycles
 SCF Done:  E(RM062X) =  -526.626772199     A.U. after   14 cycles
 SCF Done:  E(RM062X) =  -526.626977469     A.U. after   14 cycles
 SCF Done:  E(RM062X) =  -526.627183027     A.U. after   14 cycles
 SCF Done:  E(RM062X) =  -526.627389021     A.U. after   13 cycles
 SCF Done:  E(RM062X) =  -526.627595507     A.U. after   13 cycles
 SCF Done:  E(RM062X) =  -526.627802412     A.U. after   14 cycles
 SCF Done:  E(RM062X) =  -526.628009414     A.U. after   15 cycles

                          Input orientation:
 ---------------------------------------------------------------------
 Center     Atomic      Atomic             Coordinates (Angstroms)
 Number     Number       Type             X           Y           Z
 ---------------------------------------------------------------------
      1          6           0        1.238754   -0.161729    0.304688
      2          8           0        1.932489   -1.028434    0.734572
      3          6           0       -0.188258   -0.473001   -0.075262
      4          9           0       -0.823637    0.158359   -0.910274
      5          9           0       -2.148211    1.616321   -0.324748
      6          9           0       -0.736883   -1.491924    0.433136
      7          8           0        1.529606    1.089243    0.030375
      8          1           0        2.458186    1.263000    0.244400
 ---------------------------------------------------------------------

 Normal termination of Gaussian 16 at Sun May 25 04:26:32 2025.
