 Gaussian 16, Revision C.01,
 Gaussian 16:  ES64L-G16RevC.01  3-Jul-2019

 -----------------------------------------------------------------
 #P M062X/Def2TZVPP Symm(None) scf(xqc) pop(None) freq opt(CalcFC)
 -----------------------------------------------------------------

 ------------------------------
 Gaussian input prepared by ASE
 ------------------------------
 Symbolic Z-matrix:
 Charge =  0 Multiplicity = 1

 SCF Done:  E(RM062X) =  -526.599132400     A.U. after   15 cycles
 SCF Done:  E(RM062X) =  -526.599162438     A.U. after   13 cycles
 SCF Done:  E(RM062X) =  -526.599162482     A.U. after    8 cycles
 Optimization completed.
    -- Stationary point found.
 Normal termination of Gaussian 16 at Sun May 25 04:03:53 2025.

 ---------------------------------------------------------------------
 #P Geom=AllCheck Guess=TCheck SCRF=Check GenChk RM062X/def2TZVPP Freq
 ---------------------------------------------------------------------

 Structure from the checkpoint file:  "1141903082400600000001_r12_insertion_R_7_1_2_IRC_R_prod.chk"
 ------------------------------
 Gaussian input prepared by ASE
 ------------------------------
 Charge =  0 Multiplicity = 1

                          Input orientation:
 ---------------------------------------------------------------------
 Center     Atomic      Atomic             Coordinates (Angstroms)
 Number     Number       Type             X           Y           Z
 ---------------------------------------------------------------------
      1          6           0        0.907756   -0.225376    0.610969
      2          8           0        1.680903   -0.395230   -0.575606
      3          6           0       -0.560154   -0.123544    0.161913
      4          9           0       -1.223190    0.679980    0.991204
      5          9           0       -0.767758    0.319469   -1.080617
      6          9           0       -1.080088   -1.348870    0.246774
      7          8           0        1.553035    0.991017   -0.194793
      8          1           0        2.361967    1.164680    0.317620
 ---------------------------------------------------------------------

 SCF Done:  E(RM062X) =  -526.599162482     A.U. after    1 cycles

 Isotropic polarizability for W=    0.000000       34.63 Bohr**3.
 End of Minotr F.D. properties file   721 does not exist.

                      1                      2                      3
                      A                      A                      A
 Frequencies --     65.6174               230.1476               264.9154
 Red. masses --     12.5809                 8.2406                13.9556
 Frc consts  --      0.0319                 0.2572                 0.5770
 IR Inten    --      1.8885                 3.8881                 0.0829

                      4                      5                      6
                      A                      A                      A
 Frequencies --    363.1571               453.0736               524.5676
 Red. masses --     15.2687                13.9162                15.6331
 Frc consts  --      1.1864                 1.6831                 2.5345
 IR Inten    --      2.2203                 3.1868                23.7908

                      7                      8                      9
                      A                      A                      A
 Frequencies --    557.5920               616.8134               660.4419
 Red. masses --     12.0569                13.6227                 4.3412
 Frc consts  --      2.2086                 3.0537                 1.1157
 IR Inten    --     13.8146                 1.8465                45.8639

                     10                     11                     12
                      A                      A                      A
 Frequencies --    789.8974               902.6204               926.8333
 Red. masses --      2.4549                 5.4076                 3.6082
 Frc consts  --      0.9025                 2.5958                 1.8262
 IR Inten    --     30.4290                55.8954                38.6863

                     13                     14                     15
                      A                      A                      A
 Frequencies --   1139.9743              1242.9400              1259.9425
 Red. masses --     13.0508                 9.7252                13.0575
 Frc consts  --      9.9926                 8.8522                12.2127
 IR Inten    --    107.9015               312.5303               294.8398

                     16                     17                     18
                      A                      A                      A
 Frequencies --   1310.4629              1329.7744              3735.6001
 Red. masses --      1.3527                 4.6497                 1.0676
 Frc consts  --      1.3687                 4.8443                 8.7776
 IR Inten    --     65.9183               104.6462               198.3437

 - Thermochemistry -
 -------------------
 Temperature   298.150 Kelvin.  Pressure   1.00000 Atm.
 Atom     1 has atomic number  6 and mass  12.00000

 Molecular mass:   113.99286 amu.
 Principal axes and moments of inertia in atomic units:
                           1         2         3
     Eigenvalues --   386.18829 789.72881 847.45130
           X            0.95800  -0.13609   0.25241
           Y            0.19758   0.95120  -0.23703
           Z           -0.20784   0.27695   0.93814
 This molecule is an asymmetric top.
 Rotational symmetry number  1.
 Rotational temperatures (Kelvin)      0.22428     0.10968     0.10221
 Rotational constants (GHZ):           4.67322     2.28527     2.12961
 Zero-point vibrational energy      97940.5 (Joules/Mol)
                                   23.40834 (Kcal/Mol)
 Warning -- explicit consideration of   8 degrees of freedom as
           vibrations may cause significant error
 Vibrational temperatures:     94.41   331.13   381.15   522.50   651.87
          (Kelvin)            754.74   802.25   887.46   950.23  1136.49
                             1298.67  1333.51  1640.17  1788.31  1812.78
                             1885.46  1913.25  5374.70

 Zero-point correction=                           0.037304 (Hartree/Particle)
 Thermal correction to Energy=                    0.043453
 Thermal correction to Enthalpy=                  0.044397
 Thermal correction to Gibbs Free Energy=         0.006673
 Sum of electronic and zero-point Energies=           -526.561859
 Sum of electronic and thermal Energies=              -526.555710
 Sum of electronic and thermal Enthalpies=            -526.554766
 Sum of electronic and thermal Free Energies=         -526.592489

                     E (Thermal)             CV                S
                      KCal/Mol        Cal/Mol-Kelvin    Cal/Mol-Kelvin
 Total                   27.267             21.089             79.396
 Electronic               0.000              0.000              0.000
 Translational            0.889              2.981             40.108
 Rotational               0.889              2.981             27.049
 Vibrational             25.489             15.127             12.238
 Vibration     1          0.597              1.971              4.281
 Vibration     2          0.652              1.795              1.878
 Vibration     3          0.671              1.737              1.629
 Vibration     4          0.737              1.548              1.109
 Vibration     5          0.812              1.354              0.787
 Vibration     6          0.880              1.196              0.599
 Vibration     7          0.913              1.123              0.529
 Vibration     8          0.976              0.996              0.422

 Optimization completed.
    -- Stationary point found.
 Normal termination of Gaussian 16 at Sun May 25 04:04:58 2025.
