 Gaussian 16, Revision C.01,
 Gaussian 16:  ES64L-G16RevC.01  3-Jul-2019

 ----------------------------------------------------------------------
 #P M062X/Def2TZVPP Symm(None) scf(xqc) pop(None) geom(AllCheck,NoKeepC
 onstants) guess(Read) irc(RCFC,forward,MaxPoints=100,StepSize=2)
 ----------------------------------------------------------------------

 Structure from the checkpoint file:  "1141903082400600000001_r12_insertion_R_7_1_3_IRC_F.chk"
 ------------------------------
 Gaussian input prepared by ASE
 ------------------------------
 Charge =  0 Multiplicity = 1

 SCF Done:  E(RM062X) =  -526.675732391     A.U. after   11 cycles
 SCF Done:  E(RM062X) =  -526.675836500     A.U. after   12 cycles
 SCF Done:  E(RM062X) =  -526.676008784     A.U. after   12 cycles
 SCF Done:  E(RM062X) =  -526.676248053     A.U. after   12 cycles
 SCF Done:  E(RM062X) =  -526.676552965     A.U. after   12 cycles
 SCF Done:  E(RM062X) =  -526.676922041     A.U. after   12 cycles
 SCF Done:  E(RM062X) =  -526.677353670     A.U. after   12 cycles
 SCF Done:  E(RM062X) =  -526.677846127     A.U. after   12 cycles
 SCF Done:  E(RM062X) =  -526.678397586     A.U. after   12 cycles
 SCF Done:  E(RM062X) =  -526.679006137     A.U. after   12 cycles
 SCF Done:  E(RM062X) =  -526.785148181     A.U. after    9 cycles
 SCF Done:  E(RM062X) =  -526.786292120     A.U. after    9 cycles
 SCF Done:  E(RM062X) =  -526.787422715     A.U. after    9 cycles
 SCF Done:  E(RM062X) =  -526.788539981     A.U. after    9 cycles
 SCF Done:  E(RM062X) =  -526.789643950     A.U. after    9 cycles
 SCF Done:  E(RM062X) =  -526.790734661     A.U. after    9 cycles
 SCF Done:  E(RM062X) =  -526.791812159     A.U. after    9 cycles
 SCF Done:  E(RM062X) =  -526.792876482     A.U. after    9 cycles
 SCF Done:  E(RM062X) =  -526.793927666     A.U. after    9 cycles
 SCF Done:  E(RM062X) =  -526.794965741     A.U. after    9 cycles

                          Input orientation:
 ---------------------------------------------------------------------
 Center     Atomic      Atomic             Coordinates (Angstroms)
 Number     Number       Type             X           Y           Z
 ---------------------------------------------------------------------
      1          6           0        1.188267   -1.230411   -0.505885
      2          8           0        2.187579   -1.404928   -0.034748
      3          6           0       -0.507371    0.411428    0.061060
      4          9           0       -1.055493    1.199032    0.969739
      5          9           0       -0.967089    0.510019   -1.163686
      6          9           0       -0.980551   -0.815997    0.468197
      7          8           0        0.804540    0.876087   -0.009306
      8          1           0        1.017316    1.309694    0.825794
 ---------------------------------------------------------------------

 Normal termination of Gaussian 16 at Sun May 25 04:15:52 2025.
