 Gaussian 16, Revision C.01,
 Gaussian 16:  ES64L-G16RevC.01  3-Jul-2019

 ----------------------------------------------------------------------
 #P M062X/Def2TZVPP Symm(None) scf(xqc) pop(None) opt(NoFreeze,TS,CalcA
 ll,NoEigentest,MaxCycle=999)
 ----------------------------------------------------------------------

 ------------------------------
 Gaussian input prepared by ASE
 ------------------------------
 Symbolic Z-matrix:
 Charge =  0 Multiplicity = 1

 SCF Done:  E(RM062X) =  -526.542656909     A.U. after   20 cycles
 SCF Done:  E(RM062X) =  -526.566084730     A.U. after   16 cycles
 SCF Done:  E(RM062X) =  -526.608351716     A.U. after   15 cycles
 SCF Done:  E(RM062X) =  -526.649923281     A.U. after   15 cycles
 SCF Done:  E(RM062X) =  -526.673756647     A.U. after   15 cycles
 SCF Done:  E(RM062X) =  -526.689335946     A.U. after   14 cycles
 SCF Done:  E(RM062X) =  -526.690092277     A.U. after   14 cycles
 SCF Done:  E(RM062X) =  -526.690115111     A.U. after    8 cycles
 SCF Done:  E(RM062X) =  -526.690359141     A.U. after   12 cycles
 SCF Done:  E(RM062X) =  -526.690846035     A.U. after   13 cycles
 SCF Done:  E(RM062X) =  -526.691197251     A.U. after   13 cycles
 SCF Done:  E(RM062X) =  -526.691223934     A.U. after   14 cycles
 SCF Done:  E(RM062X) =  -526.691239611     A.U. after   14 cycles
 SCF Done:  E(RM062X) =  -526.691325556     A.U. after   13 cycles
 SCF Done:  E(RM062X) =  -526.691330001     A.U. after   10 cycles

 Isotropic polarizability for W=    0.000000       36.81 Bohr**3.
 End of Minotr F.D. properties file   721 does not exist.

 Optimization completed.
    -- Stationary point found.

                          Input orientation:
 ---------------------------------------------------------------------
 Center     Atomic      Atomic             Coordinates (Angstroms)
 Number     Number       Type             X           Y           Z
 ---------------------------------------------------------------------
      1          6           0        1.548342    0.451274    0.431217
      2          8           0        1.563912   -0.193413   -0.663677
      3          6           0       -0.057768   -0.163061   -0.113248
      4          9           0       -0.836077    0.806859    0.376198
      5          9           0       -0.558851   -0.351385   -1.337400
      6          9           0       -0.197129   -1.266573    0.571997
      7          8           0        2.598782    1.158269    0.725848
      8          1           0        3.258416    1.062304    0.007981
 ---------------------------------------------------------------------

 ******    1 imaginary frequencies (negative Signs) ******

                      1                      2                      3
                      A                      A                      A
 Frequencies --   -759.8015                82.9480               139.4459
 Red. masses --     12.9441                13.8022                 5.2895
 Frc consts  --      4.4027                 0.0560                 0.0606
 IR Inten    --     73.2968                 3.2895                 6.6128

                      4                      5                      6
                      A                      A                      A
 Frequencies --    346.3812               416.0871               457.4818
 Red. masses --     11.6005                 8.3744                 7.9011
 Frc consts  --      0.8200                 0.8542                 0.9743
 IR Inten    --     53.5845                14.8147                64.6603

                      7                      8                      9
                      A                      A                      A
 Frequencies --    524.7582               593.4581               681.5582
 Red. masses --     10.1953                15.9199                 3.8780
 Frc consts  --      1.6541                 3.3035                 1.0614
 IR Inten    --      3.5116                 4.9477               194.4027

                     10                     11                     12
                      A                      A                      A
 Frequencies --    733.4804               750.1934               956.0306
 Red. masses --      1.6924                 6.4818                14.6466
 Frc consts  --      0.5365                 2.1493                 7.8873
 IR Inten    --    139.9592               150.2898               588.2312

                     13                     14                     15
                      A                      A                      A
 Frequencies --   1079.4299              1221.7086              1310.6051
 Red. masses --     12.8966                 1.8966                13.1530
 Frc consts  --      8.8535                 1.6679                13.3112
 IR Inten    --    228.8527                95.4051               326.6015

                     16                     17                     18
                      A                      A                      A
 Frequencies --   1395.0336              1571.9313              3598.3523
 Red. masses --      4.5978                 7.5688                 1.0620
 Frc consts  --      5.2719                11.0191                 8.1015
 IR Inten    --    100.0092               294.9035                29.6391

 - Thermochemistry -
 -------------------
 Temperature   298.150 Kelvin.  Pressure   1.00000 Atm.
 Atom     1 has atomic number  6 and mass  12.00000

 Molecular mass:   113.99286 amu.
 Principal axes and moments of inertia in atomic units:
                           1         2         3
     Eigenvalues --   373.98965 891.96093 942.73654
           X            0.90319  -0.41247  -0.11880
           Y            0.36203   0.58333   0.72709
           Z            0.23060   0.69971  -0.67619
 This molecule is an asymmetric top.
 Rotational symmetry number  1.
 Rotational temperatures (Kelvin)      0.23159     0.09711     0.09188
 Rotational constants (GHZ):           4.82564     2.02334     1.91436
    1 imaginary frequencies ignored.
 Zero-point vibrational energy      94857.2 (Joules/Mol)
                                   22.67141 (Kcal/Mol)
 Warning -- explicit consideration of   7 degrees of freedom as
           vibrations may cause significant error
 Vibrational temperatures:    119.34   200.63   498.37   598.66   658.21
          (Kelvin)            755.01   853.85   980.61  1055.31  1079.36
                             1375.51  1553.06  1757.77  1885.67  2007.14
                             2261.66  5177.23

 Zero-point correction=                           0.036129 (Hartree/Particle)
 Thermal correction to Energy=                    0.042100
 Thermal correction to Enthalpy=                  0.043045
 Thermal correction to Gibbs Free Energy=         0.005497
 Sum of electronic and zero-point Energies=           -526.655201
 Sum of electronic and thermal Energies=              -526.649230
 Sum of electronic and thermal Enthalpies=            -526.648285
 Sum of electronic and thermal Free Energies=         -526.685833

                     E (Thermal)             CV                S
                      KCal/Mol        Cal/Mol-Kelvin    Cal/Mol-Kelvin
 Total                   26.418             20.033             79.025
 Electronic               0.000              0.000              0.000
 Translational            0.889              2.981             40.108
 Rotational               0.889              2.981             27.244
 Vibrational             24.641             14.071             11.673
 Vibration     1          0.600              1.961              3.820
 Vibration     2          0.615              1.914              2.811
 Vibration     3          0.724              1.583              1.183
 Vibration     4          0.779              1.435              0.905
 Vibration     5          0.816              1.344              0.773
 Vibration     6          0.880              1.195              0.599
 Vibration     7          0.951              1.046              0.461

 Normal termination of Gaussian 16 at Sun May 25 04:00:04 2025.
