 Gaussian 16, Revision C.01,
 Gaussian 16:  ES64L-G16RevC.01  3-Jul-2019

 -----------------------------------------------------------------
 #P M062X/Def2TZVPP Symm(None) scf(xqc) pop(None) freq opt(CalcFC)
 -----------------------------------------------------------------

 ------------------------------
 Gaussian input prepared by ASE
 ------------------------------
 Symbolic Z-matrix:
 Charge =  0 Multiplicity = 1

 SCF Done:  E(RM062X) =  -526.850810792     A.U. after   14 cycles
 SCF Done:  E(RM062X) =  -526.852290415     A.U. after   13 cycles
 SCF Done:  E(RM062X) =  -526.852611193     A.U. after   13 cycles
 SCF Done:  E(RM062X) =  -526.852695396     A.U. after   15 cycles
 SCF Done:  E(RM062X) =  -526.852645523     A.U. after   12 cycles
 SCF Done:  E(RM062X) =  -526.852762861     A.U. after   12 cycles
 SCF Done:  E(RM062X) =  -526.852766452     A.U. after   11 cycles
 Optimization completed.
    -- Stationary point found.
 Normal termination of Gaussian 16 at Sun May 25 04:19:25 2025.

 ---------------------------------------------------------------------
 #P Geom=AllCheck Guess=TCheck SCRF=Check GenChk RM062X/def2TZVPP Freq
 ---------------------------------------------------------------------

 Structure from the checkpoint file:  "1141903082400600000001_r12_insertion_R_7_1_2_IRC_F_prod.chk"
 ------------------------------
 Gaussian input prepared by ASE
 ------------------------------
 Charge =  0 Multiplicity = 1

                          Input orientation:
 ---------------------------------------------------------------------
 Center     Atomic      Atomic             Coordinates (Angstroms)
 Number     Number       Type             X           Y           Z
 ---------------------------------------------------------------------
      1          6           0        0.998303    0.005549   -0.003742
      2          8           0        1.708011   -0.946943   -0.022319
      3          6           0       -0.542779   -0.082109    0.022704
      4          9           0       -1.018956    0.510811    1.114539
      5          9           0       -1.056752    0.527299   -1.042687
      6          9           0       -0.930710   -1.343161    0.019916
      7          8           0        1.377835    1.279045   -0.002240
      8          1           0        2.344297    1.309924   -0.018606
 ---------------------------------------------------------------------

 SCF Done:  E(RM062X) =  -526.852766452     A.U. after    1 cycles

 Isotropic polarizability for W=    0.000000       31.73 Bohr**3.
 End of Minotr F.D. properties file   721 does not exist.

                      1                      2                      3
                      A                      A                      A
 Frequencies --     36.3736               239.1595               246.3853
 Red. masses --     14.3880                11.5736                 9.5130
 Frc consts  --      0.0112                 0.3900                 0.3402
 IR Inten    --      1.7418                 1.3793                 0.0959

                      4                      5                      6
                      A                      A                      A
 Frequencies --    394.7678               432.7435               513.9663
 Red. masses --     12.0922                15.4497                 4.7424
 Frc consts  --      1.1103                 1.7046                 0.7381
 IR Inten    --      2.1762                 0.0435                 3.6780

                      7                      8                      9
                      A                      A                      A
 Frequencies --    596.6013               600.6679               681.7528
 Red. masses --      1.4087                14.1694                 4.9050
 Frc consts  --      0.2954                 3.0121                 1.3432
 IR Inten    --    103.8967                 9.4137                79.1052

                     10                     11                     12
                      A                      A                      A
 Frequencies --    807.3917               824.9460              1179.6681
 Red. masses --      9.8975                 8.7380                 4.2127
 Frc consts  --      3.8014                 3.5036                 3.4541
 IR Inten    --     37.1130                 2.7614               311.5142

                     13                     14                     15
                      A                      A                      A
 Frequencies --   1245.4041              1248.6217              1313.4825
 Red. masses --      2.5568                12.6908                 7.0750
 Frc consts  --      2.3365                11.6574                 7.1916
 IR Inten    --    191.1663               297.0890               192.2780

                     16                     17                     18
                      A                      A                      A
 Frequencies --   1457.9956              1926.7549              3813.0668
 Red. masses --      5.4398                11.6928                 1.0647
 Frc consts  --      6.8131                25.5753                 9.1203
 IR Inten    --     55.1805               320.4798               123.8694

 - Thermochemistry -
 -------------------
 Temperature   298.150 Kelvin.  Pressure   1.00000 Atm.
 Atom     1 has atomic number  6 and mass  12.00000

 Molecular mass:   113.99286 amu.
 Principal axes and moments of inertia in atomic units:
                           1         2         3
     Eigenvalues --   463.61076 717.59318 865.36573
           X            0.99115  -0.13158   0.01753
           Y            0.13171   0.99127  -0.00637
           Z           -0.01654   0.00862   0.99983
 This molecule is an asymmetric top.
 Rotational symmetry number  1.
 Warning -- assumption of classical behavior for rotation
           may cause significant error
 Rotational temperatures (Kelvin)      0.18682     0.12070     0.10009
 Rotational constants (GHZ):           3.89279     2.51499     2.08552
 Zero-point vibrational energy     105030.6 (Joules/Mol)
                                   25.10292 (Kcal/Mol)
 Warning -- explicit consideration of   8 degrees of freedom as
           vibrations may cause significant error
 Vibrational temperatures:     52.33   344.10   354.49   567.98   622.62
          (Kelvin)            739.48   858.38   864.23   980.89  1161.66
                             1186.91  1697.28  1791.86  1796.49  1889.81
                             2097.73  2772.17  5486.15

 Zero-point correction=                           0.040004 (Hartree/Particle)
 Thermal correction to Energy=                    0.046154
 Thermal correction to Enthalpy=                  0.047098
 Thermal correction to Gibbs Free Energy=         0.008845
 Sum of electronic and zero-point Energies=           -526.812762
 Sum of electronic and thermal Energies=              -526.806613
 Sum of electronic and thermal Enthalpies=            -526.805669
 Sum of electronic and thermal Free Energies=         -526.843922

                     E (Thermal)             CV                S
                      KCal/Mol        Cal/Mol-Kelvin    Cal/Mol-Kelvin
 Total                   28.962             20.590             80.510
 Electronic               0.000              0.000              0.000
 Translational            0.889              2.981             40.108
 Rotational               0.889              2.981             27.156
 Vibrational             27.184             14.629             13.245
 Vibration     1          0.594              1.982              5.447
 Vibration     2          0.657              1.781              1.809
 Vibration     3          0.661              1.769              1.756
 Vibration     4          0.762              1.481              0.982
 Vibration     5          0.794              1.399              0.850
 Vibration     6          0.869              1.219              0.624
 Vibration     7          0.954              1.039              0.456
 Vibration     8          0.959              1.030              0.449

 Optimization completed.
    -- Stationary point found.
 Normal termination of Gaussian 16 at Sun May 25 04:20:42 2025.
