 Gaussian 16, Revision C.01,
 Gaussian 16:  ES64L-G16RevC.01  3-Jul-2019

 ----------------------------------------------------------------------
 #P mp2/6-31G Symm(None) scf(xqc) pop(None) guess(Read,Mix) geom(AllChe
 ck,NoKeepConstants) irc(RCFC,reverse,MaxPoints=100,StepSize=2)
 ----------------------------------------------------------------------

 Structure from the checkpoint file:  "1141903082400600000001_R_Addition_MultipleBond_1_7_8_IRC_R.chk"
 ------------------------------
 Gaussian input prepared by ASE
 ------------------------------
 Charge =  0 Multiplicity = 1

 SCF Done:  E(RHF) =  -524.043230827     A.U. after   16 cycles
 E2 =    -0.8392488098D+00 EUMP2 =    -0.52488247963685D+03
 SCF Done:  E(RHF) =  -524.043388038     A.U. after   11 cycles
 E2 =    -0.8391849997D+00 EUMP2 =    -0.52488257303773D+03
 SCF Done:  E(RHF) =  -524.043649632     A.U. after   11 cycles
 E2 =    -0.8390789056D+00 EUMP2 =    -0.52488272853724D+03
 SCF Done:  E(RHF) =  -524.044014484     A.U. after   11 cycles
 E2 =    -0.8389313815D+00 EUMP2 =    -0.52488294586553D+03
 SCF Done:  E(RHF) =  -524.044481329     A.U. after   11 cycles
 E2 =    -0.8387433164D+00 EUMP2 =    -0.52488322464563D+03
 SCF Done:  E(RHF) =  -524.045048538     A.U. after   11 cycles
 E2 =    -0.8385158437D+00 EUMP2 =    -0.52488356438214D+03
 SCF Done:  E(RHF) =  -524.045714148     A.U. after   11 cycles
 E2 =    -0.8382503075D+00 EUMP2 =    -0.52488396445504D+03
 SCF Done:  E(RHF) =  -524.046475878     A.U. after   11 cycles
 E2 =    -0.8379482351D+00 EUMP2 =    -0.52488442411283D+03
 SCF Done:  E(RHF) =  -524.047331157     A.U. after   11 cycles
 E2 =    -0.8376113087D+00 EUMP2 =    -0.52488494246560D+03
 SCF Done:  E(RHF) =  -524.048277142     A.U. after   11 cycles
 E2 =    -0.8372413367D+00 EUMP2 =    -0.52488551847836D+03
 E2 =    -0.8368402254D+00 EUMP2 =    -0.52488615096517D+03
 E2 =    -0.8364099509D+00 EUMP2 =    -0.52488683858418D+03
 E2 =    -0.8359525331D+00 EUMP2 =    -0.52488757983415D+03
 E2 =    -0.8354700112D+00 EUMP2 =    -0.52488837305221D+03
 E2 =    -0.8349644219D+00 EUMP2 =    -0.52488921641344D+03
 E2 =    -0.8344377803D+00 EUMP2 =    -0.52489010793183D+03
 E2 =    -0.8338920630D+00 EUMP2 =    -0.52489104546287D+03
 E2 =    -0.8333291955D+00 EUMP2 =    -0.52489202670767D+03
 E2 =    -0.8327510405D+00 EUMP2 =    -0.52489304921845D+03
 E2 =    -0.8321593910D+00 EUMP2 =    -0.52489411040532D+03
 E2 =    -0.8083020775D+00 EUMP2 =    -0.52494607112043D+03
 E2 =    -0.8082645490D+00 EUMP2 =    -0.52494638187350D+03
 E2 =    -0.8082349635D+00 EUMP2 =    -0.52494668318641D+03
 E2 =    -0.8082129323D+00 EUMP2 =    -0.52494697537845D+03
 E2 =    -0.8081980471D+00 EUMP2 =    -0.52494725874369D+03
 E2 =    -0.8081898846D+00 EUMP2 =    -0.52494753355280D+03
 E2 =    -0.8081880104D+00 EUMP2 =    -0.52494780005469D+03
 E2 =    -0.8081919832D+00 EUMP2 =    -0.52494805847854D+03
 E2 =    -0.8082013583D+00 EUMP2 =    -0.52494830903573D+03
 E2 =    -0.8082156908D+00 EUMP2 =    -0.52494855192185D+03
 SCF Done:  E(RHF) =  -524.140552780     A.U. after   10 cycles
 E2 =    -0.8082345382D+00 EUMP2 =    -0.52494878731848D+03
 SCF Done:  E(RHF) =  -524.140757932     A.U. after   10 cycles
 E2 =    -0.8082574630D+00 EUMP2 =    -0.52494901539510D+03
 SCF Done:  E(RHF) =  -524.140952276     A.U. after   10 cycles
 E2 =    -0.8082840344D+00 EUMP2 =    -0.52494923631077D+03
 SCF Done:  E(RHF) =  -524.141136386     A.U. after   10 cycles
 E2 =    -0.8083138297D+00 EUMP2 =    -0.52494945021585D+03
 SCF Done:  E(RHF) =  -524.141310818     A.U. after   10 cycles
 E2 =    -0.8083464358D+00 EUMP2 =    -0.52494965725338D+03
 SCF Done:  E(RHF) =  -524.141476110     A.U. after   10 cycles
 E2 =    -0.8083814501D+00 EUMP2 =    -0.52494985756056D+03
 SCF Done:  E(RHF) =  -524.141632789     A.U. after   10 cycles
 E2 =    -0.8084184806D+00 EUMP2 =    -0.52495005126993D+03
 SCF Done:  E(RHF) =  -524.141781363     A.U. after   10 cycles
 E2 =    -0.8084571471D+00 EUMP2 =    -0.52495023851056D+03
 SCF Done:  E(RHF) =  -524.141922328     A.U. after   10 cycles
 E2 =    -0.8084970809D+00 EUMP2 =    -0.52495041940904D+03
 SCF Done:  E(RHF) =  -524.142056165     A.U. after   10 cycles
 E2 =    -0.8085379252D+00 EUMP2 =    -0.52495059409038D+03

                          Input orientation:
 ---------------------------------------------------------------------
 Center     Atomic      Atomic             Coordinates (Angstroms)
 Number     Number       Type             X           Y           Z
 ---------------------------------------------------------------------
      1          6           0        0.985940    0.067952   -0.003133
      2          8           0        1.750738   -0.830739   -0.395576
      3          6           0       -0.552287   -0.077094    0.009832
      4          9           0       -1.177030    0.676019    1.001273
      5          9           0       -1.083971    0.308403   -1.229977
      6          9           0       -0.881265   -1.419697    0.214387
      7          8           0        1.499910    1.277601    0.389396
      8          1           0        2.480950    1.222184    0.288213
 ---------------------------------------------------------------------

 Normal termination of Gaussian 16 at Sun May 25 03:45:22 2025.
