 Gaussian 16, Revision C.01,
 Gaussian 16:  ES64L-G16RevC.01  3-Jul-2019

 ----------------------------------------------------------------------
 #P M062X/Def2TZVPP Symm(None) scf(xqc) pop(None) geom(AllCheck,NoKeepC
 onstants) guess(Read) irc(RCFC,forward,MaxPoints=100,StepSize=2)
 ----------------------------------------------------------------------

 Structure from the checkpoint file:  "1141903082400600000001_r13_insertion_CO2_3_8_IRC_F.chk"
 ------------------------------
 Gaussian input prepared by ASE
 ------------------------------
 Charge =  0 Multiplicity = 1

 SCF Done:  E(RM062X) =  -526.727431427     A.U. after   10 cycles
 SCF Done:  E(RM062X) =  -526.727542446     A.U. after   11 cycles
 SCF Done:  E(RM062X) =  -526.727730121     A.U. after   11 cycles
 SCF Done:  E(RM062X) =  -526.727995817     A.U. after   11 cycles
 SCF Done:  E(RM062X) =  -526.728340281     A.U. after   11 cycles
 SCF Done:  E(RM062X) =  -526.728763711     A.U. after   11 cycles
 SCF Done:  E(RM062X) =  -526.729265845     A.U. after   11 cycles
 SCF Done:  E(RM062X) =  -526.729846072     A.U. after   11 cycles
 SCF Done:  E(RM062X) =  -526.730503548     A.U. after   11 cycles
 SCF Done:  E(RM062X) =  -526.731237279     A.U. after   11 cycles
 SCF Done:  E(RM062X) =  -526.818628914     A.U. after    9 cycles
 SCF Done:  E(RM062X) =  -526.819167361     A.U. after    9 cycles
 SCF Done:  E(RM062X) =  -526.819698308     A.U. after    9 cycles
 SCF Done:  E(RM062X) =  -526.820221889     A.U. after    9 cycles
 SCF Done:  E(RM062X) =  -526.820738238     A.U. after    9 cycles
 SCF Done:  E(RM062X) =  -526.821247482     A.U. after    9 cycles
 SCF Done:  E(RM062X) =  -526.821749747     A.U. after    9 cycles
 SCF Done:  E(RM062X) =  -526.822245156     A.U. after    9 cycles
 SCF Done:  E(RM062X) =  -526.822733828     A.U. after    9 cycles
 SCF Done:  E(RM062X) =  -526.823215880     A.U. after    9 cycles

                          Input orientation:
 ---------------------------------------------------------------------
 Center     Atomic      Atomic             Coordinates (Angstroms)
 Number     Number       Type             X           Y           Z
 ---------------------------------------------------------------------
      1          6           0        1.632118    0.056855   -0.254897
      2          8           0        1.570221   -0.486859   -1.264742
      3          6           0       -0.740503    0.027645    0.215625
      4          9           0       -1.417593    0.499386    1.243554
      5          9           0       -1.126190    0.606954   -0.910825
      6          9           0       -0.903262   -1.281567    0.102276
      7          8           0        1.841518    0.612605    0.745001
      8          1           0        0.216813    0.301362    0.516039
 ---------------------------------------------------------------------

 Normal termination of Gaussian 16 at Sun May 25 04:21:31 2025.
