 Gaussian 16, Revision C.01,
 Gaussian 16:  ES64L-G16RevC.01  3-Jul-2019

 ----------------------------------------------------------------------
 #P M062X/Def2TZVPP Symm(None) scf(xqc) pop(None) geom(AllCheck,NoKeepC
 onstants) guess(Read) irc(RCFC,forward,MaxPoints=100,StepSize=2)
 ----------------------------------------------------------------------

 Structure from the checkpoint file:  "1141903082400600000001_r13_insertion_ROR_4_3_1_2_IRC_F.chk"
 ------------------------------
 Gaussian input prepared by ASE
 ------------------------------
 Charge =  0 Multiplicity = 1

 SCF Done:  E(RM062X) =  -526.757311387     A.U. after    9 cycles
 SCF Done:  E(RM062X) =  -526.757330552     A.U. after   10 cycles
 SCF Done:  E(RM062X) =  -526.757362634     A.U. after   10 cycles
 SCF Done:  E(RM062X) =  -526.757407690     A.U. after   10 cycles
 SCF Done:  E(RM062X) =  -526.757465730     A.U. after   10 cycles
 SCF Done:  E(RM062X) =  -526.757536727     A.U. after   10 cycles
 SCF Done:  E(RM062X) =  -526.757620618     A.U. after   10 cycles
 SCF Done:  E(RM062X) =  -526.757717316     A.U. after   10 cycles
 SCF Done:  E(RM062X) =  -526.757826708     A.U. after   10 cycles
 SCF Done:  E(RM062X) =  -526.757948656     A.U. after   10 cycles
 SCF Done:  E(RM062X) =  -526.794450083     A.U. after   10 cycles
 SCF Done:  E(RM062X) =  -526.795126352     A.U. after   10 cycles
 SCF Done:  E(RM062X) =  -526.795772040     A.U. after   10 cycles
 SCF Done:  E(RM062X) =  -526.796383617     A.U. after    9 cycles
 SCF Done:  E(RM062X) =  -526.796957745     A.U. after    9 cycles
 SCF Done:  E(RM062X) =  -526.797491425     A.U. after    9 cycles
 SCF Done:  E(RM062X) =  -526.797982164     A.U. after    9 cycles
 SCF Done:  E(RM062X) =  -526.798428166     A.U. after    9 cycles
 SCF Done:  E(RM062X) =  -526.798828519     A.U. after    9 cycles
 SCF Done:  E(RM062X) =  -526.799183365     A.U. after    9 cycles

                          Input orientation:
 ---------------------------------------------------------------------
 Center     Atomic      Atomic             Coordinates (Angstroms)
 Number     Number       Type             X           Y           Z
 ---------------------------------------------------------------------
      1          6           0        0.231113    0.675823    0.203950
      2          8           0       -0.345090    0.420228   -1.107090
      3          6           0       -0.178242   -0.623235   -0.238485
      4          9           0       -0.556290    1.403095    0.995472
      5          9           0       -1.271244   -1.198361    0.229614
      6          9           0        0.718093   -1.532957   -0.575569
      7          8           0        1.521345    0.994885    0.335753
      8          1           0        1.616434    1.952237    0.408431
 ---------------------------------------------------------------------

 Normal termination of Gaussian 16 at Sun May 25 04:26:02 2025.
