 Gaussian 16, Revision C.01,
 Gaussian 16:  ES64L-G16RevC.01  3-Jul-2019

 ----------------------------------------------------------------------
 #P M062X/Def2TZVPP Symm(None) scf(xqc) pop(None) geom(AllCheck,NoKeepC
 onstants) guess(Read) irc(RCFC,reverse,MaxPoints=100,StepSize=2)
 ----------------------------------------------------------------------

 Structure from the checkpoint file:  "1141903082400600000001_r12_insertion_R_7_1_3_IRC_R.chk"
 ------------------------------
 Gaussian input prepared by ASE
 ------------------------------
 Charge =  0 Multiplicity = 1

 SCF Done:  E(RM062X) =  -526.675732705     A.U. after   11 cycles
 SCF Done:  E(RM062X) =  -526.675838743     A.U. after   12 cycles
 SCF Done:  E(RM062X) =  -526.676016188     A.U. after   12 cycles
 SCF Done:  E(RM062X) =  -526.676265470     A.U. after   12 cycles
 SCF Done:  E(RM062X) =  -526.676586875     A.U. after   12 cycles
 SCF Done:  E(RM062X) =  -526.676980544     A.U. after   12 cycles
 SCF Done:  E(RM062X) =  -526.677446479     A.U. after   12 cycles
 SCF Done:  E(RM062X) =  -526.677984544     A.U. after   12 cycles
 SCF Done:  E(RM062X) =  -526.678594464     A.U. after   12 cycles
 SCF Done:  E(RM062X) =  -526.679275826     A.U. after   12 cycles
 SCF Done:  E(RM062X) =  -526.813579567     A.U. after    9 cycles
 SCF Done:  E(RM062X) =  -526.814782795     A.U. after    9 cycles
 SCF Done:  E(RM062X) =  -526.815964432     A.U. after    9 cycles
 SCF Done:  E(RM062X) =  -526.817124406     A.U. after    9 cycles
 SCF Done:  E(RM062X) =  -526.818262679     A.U. after    9 cycles
 SCF Done:  E(RM062X) =  -526.819379246     A.U. after    9 cycles
 SCF Done:  E(RM062X) =  -526.820474120     A.U. after    9 cycles
 SCF Done:  E(RM062X) =  -526.821547308     A.U. after    9 cycles
 SCF Done:  E(RM062X) =  -526.822598787     A.U. after    9 cycles
 SCF Done:  E(RM062X) =  -526.823628493     A.U. after    9 cycles

                          Input orientation:
 ---------------------------------------------------------------------
 Center     Atomic      Atomic             Coordinates (Angstroms)
 Number     Number       Type             X           Y           Z
 ---------------------------------------------------------------------
      1          6           0        1.033535   -0.332640   -0.074489
      2          8           0        1.798397   -1.253281   -0.101345
      3          6           0       -0.561422   -0.011810    0.041522
      4          9           0       -0.841288    1.002143    0.884560
      5          9           0       -0.953824    0.430025   -1.156522
      6          9           0       -1.273125   -1.023695    0.465436
      7          8           0        1.349139    0.955696   -0.112587
      8          1           0        2.264984    1.123977    0.140031
 ---------------------------------------------------------------------

 Normal termination of Gaussian 16 at Sun May 25 04:15:39 2025.
