 Gaussian 16, Revision C.01,
 Gaussian 16:  ES64L-G16RevC.01  3-Jul-2019

 ----------------------------------------------------------------------
 #P M062X/Def2TZVPP Symm(None) scf(xqc) pop(None) geom(AllCheck,NoKeepC
 onstants) guess(Read) irc(RCFC,reverse,MaxPoints=100,StepSize=2)
 ----------------------------------------------------------------------

 Structure from the checkpoint file:  "1141903082400600000001_r12_insertion_R_3_1_2_IRC_R.chk"
 ------------------------------
 Gaussian input prepared by ASE
 ------------------------------
 Charge =  0 Multiplicity = 1

 SCF Done:  E(RM062X) =  -526.691385419     A.U. after   11 cycles
 SCF Done:  E(RM062X) =  -526.691553515     A.U. after   12 cycles
 SCF Done:  E(RM062X) =  -526.691833828     A.U. after   12 cycles
 SCF Done:  E(RM062X) =  -526.692225401     A.U. after   12 cycles
 SCF Done:  E(RM062X) =  -526.692726855     A.U. after   12 cycles
 SCF Done:  E(RM062X) =  -526.693336469     A.U. after   12 cycles
 SCF Done:  E(RM062X) =  -526.694052239     A.U. after   12 cycles
 SCF Done:  E(RM062X) =  -526.694871933     A.U. after   12 cycles
 SCF Done:  E(RM062X) =  -526.695793126     A.U. after   12 cycles
 SCF Done:  E(RM062X) =  -526.696813240     A.U. after   12 cycles
 SCF Done:  E(RM062X) =  -526.831780420     A.U. after    9 cycles
 SCF Done:  E(RM062X) =  -526.832587881     A.U. after    9 cycles
 SCF Done:  E(RM062X) =  -526.833372936     A.U. after    9 cycles
 SCF Done:  E(RM062X) =  -526.834135935     A.U. after    9 cycles
 SCF Done:  E(RM062X) =  -526.834877260     A.U. after    9 cycles
 SCF Done:  E(RM062X) =  -526.835597246     A.U. after    9 cycles
 SCF Done:  E(RM062X) =  -526.836296224     A.U. after    9 cycles
 SCF Done:  E(RM062X) =  -526.836974019     A.U. after    9 cycles
 SCF Done:  E(RM062X) =  -526.837628786     A.U. after    9 cycles
 SCF Done:  E(RM062X) =  -526.838261411     A.U. after    9 cycles

                          Input orientation:
 ---------------------------------------------------------------------
 Center     Atomic      Atomic             Coordinates (Angstroms)
 Number     Number       Type             X           Y           Z
 ---------------------------------------------------------------------
      1          6           0        0.984286    0.239102   -0.016048
      2          8           0        1.521612   -0.391630   -0.866970
      3          6           0       -0.569786   -0.078919    0.036976
      4          9           0       -1.408452    0.813315    0.541521
      5          9           0       -0.943885   -0.295691   -1.216555
      6          9           0       -0.715056   -1.235122    0.685625
      7          8           0        1.648368    1.060585    0.805701
      8          1           0        2.576916    1.001506    0.524147
 ---------------------------------------------------------------------

 Normal termination of Gaussian 16 at Sun May 25 04:28:43 2025.
