 Gaussian 16, Revision C.01,
 Gaussian 16:  ES64L-G16RevC.01  3-Jul-2019

 -----------------------------------------------------------------
 #P M062X/Def2TZVPP Symm(None) scf(xqc) pop(None) freq opt(CalcFC)
 -----------------------------------------------------------------

 ------------------------------
 Gaussian input prepared by ASE
 ------------------------------
 Symbolic Z-matrix:
 Charge =  0 Multiplicity = 1

 SCF Done:  E(RM062X) =  -526.784493271     A.U. after   13 cycles
 SCF Done:  E(RM062X) =  -526.785816217     A.U. after   12 cycles
 SCF Done:  E(RM062X) =  -526.785831872     A.U. after   10 cycles
 SCF Done:  E(RM062X) =  -526.785832426     A.U. after    8 cycles
 Optimization completed.
    -- Stationary point found.
 Normal termination of Gaussian 16 at Sun May 25 04:20:24 2025.

 ---------------------------------------------------------------------
 #P Geom=AllCheck Guess=TCheck SCRF=Check GenChk RM062X/def2TZVPP Freq
 ---------------------------------------------------------------------

 Structure from the checkpoint file:  "1141903082400600000001_r12_insertion_R_3_1_2_IRC_F_prod.chk"
 ------------------------------
 Gaussian input prepared by ASE
 ------------------------------
 Charge =  0 Multiplicity = 1

                          Input orientation:
 ---------------------------------------------------------------------
 Center     Atomic      Atomic             Coordinates (Angstroms)
 Number     Number       Type             X           Y           Z
 ---------------------------------------------------------------------
      1          6           0        1.246560    0.570950    0.859246
      2          8           0        0.654754    0.233010   -0.314268
      3          6           0       -0.630738   -0.252799   -0.208144
      4          9           0       -1.440635    0.639234    0.328778
      5          9           0       -1.038422   -0.522524   -1.433782
      6          9           0       -0.670865   -1.357130    0.512157
      7          8           0        2.428347    0.997975    0.558990
      8          1           0        2.609823    0.977554   -0.400843
 ---------------------------------------------------------------------

 SCF Done:  E(RM062X) =  -526.785832426     A.U. after    1 cycles

 Isotropic polarizability for W=    0.000000       34.71 Bohr**3.
 End of Minotr F.D. properties file   721 does not exist.

                      1                      2                      3
                      A                      A                      A
 Frequencies --    111.2683               147.2104               212.3935
 Red. masses --      7.2258                 5.6196                12.4278
 Frc consts  --      0.0527                 0.0718                 0.3303
 IR Inten    --     17.9688                10.4662                 4.3485

                      4                      5                      6
                      A                      A                      A
 Frequencies --    437.4893               443.6476               467.2507
 Red. masses --     13.7325                17.4659                 7.3641
 Frc consts  --      1.5486                 2.0254                 0.9473
 IR Inten    --      2.5097                 1.3505                 8.9911

                      7                      8                      9
                      A                      A                      A
 Frequencies --    621.8093               635.6242               751.0343
 Red. masses --     12.1628                16.5204                 9.9648
 Frc consts  --      2.7708                 3.9325                 3.3116
 IR Inten    --      0.4275                 0.9542                11.7397

                     10                     11                     12
                      A                      A                      A
 Frequencies --    780.7074               945.8306              1115.0036
 Red. masses --      1.3093                 7.2998                10.3415
 Frc consts  --      0.4702                 3.8476                 7.5751
 IR Inten    --    115.0123                35.5896               200.8278

                     13                     14                     15
                      A                      A                      A
 Frequencies --   1221.6279              1310.5786              1320.7382
 Red. masses --      3.3937                13.0480                 6.9167
 Frc consts  --      2.9840                13.2044                 7.1086
 IR Inten    --    919.2203               348.3548               333.3318

                     16                     17                     18
                      A                      A                      A
 Frequencies --   1380.5691              1430.7291              3619.3361
 Red. masses --      2.6865                 6.8577                 1.0625
 Frc consts  --      3.0168                 8.2708                 8.2005
 IR Inten    --     54.0711                75.9347                22.8938

 - Thermochemistry -
 -------------------
 Temperature   298.150 Kelvin.  Pressure   1.00000 Atm.
 Atom     1 has atomic number  6 and mass  12.00000

 Molecular mass:   113.99286 amu.
 Principal axes and moments of inertia in atomic units:
                           1         2         3
     Eigenvalues --   331.617871012.244581030.98760
           X            0.89169  -0.27667  -0.35824
           Y            0.36831  -0.01660   0.92956
           Z            0.26313   0.96082  -0.08710
 This molecule is an asymmetric top.
 Rotational symmetry number  1.
 Rotational temperatures (Kelvin)      0.26119     0.08557     0.08401
 Rotational constants (GHZ):           5.44223     1.78291     1.75050
 Zero-point vibrational energy     101400.5 (Joules/Mol)
                                   24.23531 (Kcal/Mol)
 Warning -- explicit consideration of   6 degrees of freedom as
           vibrations may cause significant error
 Vibrational temperatures:    160.09   211.80   305.59   629.45   638.31
          (Kelvin)            672.27   894.64   914.52  1080.57  1123.26
                             1360.84  1604.24  1757.65  1885.63  1900.25
                             1986.33  2058.50  5207.42

 Zero-point correction=                           0.038621 (Hartree/Particle)
 Thermal correction to Energy=                    0.044738
 Thermal correction to Enthalpy=                  0.045682
 Thermal correction to Gibbs Free Energy=         0.007957
 Sum of electronic and zero-point Energies=           -526.747211
 Sum of electronic and thermal Energies=              -526.741095
 Sum of electronic and thermal Enthalpies=            -526.740150
 Sum of electronic and thermal Free Energies=         -526.777876

                     E (Thermal)             CV                S
                      KCal/Mol        Cal/Mol-Kelvin    Cal/Mol-Kelvin
 Total                   28.073             20.465             79.400
 Electronic               0.000              0.000              0.000
 Translational            0.889              2.981             40.108
 Rotational               0.889              2.981             27.339
 Vibrational             26.296             14.503             11.952
 Vibration     1          0.607              1.940              3.247
 Vibration     2          0.617              1.906              2.708
 Vibration     3          0.643              1.822              2.023
 Vibration     4          0.798              1.388              0.835
 Vibration     5          0.803              1.375              0.815
 Vibration     6          0.825              1.323              0.745

 Optimization completed.
    -- Stationary point found.
 Normal termination of Gaussian 16 at Sun May 25 04:21:25 2025.
