 Gaussian 16, Revision C.01,
 Gaussian 16:  ES64L-G16RevC.01  3-Jul-2019

 ----------------------------------------------------------------------
 #P M062X/Def2TZVPP Symm(None) scf(xqc) pop(None) geom(AllCheck,NoKeepC
 onstants) guess(Read) irc(RCFC,reverse,MaxPoints=100,StepSize=2)
 ----------------------------------------------------------------------

 Structure from the checkpoint file:  "1141903082400600000001_r12_insertion_R_1_3_4_IRC_R.chk"
 ------------------------------
 Gaussian input prepared by ASE
 ------------------------------
 Charge =  0 Multiplicity = 1

 SCF Done:  E(RM062X) =  -526.724706178     A.U. after    9 cycles
 SCF Done:  E(RM062X) =  -526.724762353     A.U. after   10 cycles
 SCF Done:  E(RM062X) =  -526.724854411     A.U. after   10 cycles
 SCF Done:  E(RM062X) =  -526.724981041     A.U. after   10 cycles
 SCF Done:  E(RM062X) =  -526.725140958     A.U. after   10 cycles
 SCF Done:  E(RM062X) =  -526.725332910     A.U. after   10 cycles
 SCF Done:  E(RM062X) =  -526.725555684     A.U. after   10 cycles
 SCF Done:  E(RM062X) =  -526.725808103     A.U. after   10 cycles
 SCF Done:  E(RM062X) =  -526.726089024     A.U. after   10 cycles
 SCF Done:  E(RM062X) =  -526.726397329     A.U. after   10 cycles
 SCF Done:  E(RM062X) =  -526.760180641     A.U. after   10 cycles
 SCF Done:  E(RM062X) =  -526.760281450     A.U. after   10 cycles
 SCF Done:  E(RM062X) =  -526.760376587     A.U. after   10 cycles
 SCF Done:  E(RM062X) =  -526.760467687     A.U. after   10 cycles
 SCF Done:  E(RM062X) =  -526.760554754     A.U. after    9 cycles
 SCF Done:  E(RM062X) =  -526.760638173     A.U. after   10 cycles
 SCF Done:  E(RM062X) =  -526.760718206     A.U. after    9 cycles
 SCF Done:  E(RM062X) =  -526.760795171     A.U. after    9 cycles
 SCF Done:  E(RM062X) =  -526.760869274     A.U. after    9 cycles
 SCF Done:  E(RM062X) =  -526.760940831     A.U. after    9 cycles

                          Input orientation:
 ---------------------------------------------------------------------
 Center     Atomic      Atomic             Coordinates (Angstroms)
 Number     Number       Type             X           Y           Z
 ---------------------------------------------------------------------
      1          6           0        1.249715   -0.030839    0.571149
      2          8           0        1.550251   -1.161912    0.618022
      3          6           0       -1.001946   -0.277138   -1.098001
      4          9           0        0.223696    0.474335    1.290371
      5          9           0       -1.568294    0.886418   -0.990738
      6          9           0       -1.707509   -1.057924   -0.357952
      7          8           0        1.804651    0.922485   -0.152003
      8          1           0        1.346140    1.759889   -0.018875
 ---------------------------------------------------------------------

 Normal termination of Gaussian 16 at Sun May 25 04:10:31 2025.
