 Gaussian 16, Revision C.01,
 Gaussian 16:  ES64L-G16RevC.01  3-Jul-2019

 -----------------------------------------------------------------
 #P M062X/Def2TZVPP Symm(None) scf(xqc) pop(None) freq opt(CalcFC)
 -----------------------------------------------------------------

 ------------------------------
 Gaussian input prepared by ASE
 ------------------------------
 Symbolic Z-matrix:
 Charge =  0 Multiplicity = 1

 SCF Done:  E(RM062X) =  -526.838242451     A.U. after   13 cycles
 SCF Done:  E(RM062X) =  -526.851164030     A.U. after   13 cycles
 SCF Done:  E(RM062X) =  -526.852308650     A.U. after   13 cycles
 SCF Done:  E(RM062X) =  -526.852564157     A.U. after   15 cycles
 SCF Done:  E(RM062X) =  -526.852710257     A.U. after   11 cycles
 SCF Done:  E(RM062X) =  -526.852759526     A.U. after   12 cycles
 SCF Done:  E(RM062X) =  -526.852768051     A.U. after   11 cycles
 SCF Done:  E(RM062X) =  -526.852768190     A.U. after    9 cycles
 Optimization completed.
    -- Stationary point found.
 Normal termination of Gaussian 16 at Sun May 25 04:19:40 2025.

 ---------------------------------------------------------------------
 #P Geom=AllCheck Guess=TCheck SCRF=Check GenChk RM062X/def2TZVPP Freq
 ---------------------------------------------------------------------

 Structure from the checkpoint file:  "1141903082400600000001_r12_insertion_R_2_1_3_IRC_R_prod.chk"
 ------------------------------
 Gaussian input prepared by ASE
 ------------------------------
 Charge =  0 Multiplicity = 1

                          Input orientation:
 ---------------------------------------------------------------------
 Center     Atomic      Atomic             Coordinates (Angstroms)
 Number     Number       Type             X           Y           Z
 ---------------------------------------------------------------------
      1          6           0        0.990528    0.172683   -0.205798
      2          8           0        1.551212   -0.021679   -1.234958
      3          6           0       -0.515991   -0.090390    0.005825
      4          9           0       -1.135250    1.034548    0.354459
      5          9           0       -1.061553   -0.549788   -1.104107
      6          9           0       -0.695800   -0.984828    0.974418
      7          8           0        1.529443    0.635615    0.917152
      8          1           0        2.470857    0.793501    0.762042
 ---------------------------------------------------------------------

 SCF Done:  E(RM062X) =  -526.852768190     A.U. after    1 cycles

 Isotropic polarizability for W=    0.000000       31.74 Bohr**3.
 End of Minotr F.D. properties file   721 does not exist.

                      1                      2                      3
                      A                      A                      A
 Frequencies --     36.7220               238.9553               245.6664
 Red. masses --     14.4465                11.5441                 9.2606
 Frc consts  --      0.0115                 0.3884                 0.3293
 IR Inten    --      1.6977                 1.3431                 0.0607

                      4                      5                      6
                      A                      A                      A
 Frequencies --    394.6463               432.5981               511.8910
 Red. masses --     12.0782                15.4373                 4.1506
 Frc consts  --      1.1083                 1.7021                 0.6408
 IR Inten    --      2.1985                 0.0394                 5.8135

                      7                      8                      9
                      A                      A                      A
 Frequencies --    589.4200               600.8591               681.3484
 Red. masses --      1.4711                14.2465                 4.8832
 Frc consts  --      0.3011                 3.0304                 1.3357
 IR Inten    --    102.8935                 9.4005                79.3903

                     10                     11                     12
                      A                      A                      A
 Frequencies --    807.1271               824.5750              1178.6391
 Red. masses --     10.0961                 8.7164                 4.0891
 Frc consts  --      3.8751                 3.4918                 3.3469
 IR Inten    --     36.2578                 2.7873               310.1134

                     13                     14                     15
                      A                      A                      A
 Frequencies --   1244.1485              1247.6376              1313.2741
 Red. masses --      2.6092                12.4098                 7.1352
 Frc consts  --      2.3796                11.3813                 7.2505
 IR Inten    --    190.8202               295.8952               195.5782

                     16                     17                     18
                      A                      A                      A
 Frequencies --   1457.4881              1926.2383              3812.1099
 Red. masses --      5.4862                11.7019                 1.0647
 Frc consts  --      6.8664                25.5814                 9.1158
 IR Inten    --     55.1200               320.2182               124.0197

 - Thermochemistry -
 -------------------
 Temperature   298.150 Kelvin.  Pressure   1.00000 Atm.
 Atom     1 has atomic number  6 and mass  12.00000

 Molecular mass:   113.99286 amu.
 Principal axes and moments of inertia in atomic units:
                           1         2         3
     Eigenvalues --   463.59403 717.65507 865.40938
           X            0.97898   0.00575  -0.20389
           Y            0.19315   0.29513   0.93573
           Z           -0.06556   0.95544  -0.28781
 This molecule is an asymmetric top.
 Rotational symmetry number  1.
 Warning -- assumption of classical behavior for rotation
           may cause significant error
 Rotational temperatures (Kelvin)      0.18683     0.12069     0.10008
 Rotational constants (GHZ):           3.89293     2.51478     2.08542
 Zero-point vibrational energy     104932.5 (Joules/Mol)
                                   25.07947 (Kcal/Mol)
 Warning -- explicit consideration of   8 degrees of freedom as
           vibrations may cause significant error
 Vibrational temperatures:     52.83   343.80   353.46   567.81   622.41
          (Kelvin)            736.50   848.04   864.50   980.31  1161.28
                             1186.38  1695.80  1790.05  1795.07  1889.51
                             2097.00  2771.43  5484.78

 Zero-point correction=                           0.039967 (Hartree/Particle)
 Thermal correction to Energy=                    0.046123
 Thermal correction to Enthalpy=                  0.047067
 Thermal correction to Gibbs Free Energy=         0.008811
 Sum of electronic and zero-point Energies=           -526.812802
 Sum of electronic and thermal Energies=              -526.806645
 Sum of electronic and thermal Enthalpies=            -526.805701
 Sum of electronic and thermal Free Energies=         -526.843957

                     E (Thermal)             CV                S
                      KCal/Mol        Cal/Mol-Kelvin    Cal/Mol-Kelvin
 Total                   28.943             20.616             80.518
 Electronic               0.000              0.000              0.000
 Translational            0.889              2.981             40.108
 Rotational               0.889              2.981             27.156
 Vibrational             27.165             14.654             13.253
 Vibration     1          0.594              1.982              5.429
 Vibration     2          0.657              1.781              1.811
 Vibration     3          0.660              1.770              1.761
 Vibration     4          0.762              1.482              0.983
 Vibration     5          0.793              1.399              0.850
 Vibration     6          0.867              1.224              0.629
 Vibration     7          0.947              1.054              0.468
 Vibration     8          0.959              1.030              0.448

 Optimization completed.
    -- Stationary point found.
 Normal termination of Gaussian 16 at Sun May 25 04:21:00 2025.
