 Gaussian 16, Revision C.01,
 Gaussian 16:  ES64L-G16RevC.01  3-Jul-2019

 ----------------------------------------------------------------------
 #P M062X/Def2TZVPP Symm(None) scf(xqc) pop(None) geom(AllCheck,NoKeepC
 onstants) guess(Read) irc(RCFC,forward,MaxPoints=100,StepSize=2)
 ----------------------------------------------------------------------

 Structure from the checkpoint file:  "1141903082400600000001_r12_insertion_R_7_1_2_IRC_F.chk"
 ------------------------------
 Gaussian input prepared by ASE
 ------------------------------
 Charge =  0 Multiplicity = 1

 SCF Done:  E(RM062X) =  -526.567987579     A.U. after   14 cycles
 SCF Done:  E(RM062X) =  -526.568556081     A.U. after   19 cycles
 SCF Done:  E(RM062X) =  -526.569520599     A.U. after   19 cycles
 SCF Done:  E(RM062X) =  -526.570900273     A.U. after   20 cycles
 SCF Done:  E(RM062X) =  -526.572719831     A.U. after   20 cycles
 SCF Done:  E(RM062X) =  -526.575009759     A.U. after   20 cycles
 SCF Done:  E(RM062X) =  -526.577806307     A.U. after   20 cycles
 SCF Done:  E(RM062X) =  -526.581150791     A.U. after   21 cycles
 SCF Done:  E(RM062X) =  -526.585087825     A.U. after   21 cycles
 SCF Done:  E(RM062X) =  -526.589662398     A.U. after   21 cycles
 SCF Done:  E(RM062X) =  -526.848746029     A.U. after   10 cycles
 SCF Done:  E(RM062X) =  -526.849022513     A.U. after   10 cycles
 SCF Done:  E(RM062X) =  -526.849286583     A.U. after   10 cycles
 SCF Done:  E(RM062X) =  -526.849539906     A.U. after   10 cycles
 SCF Done:  E(RM062X) =  -526.849782966     A.U. after   10 cycles
 SCF Done:  E(RM062X) =  -526.850013852     A.U. after   10 cycles
 SCF Done:  E(RM062X) =  -526.850231472     A.U. after   10 cycles
 SCF Done:  E(RM062X) =  -526.850436710     A.U. after   10 cycles
 SCF Done:  E(RM062X) =  -526.850629686     A.U. after   10 cycles
 SCF Done:  E(RM062X) =  -526.850810786     A.U. after   10 cycles

                          Input orientation:
 ---------------------------------------------------------------------
 Center     Atomic      Atomic             Coordinates (Angstroms)
 Number     Number       Type             X           Y           Z
 ---------------------------------------------------------------------
      1          6           0        0.998536    0.010554   -0.030172
      2          8           0        1.670424   -0.868341   -0.463786
      3          6           0       -0.539805   -0.090738    0.064201
      4          9           0       -1.083917    0.699008    0.979833
      5          9           0       -0.963220    0.297294   -1.140868
      6          9           0       -0.954759   -1.325029    0.288497
      7          8           0        1.403143    1.236913    0.281629
      8          1           0        2.348848    1.300753    0.088231
 ---------------------------------------------------------------------

 Normal termination of Gaussian 16 at Sun May 25 04:16:46 2025.
