 Gaussian 16, Revision C.01,
 Gaussian 16:  ES64L-G16RevC.01  3-Jul-2019

 ----------------------------------------------------------------------
 #P M062X/Def2TZVPP Symm(None) scf(xqc) pop(None) opt(NoFreeze,TS,CalcA
 ll,NoEigentest,MaxCycle=999)
 ----------------------------------------------------------------------

 ------------------------------
 Gaussian input prepared by ASE
 ------------------------------
 Symbolic Z-matrix:
 Charge =  0 Multiplicity = 1

 SCF Done:  E(RM062X) =  -526.667680640     A.U. after   17 cycles
 SCF Done:  E(RM062X) =  -526.724998202     A.U. after   15 cycles
 SCF Done:  E(RM062X) =  -526.747088515     A.U. after   15 cycles
 SCF Done:  E(RM062X) =  -526.752687173     A.U. after   14 cycles
 SCF Done:  E(RM062X) =  -526.752818130     A.U. after   14 cycles
 SCF Done:  E(RM062X) =  -526.754055545     A.U. after   13 cycles
 SCF Done:  E(RM062X) =  -526.756190209     A.U. after   15 cycles
 SCF Done:  E(RM062X) =  -526.757206846     A.U. after   14 cycles
 SCF Done:  E(RM062X) =  -526.757304778     A.U. after   12 cycles
 SCF Done:  E(RM062X) =  -526.757305035     A.U. after    8 cycles

 Isotropic polarizability for W=    0.000000       37.41 Bohr**3.
 End of Minotr F.D. properties file   721 does not exist.

 Optimization completed.
    -- Stationary point found.

                          Input orientation:
 ---------------------------------------------------------------------
 Center     Atomic      Atomic             Coordinates (Angstroms)
 Number     Number       Type             X           Y           Z
 ---------------------------------------------------------------------
      1          6           0        2.010160    1.167963    0.481217
      2          8           0        1.043021    0.590741   -1.633324
      3          6           0        1.304451   -0.126562   -0.710233
      4          9           0        1.179669    2.048012    0.958845
      5          9           0        0.357739   -0.674985    0.063045
      6          9           0        2.325619   -0.994316   -0.740159
      7          8           0        3.184058    1.645312    0.357716
      8          1           0        3.242764    2.588312    0.602901
 ---------------------------------------------------------------------

 ******    1 imaginary frequencies (negative Signs) ******

                      1                      2                      3
                      A                      A                      A
 Frequencies --   -264.6722                60.3012               129.6861
 Red. masses --     11.9612                13.2711                12.8180
 Frc consts  --      0.4937                 0.0284                 0.1270
 IR Inten    --    144.4123                 1.5151                 0.3547

                      4                      5                      6
                      A                      A                      A
 Frequencies --    144.0396               323.1654               425.6080
 Red. masses --      7.6955                15.8662                 5.9287
 Frc consts  --      0.0941                 0.9763                 0.6327
 IR Inten    --     48.5823                 0.0224                92.1071

                      7                      8                      9
                      A                      A                      A
 Frequencies --    574.5548               612.2030               666.4041
 Red. masses --     13.6281                17.0526                 3.9553
 Frc consts  --      2.6506                 3.7656                 1.0349
 IR Inten    --     31.4613                 3.1841                49.4966

                     10                     11                     12
                      A                      A                      A
 Frequencies --    702.1898               776.7418               928.9857
 Red. masses --      2.3425                 2.4599                16.1613
 Frc consts  --      0.6805                 0.8744                 8.2176
 IR Inten    --    110.1101               192.7772               154.4738

                     13                     14                     15
                      A                      A                      A
 Frequencies --   1134.4930              1188.2017              1382.9205
 Red. masses --      2.5086                10.9051                 2.6031
 Frc consts  --      1.9023                 9.0711                 2.9332
 IR Inten    --     56.2115               326.2312               303.9578

                     16                     17                     18
                      A                      A                      A
 Frequencies --   1489.0312              1784.3019              3662.4566
 Red. masses --      8.8234                13.1658                 1.0633
 Frc consts  --     11.5263                24.6964                 8.4032
 IR Inten    --    205.7821               462.2211                90.6346

 - Thermochemistry -
 -------------------
 Temperature   298.150 Kelvin.  Pressure   1.00000 Atm.
 Atom     1 has atomic number  6 and mass  12.00000

 Molecular mass:   113.99286 amu.
 Principal axes and moments of inertia in atomic units:
                           1         2         3
     Eigenvalues --   449.01859 851.098661003.59768
           X            0.30367   0.93959   0.15799
           Y            0.82949  -0.17914  -0.52901
           Z            0.46875  -0.29170   0.83378
 This molecule is an asymmetric top.
 Rotational symmetry number  1.
 Warning -- assumption of classical behavior for rotation
           may cause significant error
 Rotational temperatures (Kelvin)      0.19290     0.10177     0.08630
 Rotational constants (GHZ):           4.01930     2.12048     1.79827
    1 imaginary frequencies ignored.
 Zero-point vibrational energy      95613.2 (Joules/Mol)
                                   22.85211 (Kcal/Mol)
 Warning -- explicit consideration of   7 degrees of freedom as
           vibrations may cause significant error
 Vibrational temperatures:     86.76   186.59   207.24   464.96   612.35
          (Kelvin)            826.66   880.82   958.81  1010.29  1117.56
                             1336.60  1632.28  1709.56  1989.71  2142.38
                             2567.21  5269.46

 Zero-point correction=                           0.036417 (Hartree/Particle)
 Thermal correction to Energy=                    0.042828
 Thermal correction to Enthalpy=                  0.043772
 Thermal correction to Gibbs Free Energy=         0.004847
 Sum of electronic and zero-point Energies=           -526.720888
 Sum of electronic and thermal Energies=              -526.714477
 Sum of electronic and thermal Enthalpies=            -526.713533
 Sum of electronic and thermal Free Energies=         -526.752458

                     E (Thermal)             CV                S
                      KCal/Mol        Cal/Mol-Kelvin    Cal/Mol-Kelvin
 Total                   26.875             20.456             81.925
 Electronic               0.000              0.000              0.000
 Translational            0.889              2.981             40.108
 Rotational               0.889              2.981             27.441
 Vibrational             25.097             14.495             14.375
 Vibration     1          0.597              1.973              4.447
 Vibration     2          0.612              1.924              2.951
 Vibration     3          0.616              1.909              2.750
 Vibration     4          0.708              1.629              1.294
 Vibration     5          0.787              1.415              0.873
 Vibration     6          0.931              1.086              0.496
 Vibration     7          0.971              1.006              0.429

 Normal termination of Gaussian 16 at Sun May 25 04:06:55 2025.
