 Gaussian 16, Revision C.01,
 Gaussian 16:  ES64L-G16RevC.01  3-Jul-2019

 ----------------------------------------------------------------------
 #P M062X/Def2TZVPP Symm(None) scf(xqc) pop(None) opt(NoFreeze,TS,CalcA
 ll,NoEigentest,MaxCycle=999)
 ----------------------------------------------------------------------

 ------------------------------
 Gaussian input prepared by ASE
 ------------------------------
 Symbolic Z-matrix:
 Charge =  0 Multiplicity = 1

 SCF Done:  E(RM062X) =  -526.568216900     A.U. after   21 cycles
 SCF Done:  E(RM062X) =  -526.553991269     A.U. after   17 cycles
 SCF Done:  E(RM062X) =  -526.538522335     A.U. after   20 cycles
 SCF Done:  E(RM062X) =  -526.521323337     A.U. after   20 cycles
 SCF Done:  E(RM062X) =  -526.506951237     A.U. after   21 cycles
 SCF Done:  E(RM062X) =  -526.498955716     A.U. after   24 cycles
 SCF Done:  E(RM062X) =  -526.495481040     A.U. after   23 cycles
 SCF Done:  E(RM062X) =  -526.494153462     A.U. after   23 cycles
 SCF Done:  E(RM062X) =  -526.494684521     A.U. after   21 cycles
 SCF Done:  E(RM062X) =  -526.494889560     A.U. after   21 cycles
 SCF Done:  E(RM062X) =  -526.771435926     A.U. after   12 cycles
 SCF Done:  E(RM062X) =  -526.771311284     A.U. after   12 cycles
 SCF Done:  E(RM062X) =  -526.770788048     A.U. after   12 cycles
 SCF Done:  E(RM062X) =  -526.771199359     A.U. after   13 cycles
 SCF Done:  E(RM062X) =  -526.771038280     A.U. after   12 cycles
 SCF Done:  E(RM062X) =  -526.771220011     A.U. after   12 cycles
 SCF Done:  E(RM062X) =  -526.771420265     A.U. after   12 cycles
 SCF Done:  E(RM062X) =  -526.771449043     A.U. after   11 cycles
 SCF Done:  E(RM062X) =  -526.771450970     A.U. after   10 cycles
 SCF Done:  E(RM062X) =  -526.771451008     A.U. after    7 cycles

 Isotropic polarizability for W=    0.000000       33.27 Bohr**3.
 End of Minotr F.D. properties file   721 does not exist.

 Optimization completed.
    -- Stationary point found.

                          Input orientation:
 ---------------------------------------------------------------------
 Center     Atomic      Atomic             Coordinates (Angstroms)
 Number     Number       Type             X           Y           Z
 ---------------------------------------------------------------------
      1          6           0        3.978183    1.250886   -0.386989
      2          8           0        4.900732    1.864133   -0.546429
      3          6           0        0.970456    0.550953    0.177866
      4          9           0       -0.730896    0.445622    0.508433
      5          9           0        1.079626   -0.086280   -0.942325
      6          9           0        1.487543   -0.144884    1.137711
      7          8           0        0.901718    1.801100    0.226529
      8          1           0       -0.265853    1.545029    0.448008
 ---------------------------------------------------------------------

 ******    1 imaginary frequencies (negative Signs) ******

                      1                      2                      3
                      A                      A                      A
 Frequencies --  -1655.2838                22.4084                31.2425
 Red. masses --      1.2466                14.1236                16.3866
 Frc consts  --      2.0125                 0.0042                 0.0094
 IR Inten    --    450.1076                 0.1822                 0.0930

                      4                      5                      6
                      A                      A                      A
 Frequencies --     63.3362                90.0074               114.5911
 Red. masses --     14.7435                13.2847                12.4726
 Frc consts  --      0.0348                 0.0634                 0.0965
 IR Inten    --      0.0561                 0.0463                 0.3148

                      7                      8                      9
                      A                      A                      A
 Frequencies --    272.4182               378.1314               570.5493
 Red. masses --     14.5215                15.5371                13.9286
 Frc consts  --      0.6349                 1.3089                 2.6714
 IR Inten    --      0.0202                63.0314                52.6798

                     10                     11                     12
                      A                      A                      A
 Frequencies --    575.4534               728.7764               880.4518
 Red. masses --      7.1806                11.3325                 7.9325
 Frc consts  --      1.4010                 3.5462                 3.6230
 IR Inten    --      0.3059               142.6399               592.5866

                     13                     14                     15
                      A                      A                      A
 Frequencies --    922.1877              1025.6383              1391.5993
 Red. masses --      1.1999                12.6815                 9.3106
 Frc consts  --      0.6012                 7.8598                10.6232
 IR Inten    --     45.3064               251.5547               441.0061

                     16                     17                     18
                      A                      A                      A
 Frequencies --   1676.9667              2091.2466              2289.1324
 Red. masses --      6.4498                 1.0664                13.4180
 Frc consts  --     10.6868                 2.7477                41.4267
 IR Inten    --    729.9200               119.2641                99.4243

 - Thermochemistry -
 -------------------
 Temperature   298.150 Kelvin.  Pressure   1.00000 Atm.
 Atom     1 has atomic number  6 and mass  12.00000

 Molecular mass:   113.99286 amu.
 Principal axes and moments of inertia in atomic units:
                           1         2         3
     Eigenvalues --   328.148451583.298261606.39231
           X            0.95071  -0.24387   0.19150
           Y            0.25434   0.96659  -0.03176
           Z           -0.17736   0.07890   0.98098
 This molecule is an asymmetric top.
 Rotational symmetry number  1.
 Rotational temperatures (Kelvin)      0.26395     0.05470     0.05392
 Rotational constants (GHZ):           5.49977     1.13986     1.12347
    1 imaginary frequencies ignored.
 Zero-point vibrational energy      78499.8 (Joules/Mol)
                                   18.76190 (Kcal/Mol)
 Warning -- explicit consideration of   9 degrees of freedom as
           vibrations may cause significant error
 Vibrational temperatures:     32.24    44.95    91.13   129.50   164.87
          (Kelvin)            391.95   544.05   820.89   827.95  1048.55
                             1266.77  1326.82  1475.66  2002.20  2412.78
                             3008.84  3293.55

 Zero-point correction=                           0.029899 (Hartree/Particle)
 Thermal correction to Energy=                    0.038160
 Thermal correction to Enthalpy=                  0.039104
 Thermal correction to Gibbs Free Energy=        -0.006493
 Sum of electronic and zero-point Energies=           -526.741552
 Sum of electronic and thermal Energies=              -526.733291
 Sum of electronic and thermal Enthalpies=            -526.732347
 Sum of electronic and thermal Free Energies=         -526.777944

                     E (Thermal)             CV                S
                      KCal/Mol        Cal/Mol-Kelvin    Cal/Mol-Kelvin
 Total                   23.946             23.500             95.966
 Electronic               0.000              0.000              0.000
 Translational            0.889              2.981             40.108
 Rotational               0.889              2.981             28.214
 Vibrational             22.168             17.538             27.644
 Vibration     1          0.593              1.985              6.408
 Vibration     2          0.594              1.983              5.749
 Vibration     3          0.597              1.972              4.350
 Vibration     4          0.602              1.956              3.660
 Vibration     5          0.608              1.937              3.190
 Vibration     6          0.675              1.724              1.581
 Vibration     7          0.748              1.517              1.047
 Vibration     8          0.927              1.095              0.503
 Vibration     9          0.932              1.084              0.494

 Normal termination of Gaussian 16 at Sun May 25 04:54:13 2025.
