 Gaussian 16, Revision C.01,
 Gaussian 16:  ES64L-G16RevC.01  3-Jul-2019

 ----------------------------------------------------------------------
 #P M062X/Def2TZVPP Symm(None) scf(xqc) pop(None) opt(NoFreeze,TS,CalcA
 ll,NoEigentest,MaxCycle=999)
 ----------------------------------------------------------------------

 ------------------------------
 Gaussian input prepared by ASE
 ------------------------------
 Symbolic Z-matrix:
 Charge =  0 Multiplicity = 1

 SCF Done:  E(RM062X) =  -526.683820966     A.U. after   15 cycles
 SCF Done:  E(RM062X) =  -526.679614591     A.U. after   15 cycles
 SCF Done:  E(RM062X) =  -526.674910054     A.U. after   15 cycles
 SCF Done:  E(RM062X) =  -526.666270287     A.U. after   17 cycles
 SCF Done:  E(RM062X) =  -526.669882243     A.U. after   15 cycles
 SCF Done:  E(RM062X) =  -526.673661924     A.U. after   15 cycles
 SCF Done:  E(RM062X) =  -526.675305781     A.U. after   15 cycles
 SCF Done:  E(RM062X) =  -526.675673015     A.U. after   13 cycles
 SCF Done:  E(RM062X) =  -526.675697238     A.U. after   12 cycles
 SCF Done:  E(RM062X) =  -526.675697483     A.U. after    8 cycles

 Isotropic polarizability for W=    0.000000       37.31 Bohr**3.
 End of Minotr F.D. properties file   721 does not exist.

 Optimization completed.
    -- Stationary point found.

                          Input orientation:
 ---------------------------------------------------------------------
 Center     Atomic      Atomic             Coordinates (Angstroms)
 Number     Number       Type             X           Y           Z
 ---------------------------------------------------------------------
      1          6           0        1.721969   -0.715689   -0.319469
      2          8           0        2.696330   -1.287457   -0.162482
      3          6           0        0.147272    0.237876   -0.037040
      4          9           0       -0.271921    1.147529    0.856933
      5          9           0       -0.284071    0.532716   -1.230461
      6          9           0       -0.507357   -0.862420    0.405788
      7          8           0        1.732008    1.015488   -0.156990
      8          1           0        2.085401    1.436233    0.642632
 ---------------------------------------------------------------------

 ******    1 imaginary frequencies (negative Signs) ******

                      1                      2                      3
                      A                      A                      A
 Frequencies --   -808.7343                82.8838               165.1122
 Red. masses --      7.0932                11.4774                14.4305
 Frc consts  --      2.7334                 0.0465                 0.2318
 IR Inten    --      5.5935                 0.6630                 2.8188

                      4                      5                      6
                      A                      A                      A
 Frequencies --    193.2860               336.8682               397.0385
 Red. masses --      6.0747                 2.9645                 5.5910
 Frc consts  --      0.1337                 0.1982                 0.5193
 IR Inten    --     50.9465                23.7308                 6.7081

                      7                      8                      9
                      A                      A                      A
 Frequencies --    450.1461               479.4729               579.2887
 Red. masses --      5.6286                 3.0060                10.8420
 Frc consts  --      0.6720                 0.4072                 2.1436
 IR Inten    --    101.1150                56.2428                16.0812

                     10                     11                     12
                      A                      A                      A
 Frequencies --    600.4347               647.0747               727.8444
 Red. masses --     13.5770                 4.5294                14.2070
 Frc consts  --      2.8839                 1.1174                 4.4343
 IR Inten    --     10.9283                21.0992               172.3581

                     13                     14                     15
                      A                      A                      A
 Frequencies --    872.1046               964.1763              1091.2640
 Red. masses --      2.1741                 3.5664                10.5007
 Frc consts  --      0.9742                 1.9534                 7.3676
 IR Inten    --      8.1207               575.9791               519.7271

                     16                     17                     18
                      A                      A                      A
 Frequencies --   1328.8343              2095.8531              3771.0417
 Red. masses --     10.6839                13.0497                 1.0663
 Frc consts  --     11.1153                33.7731                 8.9341
 IR Inten    --    312.5555               238.1193                82.7768

 - Thermochemistry -
 -------------------
 Temperature   298.150 Kelvin.  Pressure   1.00000 Atm.
 Atom     1 has atomic number  6 and mass  12.00000

 Molecular mass:   113.99286 amu.
 Principal axes and moments of inertia in atomic units:
                           1         2         3
     Eigenvalues --   431.18249 828.73717 929.39221
           X            0.89250   0.43586   0.11603
           Y           -0.44021   0.89780   0.01354
           Z           -0.09827  -0.06316   0.99315
 This molecule is an asymmetric top.
 Rotational symmetry number  1.
 Rotational temperatures (Kelvin)      0.20088     0.10451     0.09319
 Rotational constants (GHZ):           4.18556     2.17770     1.94185
    1 imaginary frequencies ignored.
 Zero-point vibrational energy      88420.3 (Joules/Mol)
                                   21.13297 (Kcal/Mol)
 Warning -- explicit consideration of   9 degrees of freedom as
           vibrations may cause significant error
 Vibrational temperatures:    119.25   237.56   278.10   484.68   571.25
          (Kelvin)            647.66   689.85   833.47   863.89   931.00
                             1047.21  1254.76  1387.23  1570.09  1911.90
                             3015.47  5425.69

 Zero-point correction=                           0.033678 (Hartree/Particle)
 Thermal correction to Energy=                    0.040366
 Thermal correction to Enthalpy=                  0.041310
 Thermal correction to Gibbs Free Energy=         0.002558
 Sum of electronic and zero-point Energies=           -526.642020
 Sum of electronic and thermal Energies=              -526.635331
 Sum of electronic and thermal Enthalpies=            -526.634387
 Sum of electronic and thermal Free Energies=         -526.673140

                     E (Thermal)             CV                S
                      KCal/Mol        Cal/Mol-Kelvin    Cal/Mol-Kelvin
 Total                   25.330             22.597             81.561
 Electronic               0.000              0.000              0.000
 Translational            0.889              2.981             40.108
 Rotational               0.889              2.981             27.298
 Vibrational             23.553             16.635             14.155
 Vibration     1          0.600              1.961              3.821
 Vibration     2          0.624              1.885              2.490
 Vibration     3          0.635              1.849              2.196
 Vibration     4          0.718              1.602              1.227
 Vibration     5          0.764              1.476              0.974
 Vibration     6          0.809              1.361              0.795
 Vibration     7          0.836              1.296              0.711
 Vibration     8          0.936              1.076              0.487
 Vibration     9          0.959              1.031              0.449

 Normal termination of Gaussian 16 at Sun May 25 03:54:47 2025.
