 Gaussian 16, Revision C.01,
 Gaussian 16:  ES64L-G16RevC.01  3-Jul-2019

 ----------------------------------------------------------------------
 #P M062X/Def2TZVPP Symm(None) scf(xqc) pop(None) opt(CalcAll,Cartesian
 )
 ----------------------------------------------------------------------

 ------------------------------
 Gaussian input prepared by ASE
 ------------------------------
 Symbolic Z-matrix:
 Charge =  0 Multiplicity = 1

 SCF Done:  E(RM062X) =  -526.784680243     A.U. after   13 cycles
 SCF Done:  E(RM062X) =  -526.785170414     A.U. after   13 cycles
 SCF Done:  E(RM062X) =  -526.785746351     A.U. after   13 cycles
 SCF Done:  E(RM062X) =  -526.786088031     A.U. after   12 cycles
 SCF Done:  E(RM062X) =  -526.786143095     A.U. after   13 cycles
 SCF Done:  E(RM062X) =  -526.786224450     A.U. after   11 cycles
 SCF Done:  E(RM062X) =  -526.782416341     A.U. after   15 cycles
 SCF Done:  E(RM062X) =  -526.785571536     A.U. after   11 cycles
 SCF Done:  E(RM062X) =  -526.783460277     A.U. after   13 cycles
 SCF Done:  E(RM062X) =  -526.786227233     A.U. after   10 cycles
 SCF Done:  E(RM062X) =  -526.786237089     A.U. after   12 cycles
 SCF Done:  E(RM062X) =  -526.786255581     A.U. after   10 cycles
 SCF Done:  E(RM062X) =  -526.786257783     A.U. after   10 cycles
 SCF Done:  E(RM062X) =  -526.786257905     A.U. after    7 cycles
 SCF Done:  E(RM062X) =  -526.786257908     A.U. after    6 cycles

 Isotropic polarizability for W=    0.000000       34.28 Bohr**3.
 End of Minotr F.D. properties file   721 does not exist.

 Optimization completed.
    -- Stationary point found.

                          Input orientation:
 ---------------------------------------------------------------------
 Center     Atomic      Atomic             Coordinates (Angstroms)
 Number     Number       Type             X           Y           Z
 ---------------------------------------------------------------------
      1          6           0       -1.785839   -0.924006    0.315401
      2          8           0       -2.594244   -0.142729    0.080366
      3          6           0        0.543503    0.913133   -0.311281
      4          9           0        1.762237   -1.350096    0.385997
      5          9           0        1.181225    0.996258   -1.428962
      6          9           0        1.227595    1.620927    0.521561
      7          8           0       -1.001058   -1.742600    0.562681
      8          1           0        0.882307   -1.621496    0.489507
 ---------------------------------------------------------------------

                      1                      2                      3
                      A                      A                      A
 Frequencies --     25.1199                40.7499                69.6816
 Red. masses --     16.3597                17.0829                15.2097
 Frc consts  --      0.0061                 0.0167                 0.0435
 IR Inten    --      1.0061                 0.2671                 0.9785

                      4                      5                      6
                      A                      A                      A
 Frequencies --     73.2314                93.9286               112.3980
 Red. masses --     17.1121                16.4087                14.7672
 Frc consts  --      0.0541                 0.0853                 0.1099
 IR Inten    --      0.0809                 4.1822                 1.5757

                      7                      8                      9
                      A                      A                      A
 Frequencies --    161.1348               254.7404               429.8258
 Red. masses --     12.3263                 8.8725                 1.0415
 Frc consts  --      0.1886                 0.3392                 0.1134
 IR Inten    --      2.7766                 3.9002               106.4626

                     10                     11                     12
                      A                      A                      A
 Frequencies --    497.1498               679.0642               692.4526
 Red. masses --      1.0730                12.0743                12.7784
 Frc consts  --      0.1562                 3.2804                 3.6100
 IR Inten    --    236.5986                83.6524                35.3324

                     13                     14                     15
                      A                      A                      A
 Frequencies --    694.7234              1208.7967              1307.7569
 Red. masses --     16.2588                13.6176                13.6108
 Frc consts  --      4.6234                11.7235                13.7147
 IR Inten    --      2.2100               369.9466               138.8248

                     16                     17                     18
                      A                      A                      A
 Frequencies --   1412.6171              2450.7731              4016.3466
 Red. masses --     15.9865                12.8053                 1.0587
 Frc consts  --     18.7954                45.3156                10.0621
 IR Inten    --      4.0916               790.2499               496.4030

 - Thermochemistry -
 -------------------
 Temperature   298.150 Kelvin.  Pressure   1.00000 Atm.
 Atom     1 has atomic number  6 and mass  12.00000

 Molecular mass:   113.99286 amu.
 Principal axes and moments of inertia in atomic units:
                           1         2         3
     Eigenvalues --   656.181731304.217321675.67022
           X            0.86582  -0.50008   0.01663
           Y            0.47199   0.82732   0.30459
           Z           -0.16608  -0.25587   0.95234
 This molecule is an asymmetric top.
 Rotational symmetry number  1.
 Warning -- assumption of classical behavior for rotation
           may cause significant error
 Rotational temperatures (Kelvin)      0.13200     0.06641     0.05169
 Rotational constants (GHZ):           2.75037     1.38377     1.07703
 Zero-point vibrational energy      85057.4 (Joules/Mol)
                                   20.32921 (Kcal/Mol)
 Warning -- explicit consideration of  10 degrees of freedom as
           vibrations may cause significant error
 Vibrational temperatures:     36.14    58.63   100.26   105.36   135.14
          (Kelvin)            161.72   231.84   366.51   618.42   715.29
                              977.02   996.28   999.55  1739.19  1881.57
                             2032.44  3526.12  5778.63

 Zero-point correction=                           0.032397 (Hartree/Particle)
 Thermal correction to Energy=                    0.042008
 Thermal correction to Enthalpy=                  0.042953
 Thermal correction to Gibbs Free Energy=        -0.005557
 Sum of electronic and zero-point Energies=           -526.753861
 Sum of electronic and thermal Energies=              -526.744249
 Sum of electronic and thermal Enthalpies=            -526.743305
 Sum of electronic and thermal Free Energies=         -526.791814

                     E (Thermal)             CV                S
                      KCal/Mol        Cal/Mol-Kelvin    Cal/Mol-Kelvin
 Total                   26.361             27.061            102.096
 Electronic               0.000              0.000              0.000
 Translational            0.889              2.981             40.108
 Rotational               0.889              2.981             28.752
 Vibrational             24.583             21.100             33.236
 Vibration     1          0.593              1.985              6.182
 Vibration     2          0.594              1.981              5.222
 Vibration     3          0.598              1.969              4.162
 Vibration     4          0.599              1.967              4.065
 Vibration     5          0.603              1.954              3.577
 Vibration     6          0.607              1.939              3.227
 Vibration     7          0.622              1.890              2.536
 Vibration     8          0.665              1.755              1.698
 Vibration     9          0.791              1.405              0.859
 Vibration    10          0.853              1.256              0.665

 Normal termination of Gaussian 16 at Sun May 25 04:42:23 2025.
