 Gaussian 16, Revision C.01,
 Gaussian 16:  ES64L-G16RevC.01  3-Jul-2019

 ----------------------------------------------------------------------
 #P M062X/Def2TZVPP Symm(None) scf(xqc) pop(None) opt(NoFreeze,TS,CalcA
 ll,NoEigentest,MaxCycle=999)
 ----------------------------------------------------------------------

 ------------------------------
 Gaussian input prepared by ASE
 ------------------------------
 Symbolic Z-matrix:
 Charge =  0 Multiplicity = 1

 SCF Done:  E(RM062X) =  -526.691067097     A.U. after   17 cycles
 SCF Done:  E(RM062X) =  -526.685746096     A.U. after   15 cycles
 SCF Done:  E(RM062X) =  -526.677924215     A.U. after   16 cycles
 SCF Done:  E(RM062X) =  -526.668937843     A.U. after   17 cycles
 SCF Done:  E(RM062X) =  -526.659774801     A.U. after   17 cycles
 SCF Done:  E(RM062X) =  -526.651352243     A.U. after   20 cycles
 SCF Done:  E(RM062X) =  -526.643777953     A.U. after   20 cycles
 SCF Done:  E(RM062X) =  -526.637191385     A.U. after   20 cycles
 SCF Done:  E(RM062X) =  -526.632986079     A.U. after   21 cycles
 SCF Done:  E(RM062X) =  -526.635045483     A.U. after   20 cycles
 SCF Done:  E(RM062X) =  -526.639975380     A.U. after   20 cycles
 SCF Done:  E(RM062X) =  -526.642817841     A.U. after   18 cycles
 SCF Done:  E(RM062X) =  -526.643504223     A.U. after   18 cycles
 SCF Done:  E(RM062X) =  -526.643553429     A.U. after   18 cycles
 SCF Done:  E(RM062X) =  -526.643556521     A.U. after   16 cycles
 SCF Done:  E(RM062X) =  -526.643556277     A.U. after   12 cycles

 Isotropic polarizability for W=    0.000000       50.18 Bohr**3.
 End of Minotr F.D. properties file   721 does not exist.

 Optimization completed.
    -- Stationary point found.

                          Input orientation:
 ---------------------------------------------------------------------
 Center     Atomic      Atomic             Coordinates (Angstroms)
 Number     Number       Type             X           Y           Z
 ---------------------------------------------------------------------
      1          6           0        0.875499    0.513387    0.212294
      2          8           0       -0.031811   -0.077766   -0.352228
      3          6           0        1.232441    1.788989   -0.294786
      4          9           0        1.167820   -1.552097   -0.778550
      5          9           0        1.970823    2.606406    0.344579
      6          9           0        0.705938    2.288908   -1.335961
      7          8           0        1.587855    0.028920    1.215279
      8          1           0        1.589933   -0.931971    1.003083
 ---------------------------------------------------------------------

 ******    1 imaginary frequencies (negative Signs) ******

                      1                      2                      3
                      A                      A                      A
 Frequencies --   -313.6524                67.8047               126.9183
 Red. masses --      8.6304                16.4940                16.9797
 Frc consts  --      0.5002                 0.0447                 0.1611
 IR Inten    --    413.9904                 1.8150                 3.2647

                      4                      5                      6
                      A                      A                      A
 Frequencies --    232.9526               317.5719               414.9540
 Red. masses --     12.8725                10.0221                 7.3365
 Frc consts  --      0.4116                 0.5955                 0.7443
 IR Inten    --      0.5879               144.6835                22.5983

                      7                      8                      9
                      A                      A                      A
 Frequencies --    466.4340               559.7854               618.4477
 Red. masses --      7.7265                 4.2693                 1.8941
 Frc consts  --      0.9904                 0.7882                 0.4268
 IR Inten    --      5.0698                42.9708                81.9208

                     10                     11                     12
                      A                      A                      A
 Frequencies --    634.0901               735.0214               858.2824
 Red. masses --      8.5032                 4.8528                 7.9503
 Frc consts  --      2.0144                 1.5447                 3.4506
 IR Inten    --     34.4356                16.2758                20.9798

                     13                     14                     15
                      A                      A                      A
 Frequencies --   1232.2516              1353.6515              1495.6346
 Red. masses --      3.5699                 1.8424                10.2904
 Frc consts  --      3.1938                 1.9890                13.5623
 IR Inten    --    276.0740                39.3079               777.7751

                     16                     17                     18
                      A                      A                      A
 Frequencies --   1512.3038              1706.5356              3538.8968
 Red. masses --     12.6477                12.9623                 1.0622
 Frc consts  --     17.0428                22.2415                 7.8375
 IR Inten    --    759.9126               139.0672                50.3337

 - Thermochemistry -
 -------------------
 Temperature   298.150 Kelvin.  Pressure   1.00000 Atm.
 Atom     1 has atomic number  6 and mass  12.00000

 Molecular mass:   113.99286 amu.
 Principal axes and moments of inertia in atomic units:
                           1         2         3
     Eigenvalues --   398.66589 969.094521217.75677
           X            0.12633   0.51029   0.85067
           Y            0.99177  -0.04717  -0.11899
           Z           -0.02059   0.85871  -0.51205
 This molecule is an asymmetric top.
 Rotational symmetry number  1.
 Rotational temperatures (Kelvin)      0.21726     0.08938     0.07113
 Rotational constants (GHZ):           4.52695     1.86230     1.48202
    1 imaginary frequencies ignored.
 Zero-point vibrational energy      94932.9 (Joules/Mol)
                                   22.68950 (Kcal/Mol)
 Warning -- explicit consideration of   8 degrees of freedom as
           vibrations may cause significant error
 Vibrational temperatures:     97.56   182.61   335.17   456.92   597.03
          (Kelvin)            671.09   805.41   889.81   912.31  1057.53
                             1234.88  1772.94  1947.60  2151.88  2175.87
                             2455.32  5091.68

 Zero-point correction=                           0.036158 (Hartree/Particle)
 Thermal correction to Energy=                    0.042602
 Thermal correction to Enthalpy=                  0.043546
 Thermal correction to Gibbs Free Energy=         0.004750
 Sum of electronic and zero-point Energies=           -526.607398
 Sum of electronic and thermal Energies=              -526.600955
 Sum of electronic and thermal Enthalpies=            -526.600011
 Sum of electronic and thermal Free Energies=         -526.638806

                     E (Thermal)             CV                S
                      KCal/Mol        Cal/Mol-Kelvin    Cal/Mol-Kelvin
 Total                   26.733             20.937             81.652
 Electronic               0.000              0.000              0.000
 Translational            0.889              2.981             40.108
 Rotational               0.889              2.981             27.644
 Vibrational             24.955             14.976             13.900
 Vibration     1          0.598              1.970              4.216
 Vibration     2          0.611              1.926              2.992
 Vibration     3          0.654              1.791              1.856
 Vibration     4          0.704              1.640              1.323
 Vibration     5          0.778              1.438              0.909
 Vibration     6          0.824              1.325              0.748
 Vibration     7          0.915              1.118              0.524
 Vibration     8          0.978              0.993              0.419

 Normal termination of Gaussian 16 at Sun May 25 04:01:47 2025.
