 Gaussian 16, Revision C.01,
 Gaussian 16:  ES64L-G16RevC.01  3-Jul-2019

 ----------------------------------------------------------------------
 #P M062X/Def2TZVPP Symm(None) scf(xqc) pop(None) geom(AllCheck,NoKeepC
 onstants) guess(Read) irc(RCFC,forward,MaxPoints=100,StepSize=2)
 ----------------------------------------------------------------------

 Structure from the checkpoint file:  "1141903082400600000001_r12_insertion_R_1_3_4_IRC_F.chk"
 ------------------------------
 Gaussian input prepared by ASE
 ------------------------------
 Charge =  0 Multiplicity = 1

 SCF Done:  E(RM062X) =  -526.724706617     A.U. after   10 cycles
 SCF Done:  E(RM062X) =  -526.724765739     A.U. after   10 cycles
 SCF Done:  E(RM062X) =  -526.724865770     A.U. after   10 cycles
 SCF Done:  E(RM062X) =  -526.725007920     A.U. after   10 cycles
 SCF Done:  E(RM062X) =  -526.725193418     A.U. after   10 cycles
 SCF Done:  E(RM062X) =  -526.725423488     A.U. after   10 cycles
 SCF Done:  E(RM062X) =  -526.725699315     A.U. after   10 cycles
 SCF Done:  E(RM062X) =  -526.726021995     A.U. after   11 cycles
 SCF Done:  E(RM062X) =  -526.726392492     A.U. after   11 cycles
 SCF Done:  E(RM062X) =  -526.726811597     A.U. after   11 cycles
 SCF Done:  E(RM062X) =  -526.831548078     A.U. after   10 cycles
 SCF Done:  E(RM062X) =  -526.832302637     A.U. after   10 cycles
 SCF Done:  E(RM062X) =  -526.833033688     A.U. after   10 cycles
 SCF Done:  E(RM062X) =  -526.833741599     A.U. after   10 cycles
 SCF Done:  E(RM062X) =  -526.834426769     A.U. after   10 cycles
 SCF Done:  E(RM062X) =  -526.835089634     A.U. after   10 cycles
 SCF Done:  E(RM062X) =  -526.835730671     A.U. after   10 cycles
 SCF Done:  E(RM062X) =  -526.836350382     A.U. after   10 cycles
 SCF Done:  E(RM062X) =  -526.836949282     A.U. after   10 cycles
 SCF Done:  E(RM062X) =  -526.837527880     A.U. after   10 cycles

                          Input orientation:
 ---------------------------------------------------------------------
 Center     Atomic      Atomic             Coordinates (Angstroms)
 Number     Number       Type             X           Y           Z
 ---------------------------------------------------------------------
      1          6           0        0.972766   -0.237334   -0.105404
      2          8           0        1.421663   -1.254286    0.299749
      3          6           0       -0.546463    0.009696   -0.056163
      4          9           0       -0.572925    0.533880    1.183492
      5          9           0       -1.069082    0.909691   -0.895847
      6          9           0       -1.296210   -1.065134   -0.141871
      7          8           0        1.678304    0.873172   -0.318162
      8          1           0        1.113278    1.624965   -0.533222
 ---------------------------------------------------------------------

 Normal termination of Gaussian 16 at Sun May 25 04:09:04 2025.
