 Gaussian 16, Revision C.01,
 Gaussian 16:  ES64L-G16RevC.01  3-Jul-2019

 ----------------------------------------------------------------------
 #P M062X/Def2TZVPP Symm(None) scf(xqc) pop(None) geom(AllCheck,NoKeepC
 onstants) guess(Read) irc(RCFC,reverse,MaxPoints=100,StepSize=2)
 ----------------------------------------------------------------------

 Structure from the checkpoint file:  "1141903082400600000001_r12_insertion_R_2_1_3_IRC_R.chk"
 ------------------------------
 Gaussian input prepared by ASE
 ------------------------------
 Charge =  0 Multiplicity = 1

 SCF Done:  E(RM062X) =  -526.691379177     A.U. after   11 cycles
 SCF Done:  E(RM062X) =  -526.691548398     A.U. after   12 cycles
 SCF Done:  E(RM062X) =  -526.691829874     A.U. after   12 cycles
 SCF Done:  E(RM062X) =  -526.692222621     A.U. after   12 cycles
 SCF Done:  E(RM062X) =  -526.692725243     A.U. after   12 cycles
 SCF Done:  E(RM062X) =  -526.693336000     A.U. after   12 cycles
 SCF Done:  E(RM062X) =  -526.694052881     A.U. after   12 cycles
 SCF Done:  E(RM062X) =  -526.694873653     A.U. after   12 cycles
 SCF Done:  E(RM062X) =  -526.695795907     A.U. after   12 cycles
 SCF Done:  E(RM062X) =  -526.696817079     A.U. after   12 cycles
 SCF Done:  E(RM062X) =  -526.831762313     A.U. after    9 cycles
 SCF Done:  E(RM062X) =  -526.832569902     A.U. after    9 cycles
 SCF Done:  E(RM062X) =  -526.833355125     A.U. after    9 cycles
 SCF Done:  E(RM062X) =  -526.834118321     A.U. after    9 cycles
 SCF Done:  E(RM062X) =  -526.834859818     A.U. after    9 cycles
 SCF Done:  E(RM062X) =  -526.835579985     A.U. after    9 cycles
 SCF Done:  E(RM062X) =  -526.836279072     A.U. after    9 cycles
 SCF Done:  E(RM062X) =  -526.836957140     A.U. after    9 cycles
 SCF Done:  E(RM062X) =  -526.837613062     A.U. after    9 cycles
 SCF Done:  E(RM062X) =  -526.838242455     A.U. after    9 cycles

                          Input orientation:
 ---------------------------------------------------------------------
 Center     Atomic      Atomic             Coordinates (Angstroms)
 Number     Number       Type             X           Y           Z
 ---------------------------------------------------------------------
      1          6           0        0.991975    0.203562   -0.025867
      2          8           0        1.494027   -0.428482   -0.897309
      3          6           0       -0.571741   -0.058786    0.043878
      4          9           0       -1.370457    0.852452    0.578344
      5          9           0       -0.970993   -0.236274   -1.208109
      6          9           0       -0.749796   -1.222026    0.671393
      7          8           0        1.697752    0.983007    0.802677
      8          1           0        2.612679    0.896209    0.504026
 ---------------------------------------------------------------------

 Normal termination of Gaussian 16 at Sun May 25 04:16:40 2025.
