 Gaussian 16, Revision C.01,
 Gaussian 16:  ES64L-G16RevC.01  3-Jul-2019

 ----------------------------------------------------------------------
 #P mp2/6-31G Symm(None) scf(xqc) pop(None) guess(Mix,Always) opt(NoFre
 eze,TS,CalcAll,NoEigentest,MaxCycle=999)
 ----------------------------------------------------------------------

 ------------------------------
 Gaussian input prepared by ASE
 ------------------------------
 Symbolic Z-matrix:
 Charge =  0 Multiplicity = 1

 SCF Done:  E(RHF) =  -524.066176609     A.U. after   16 cycles
 E2 =    -0.8065859519D+00 EUMP2 =    -0.52487276256058D+03
 E2 =    -0.8065859519D+00 EUMP2 =    -0.52487276256058D+03
 SCF Done:  E(RHF) =  -524.035500944     A.U. after   17 cycles
 E2 =    -0.8252734247D+00 EUMP2 =    -0.52486077436915D+03
 E2 =    -0.8252734247D+00 EUMP2 =    -0.52486077436915D+03
 SCF Done:  E(RHF) =  -524.045099459     A.U. after   18 cycles
 E2 =    -0.8319408715D+00 EUMP2 =    -0.52487704033025D+03
 E2 =    -0.8319408715D+00 EUMP2 =    -0.52487704033025D+03
 SCF Done:  E(RHF) =  -524.044602317     A.U. after   17 cycles
 E2 =    -0.8377062176D+00 EUMP2 =    -0.52488230853443D+03
 E2 =    -0.8377062176D+00 EUMP2 =    -0.52488230853443D+03
 SCF Done:  E(RHF) =  -524.043210953     A.U. after   17 cycles
 E2 =    -0.8392034576D+00 EUMP2 =    -0.52488241441060D+03
 E2 =    -0.8392034576D+00 EUMP2 =    -0.52488241441060D+03
 SCF Done:  E(RHF) =  -524.043171997     A.U. after   17 cycles
 E2 =    -0.8392734137D+00 EUMP2 =    -0.52488244541088D+03
 E2 =    -0.8392734137D+00 EUMP2 =    -0.52488244541088D+03
 SCF Done:  E(RHF) =  -524.043178757     A.U. after   17 cycles
 E2 =    -0.8392696832D+00 EUMP2 =    -0.52488244843984D+03
 E2 =    -0.8392696832D+00 EUMP2 =    -0.52488244843984D+03
 SCF Done:  E(RHF) =  -524.043178570     A.U. after   17 cycles
 E2 =    -0.8392699024D+00 EUMP2 =    -0.52488244847233D+03
 E2 =    -0.8392699024D+00 EUMP2 =    -0.52488244847233D+03
 Optimization completed.
    -- Stationary point found.

                          Input orientation:
 ---------------------------------------------------------------------
 Center     Atomic      Atomic             Coordinates (Angstroms)
 Number     Number       Type             X           Y           Z
 ---------------------------------------------------------------------
      1          6           0        1.456858    0.219374    0.023682
      2          8           0        2.324317   -0.677662   -0.378097
      3          6           0       -0.037431    0.011797    0.008977
      4          9           0       -0.653895    0.768995    1.001998
      5          9           0       -0.558486    0.402052   -1.230108
      6          9           0       -0.354808   -1.328361    0.215657
      7          8           0        2.036529    1.340413    0.378419
      8          1           0        3.049451    0.463241   -0.021013
 ---------------------------------------------------------------------

 ******    1 imaginary frequencies (negative Signs) ******

                      1                      2                      3
                      A                      A                      A
 Frequencies --  -1940.1501                17.8605               227.0360
 Red. masses --      1.0941                16.7330                10.8169
 Frc consts  --      2.4265                 0.0031                 0.3285
 IR Inten    --     79.7575                 0.0992                 1.4913

                      4                      5                      6
                      A                      A                      A
 Frequencies --    228.7366               400.2789               402.9182
 Red. masses --     14.6384                17.0179                15.0082
 Frc consts  --      0.4512                 1.6065                 1.4355
 IR Inten    --      1.0947                 0.7749                 2.3670

                      7                      8                      9
                      A                      A                      A
 Frequencies --    461.3455               557.9112               689.0031
 Red. masses --     13.9135                17.0598                16.4773
 Frc consts  --      1.7448                 3.1286                 4.6087
 IR Inten    --      4.4647                 4.4945                31.1217

                     10                     11                     12
                      A                      A                      A
 Frequencies --    706.3983               862.4326              1119.8147
 Red. masses --      8.4333                13.6630                 1.3566
 Frc consts  --      2.4794                 5.9875                 1.0023
 IR Inten    --      1.2340                45.0712                17.1192

                     13                     14                     15
                      A                      A                      A
 Frequencies --   1175.5531              1192.3063              1204.7438
 Red. masses --      9.7837                 5.7190                13.0788
 Frc consts  --      7.9660                 4.7901                11.1842
 IR Inten    --    242.6983               332.2087               219.8635

                     16                     17                     18
                      A                      A                      A
 Frequencies --   1484.6549              1577.4991              2009.6747
 Red. masses --      5.6358                 8.8682                 1.1534
 Frc consts  --      7.3191                13.0024                 2.7447
 IR Inten    --      0.0786               197.7002                51.2380

 - Thermochemistry -
 -------------------
 Temperature   298.150 Kelvin.  Pressure   1.00000 Atm.
 Atom     1 has atomic number  6 and mass  12.00000

 Molecular mass:   113.99286 amu.
 Principal axes and moments of inertia in atomic units:
                           1         2         3
     Eigenvalues --   482.30199 796.43872 930.64236
           X            0.98973  -0.13235   0.05402
           Y            0.14288   0.92813  -0.34374
           Z           -0.00464   0.34793   0.93751
 This molecule is an asymmetric top.
 Rotational symmetry number  1.
 Warning -- assumption of classical behavior for rotation
           may cause significant error
 Rotational temperatures (Kelvin)      0.17958     0.10875     0.09307
 Rotational constants (GHZ):           3.74193     2.26601     1.93924
    1 imaginary frequencies ignored.
 Zero-point vibrational energy      85641.7 (Joules/Mol)
                                   20.46885 (Kcal/Mol)
 Warning -- explicit consideration of   7 degrees of freedom as
           vibrations may cause significant error
 Vibrational temperatures:     25.70   326.65   329.10   575.91   579.71
          (Kelvin)            663.77   802.71   991.32  1016.35  1240.85
                             1611.16  1691.36  1715.46  1733.36  2136.09
                             2269.67  2891.47

 Zero-point correction=                           0.032619 (Hartree/Particle)
 Thermal correction to Energy=                    0.038821
 Thermal correction to Enthalpy=                  0.039765
 Thermal correction to Gibbs Free Energy=         0.000651
 Sum of electronic and zero-point Energies=           -524.849829
 Sum of electronic and thermal Energies=              -524.843627
 Sum of electronic and thermal Enthalpies=            -524.842683
 Sum of electronic and thermal Free Energies=         -524.881797

                     E (Thermal)             CV                S
                      KCal/Mol        Cal/Mol-Kelvin    Cal/Mol-Kelvin
 Total                   24.361             20.201             82.323
 Electronic               0.000              0.000              0.000
 Translational            0.889              2.981             40.108
 Rotational               0.889              2.981             27.371
 Vibrational             22.583             14.239             14.843
 Vibration     1          0.593              1.986              6.859
 Vibration     2          0.651              1.800              1.902
 Vibration     3          0.651              1.797              1.889
 Vibration     4          0.766              1.470              0.962
 Vibration     5          0.768              1.464              0.952
 Vibration     6          0.819              1.336              0.762
 Vibration     7          0.913              1.122              0.528

 Normal termination of Gaussian 16 at Sun May 25 03:41:52 2025.
