 Gaussian 16, Revision C.01,
 Gaussian 16:  ES64L-G16RevC.01  3-Jul-2019

 -----------------------------------------------------------------
 #P M062X/Def2TZVPP Symm(None) scf(xqc) pop(None) freq opt(CalcFC)
 -----------------------------------------------------------------

 ------------------------------
 Gaussian input prepared by ASE
 ------------------------------
 Symbolic Z-matrix:
 Charge =  0 Multiplicity = 1

 SCF Done:  E(RM062X) =  -526.816556401     A.U. after   14 cycles
 SCF Done:  E(RM062X) =  -526.849196552     A.U. after   14 cycles
 SCF Done:  E(RM062X) =  -526.852499459     A.U. after   15 cycles
 SCF Done:  E(RM062X) =  -526.852478220     A.U. after   15 cycles
 SCF Done:  E(RM062X) =  -526.852728475     A.U. after   11 cycles
 SCF Done:  E(RM062X) =  -526.852747994     A.U. after   11 cycles
 SCF Done:  E(RM062X) =  -526.852760923     A.U. after   11 cycles
 SCF Done:  E(RM062X) =  -526.852768195     A.U. after   10 cycles
 SCF Done:  E(RM062X) =  -526.852770547     A.U. after    8 cycles
 SCF Done:  E(RM062X) =  -526.852770604     A.U. after    8 cycles
 Optimization completed.
    -- Stationary point found.
 Normal termination of Gaussian 16 at Sun May 25 03:16:46 2025.

 ---------------------------------------------------------------------
 #P Geom=AllCheck Guess=TCheck SCRF=Check GenChk RM062X/def2TZVPP Freq
 ---------------------------------------------------------------------

 Structure from the checkpoint file:  "1141903082400600000001_well.chk"
 ------------------------------
 Gaussian input prepared by ASE
 ------------------------------
 Charge =  0 Multiplicity = 1

                          Input orientation:
 ---------------------------------------------------------------------
 Center     Atomic      Atomic             Coordinates (Angstroms)
 Number     Number       Type             X           Y           Z
 ---------------------------------------------------------------------
      1          6           0        0.578205    0.309791    0.025527
      2          8           0        1.022467    1.397491    0.201281
      3          6           0       -0.932774   -0.006524    0.048852
      4          9           0       -1.314994   -0.515659   -1.119502
      5          9           0       -1.202229   -0.895680    1.001398
      6          9           0       -1.627455    1.090533    0.282429
      7          8           0        1.267647   -0.800403   -0.215030
      8          1           0        2.209132   -0.579549   -0.224955
 ---------------------------------------------------------------------

 SCF Done:  E(RM062X) =  -526.852770604     A.U. after    1 cycles

 Isotropic polarizability for W=    0.000000       31.73 Bohr**3.
 End of Minotr F.D. properties file   721 does not exist.

                      1                      2                      3
                      A                      A                      A
 Frequencies --     37.6817               239.3987               246.1901
 Red. masses --     14.4724                11.5686                 9.2411
 Frc consts  --      0.0121                 0.3906                 0.3300
 IR Inten    --      1.6898                 1.3537                 0.0552

                      4                      5                      6
                      A                      A                      A
 Frequencies --    394.6341               432.6814               511.5526
 Red. masses --     12.1017                15.4416                 4.0630
 Frc consts  --      1.1104                 1.7032                 0.6264
 IR Inten    --      2.1665                 0.0417                 6.1720

                      7                      8                      9
                      A                      A                      A
 Frequencies --    588.3477               600.9515               681.7853
 Red. masses --      1.4824                14.2163                 4.9044
 Frc consts  --      0.3023                 3.0249                 1.3432
 IR Inten    --    102.7571                 9.3987                79.2214

                     10                     11                     12
                      A                      A                      A
 Frequencies --    807.1217               825.0177              1179.5156
 Red. masses --     10.1422                 8.7333                 4.2270
 Frc consts  --      3.8928                 3.5023                 3.4649
 IR Inten    --     35.9865                 2.7427               311.7373

                     13                     14                     15
                      A                      A                      A
 Frequencies --   1245.3857              1248.8006              1313.8771
 Red. masses --      2.5304                13.1150                 7.1194
 Frc consts  --      2.3123                12.0505                 7.2411
 IR Inten    --    189.5398               297.6215               193.3235

                     16                     17                     18
                      A                      A                      A
 Frequencies --   1457.6639              1926.5148              3812.9556
 Red. masses --      5.4374                11.6929                 1.0647
 Frc consts  --      6.8071                25.5692                 9.1197
 IR Inten    --     54.7747               320.6203               124.0039

 - Thermochemistry -
 -------------------
 Temperature   298.150 Kelvin.  Pressure   1.00000 Atm.
 Atom     1 has atomic number  6 and mass  12.00000

 Molecular mass:   113.99286 amu.
 Principal axes and moments of inertia in atomic units:
                           1         2         3
     Eigenvalues --   463.58135 717.68428 865.42564
           X            0.99082  -0.12444   0.05280
           Y            0.13202   0.97473  -0.18019
           Z           -0.02905   0.18551   0.98221
 This molecule is an asymmetric top.
 Rotational symmetry number  1.
 Warning -- assumption of classical behavior for rotation
           may cause significant error
 Rotational temperatures (Kelvin)      0.18684     0.12069     0.10008
 Rotational constants (GHZ):           3.89304     2.51467     2.08538
 Zero-point vibrational energy     104972.8 (Joules/Mol)
                                   25.08909 (Kcal/Mol)
 Warning -- explicit consideration of   8 degrees of freedom as
           vibrations may cause significant error
 Vibrational temperatures:     54.22   344.44   354.21   567.79   622.53
          (Kelvin)            736.01   846.50   864.64   980.94  1161.27
                             1187.02  1697.06  1791.83  1796.75  1890.38
                             2097.25  2771.83  5485.99

 Zero-point correction=                           0.039982 (Hartree/Particle)
 Thermal correction to Energy=                    0.046135
 Thermal correction to Enthalpy=                  0.047079
 Thermal correction to Gibbs Free Energy=         0.008850
 Sum of electronic and zero-point Energies=           -526.812789
 Sum of electronic and thermal Energies=              -526.806635
 Sum of electronic and thermal Enthalpies=            -526.805691
 Sum of electronic and thermal Free Energies=         -526.843921

                     E (Thermal)             CV                S
                      KCal/Mol        Cal/Mol-Kelvin    Cal/Mol-Kelvin
 Total                   28.950             20.613             80.461
 Electronic               0.000              0.000              0.000
 Translational            0.889              2.981             40.108
 Rotational               0.889              2.981             27.157
 Vibrational             27.173             14.651             13.196
 Vibration     1          0.594              1.982              5.377
 Vibration     2          0.657              1.780              1.807
 Vibration     3          0.661              1.769              1.758
 Vibration     4          0.762              1.482              0.983
 Vibration     5          0.794              1.399              0.850
 Vibration     6          0.867              1.224              0.630
 Vibration     7          0.946              1.057              0.470
 Vibration     8          0.959              1.030              0.448

 Optimization completed.
    -- Stationary point found.
 Normal termination of Gaussian 16 at Sun May 25 03:18:00 2025.
