 Gaussian 16, Revision C.01,
 Gaussian 16:  ES64L-G16RevC.01  3-Jul-2019

 -----------------------------------------------------------------
 #P M062X/Def2TZVPP Symm(None) scf(xqc) pop(None) freq opt(CalcFC)
 -----------------------------------------------------------------

 ------------------------------
 Gaussian input prepared by ASE
 ------------------------------
 Symbolic Z-matrix:
 Charge =  0 Multiplicity = 1

 SCF Done:  E(RM062X) =  -526.798059756     A.U. after   13 cycles
 SCF Done:  E(RM062X) =  -526.823634132     A.U. after   13 cycles
 SCF Done:  E(RM062X) =  -526.783707249     A.U. after   15 cycles
 SCF Done:  E(RM062X) =  -526.845071742     A.U. after   14 cycles
 SCF Done:  E(RM062X) =  -526.846965722     A.U. after   15 cycles
 SCF Done:  E(RM062X) =  -526.844627332     A.U. after   15 cycles
 SCF Done:  E(RM062X) =  -526.847481796     A.U. after   13 cycles
 SCF Done:  E(RM062X) =  -526.847833638     A.U. after   12 cycles
 SCF Done:  E(RM062X) =  -526.847865690     A.U. after   12 cycles
 SCF Done:  E(RM062X) =  -526.847879300     A.U. after   10 cycles
 SCF Done:  E(RM062X) =  -526.847880542     A.U. after    9 cycles
 SCF Done:  E(RM062X) =  -526.847882515     A.U. after   11 cycles
 SCF Done:  E(RM062X) =  -526.847886240     A.U. after   12 cycles
 SCF Done:  E(RM062X) =  -526.847887571     A.U. after   12 cycles
 SCF Done:  E(RM062X) =  -526.847887754     A.U. after   11 cycles
 SCF Done:  E(RM062X) =  -526.847887771     A.U. after    9 cycles
 SCF Done:  E(RM062X) =  -526.847887775     A.U. after    7 cycles
 Optimization completed.
    -- Stationary point found.
 Normal termination of Gaussian 16 at Sun May 25 04:20:19 2025.

 ---------------------------------------------------------------------
 #P Geom=AllCheck Guess=TCheck SCRF=Check GenChk RM062X/def2TZVPP Freq
 ---------------------------------------------------------------------

 Structure from the checkpoint file:  "1141903082400600000001_r13_insertion_CO2_3_8_IRC_R_prod.chk"
 ------------------------------
 Gaussian input prepared by ASE
 ------------------------------
 Charge =  0 Multiplicity = 1

                          Input orientation:
 ---------------------------------------------------------------------
 Center     Atomic      Atomic             Coordinates (Angstroms)
 Number     Number       Type             X           Y           Z
 ---------------------------------------------------------------------
      1          6           0        1.015510    0.030594   -0.191114
      2          8           0        1.509022   -0.402803   -1.176319
      3          6           0       -0.520635   -0.049847    0.010499
      4          9           0       -0.893008    0.557937    1.150485
      5          9           0       -1.149347    0.538662   -0.991918
      6          9           0       -0.906799   -1.314109    0.078203
      7          8           0        1.693007    0.596746    0.802872
      8          1           0        1.103967    0.893554    1.506833
 ---------------------------------------------------------------------

 SCF Done:  E(RM062X) =  -526.847887775     A.U. after    1 cycles

 Isotropic polarizability for W=    0.000000       31.66 Bohr**3.
 End of Minotr F.D. properties file   721 does not exist.

                      1                      2                      3
                      A                      A                      A
 Frequencies --     11.8439               256.0078               267.9791
 Red. masses --     10.7047                17.3451                12.4511
 Frc consts  --      0.0009                 0.6698                 0.5268
 IR Inten    --      2.0470                10.0081                11.4327

                      4                      5                      6
                      A                      A                      A
 Frequencies --    399.4728               435.9432               518.1392
 Red. masses --      9.3427                13.4076                10.5791
 Frc consts  --      0.8784                 1.5013                 1.6734
 IR Inten    --      4.8623                 4.1098                28.7240

                      7                      8                      9
                      A                      A                      A
 Frequencies --    544.8043               603.5151               704.1196
 Red. masses --      1.1540                13.2178                10.0635
 Frc consts  --      0.2018                 2.8365                 2.9396
 IR Inten    --     91.8073                 0.2524                30.5995

                     10                     11                     12
                      A                      A                      A
 Frequencies --    791.9525               825.4536              1169.9819
 Red. masses --     10.7703                13.1237                 4.8861
 Frc consts  --      3.9799                 5.2686                 3.9407
 IR Inten    --      7.7875                12.3841                86.8909

                     13                     14                     15
                      A                      A                      A
 Frequencies --   1253.6576              1269.7382              1280.6983
 Red. masses --     13.0358                 1.6130                12.9548
 Frc consts  --     12.0710                 1.5322                12.5192
 IR Inten    --    414.8551               198.1007               303.3892

                     16                     17                     18
                      A                      A                      A
 Frequencies --   1432.5999              1950.5641              3844.0566
 Red. masses --      5.7686                11.4497                 1.0657
 Frc consts  --      6.9755                25.6665                 9.2782
 IR Inten    --    135.1665               292.1473               147.9272

 - Thermochemistry -
 -------------------
 Temperature   298.150 Kelvin.  Pressure   1.00000 Atm.
 Atom     1 has atomic number  6 and mass  12.00000

 Molecular mass:   113.99286 amu.
 Principal axes and moments of inertia in atomic units:
                           1         2         3
     Eigenvalues --   468.65743 714.97912 869.06234
           X            0.99444   0.02353  -0.10264
           Y            0.08144   0.44597   0.89133
           Z           -0.06675   0.89474  -0.44157
 This molecule is an asymmetric top.
 Rotational symmetry number  1.
 Warning -- assumption of classical behavior for rotation
           may cause significant error
 Rotational temperatures (Kelvin)      0.18481     0.12114     0.09966
 Rotational constants (GHZ):           3.85088     2.52419     2.07665
 Zero-point vibrational energy     105035.3 (Joules/Mol)
                                   25.10403 (Kcal/Mol)
 Warning -- explicit consideration of   8 degrees of freedom as
           vibrations may cause significant error
 Vibrational temperatures:     17.04   368.34   385.56   574.75   627.23
          (Kelvin)            745.49   783.85   868.32  1013.07  1139.44
                             1187.64  1683.34  1803.73  1826.87  1842.64
                             2061.19  2806.43  5530.74

 Zero-point correction=                           0.040006 (Hartree/Particle)
 Thermal correction to Energy=                    0.046171
 Thermal correction to Enthalpy=                  0.047115
 Thermal correction to Gibbs Free Energy=         0.007904
 Sum of electronic and zero-point Energies=           -526.807882
 Sum of electronic and thermal Energies=              -526.801717
 Sum of electronic and thermal Enthalpies=            -526.800772
 Sum of electronic and thermal Free Energies=         -526.839984

                     E (Thermal)             CV                S
                      KCal/Mol        Cal/Mol-Kelvin    Cal/Mol-Kelvin
 Total                   28.973             20.604             82.527
 Electronic               0.000              0.000              0.000
 Translational            0.889              2.981             40.108
 Rotational               0.889              2.981             27.168
 Vibrational             27.195             14.643             15.250
 Vibration     1          0.593              1.987              7.675
 Vibration     2          0.666              1.753              1.689
 Vibration     3          0.673              1.732              1.609
 Vibration     4          0.766              1.471              0.965
 Vibration     5          0.796              1.392              0.839
 Vibration     6          0.873              1.210              0.614
 Vibration     7          0.900              1.151              0.555
 Vibration     8          0.962              1.024              0.444

 Optimization completed.
    -- Stationary point found.
 Normal termination of Gaussian 16 at Sun May 25 04:21:31 2025.
