 Gaussian 16, Revision C.01,
 Gaussian 16:  ES64L-G16RevC.01  3-Jul-2019

 -----------------------------------------------------------------
 #P M062X/Def2TZVPP Symm(None) scf(xqc) pop(None) freq opt(CalcFC)
 -----------------------------------------------------------------

 ------------------------------
 Gaussian input prepared by ASE
 ------------------------------
 Symbolic Z-matrix:
 Charge =  0 Multiplicity = 1

 SCF Done:  E(RM062X) =  -526.628059562     A.U. after   22 cycles
 SCF Done:  E(RM062X) =  -526.638903489     A.U. after   20 cycles
 SCF Done:  E(RM062X) =  -526.697058239     A.U. after   19 cycles
 SCF Done:  E(RM062X) =  -526.441485383     A.U. after   15 cycles
 SCF Done:  E(RM062X) =  -526.796898628     A.U. after   14 cycles
 SCF Done:  E(RM062X) =  -526.830914391     A.U. after   16 cycles
 SCF Done:  E(RM062X) =  -526.792508589     A.U. after   16 cycles
 SCF Done:  E(RM062X) =  -526.839294748     A.U. after   13 cycles
 SCF Done:  E(RM062X) =  -526.850911950     A.U. after   12 cycles
 SCF Done:  E(RM062X) =  -526.849721280     A.U. after   13 cycles
 SCF Done:  E(RM062X) =  -526.850530918     A.U. after   13 cycles
 SCF Done:  E(RM062X) =  -526.852270994     A.U. after    9 cycles
 SCF Done:  E(RM062X) =  -526.852674748     A.U. after   12 cycles
 SCF Done:  E(RM062X) =  -526.852722465     A.U. after   11 cycles
 SCF Done:  E(RM062X) =  -526.852754129     A.U. after   12 cycles
 SCF Done:  E(RM062X) =  -526.852766709     A.U. after   12 cycles
 SCF Done:  E(RM062X) =  -526.852768698     A.U. after    9 cycles
 SCF Done:  E(RM062X) =  -526.852768959     A.U. after    8 cycles
 Optimization completed.
    -- Stationary point found.
 Normal termination of Gaussian 16 at Sun May 25 04:29:53 2025.

 ---------------------------------------------------------------------
 #P Geom=AllCheck Guess=TCheck SCRF=Check GenChk RM062X/def2TZVPP Freq
 ---------------------------------------------------------------------

 Structure from the checkpoint file:  "1141903082400600000001_r12_insertion_R_4_3_5_IRC_R_prod.chk"
 ------------------------------
 Gaussian input prepared by ASE
 ------------------------------
 Charge =  0 Multiplicity = 1

                          Input orientation:
 ---------------------------------------------------------------------
 Center     Atomic      Atomic             Coordinates (Angstroms)
 Number     Number       Type             X           Y           Z
 ---------------------------------------------------------------------
      1          6           0        1.049641   -0.037302    0.033977
      2          8           0        1.757197   -0.990895   -0.002309
      3          6           0       -0.491875   -0.119778    0.007541
      4          9           0       -1.000761    0.423120    1.110804
      5          9           0       -0.970709    0.540843   -1.043492
      6          9           0       -0.882758   -1.377732   -0.066610
      7          8           0        1.432254    1.233432    0.102018
      8          1           0        2.398820    1.261170    0.117566
 ---------------------------------------------------------------------

 SCF Done:  E(RM062X) =  -526.852768959     A.U. after    1 cycles

 Isotropic polarizability for W=    0.000000       31.73 Bohr**3.
 End of Minotr F.D. properties file   721 does not exist.

                      1                      2                      3
                      A                      A                      A
 Frequencies --     36.8034               239.2493               246.6333
 Red. masses --     14.3789                11.5707                 9.5248
 Frc consts  --      0.0115                 0.3902                 0.3414
 IR Inten    --      1.7282                 1.3638                 0.1003

                      4                      5                      6
                      A                      A                      A
 Frequencies --    394.6664               432.7395               513.9339
 Red. masses --     12.0941                15.4435                 4.7965
 Frc consts  --      1.1099                 1.7039                 0.7464
 IR Inten    --      2.1742                 0.0419                 3.5217

                      7                      8                      9
                      A                      A                      A
 Frequencies --    597.0420               600.8330               681.7658
 Red. masses --      1.4039                14.2160                 4.9057
 Frc consts  --      0.2948                 3.0237                 1.3435
 IR Inten    --    104.0220                 9.3367                79.0889

                     10                     11                     12
                      A                      A                      A
 Frequencies --    807.3118               824.7680              1179.3912
 Red. masses --      9.8808                 8.7436                 4.2234
 Frc consts  --      3.7942                 3.5043                 3.4612
 IR Inten    --     37.1761                 2.7740               312.2858

                     13                     14                     15
                      A                      A                      A
 Frequencies --   1245.4016              1248.6188              1312.7296
 Red. masses --      2.5684                12.4868                 7.0326
 Frc consts  --      2.3471                11.4700                 7.1403
 IR Inten    --    192.1482               296.6242               191.1300

                     16                     17                     18
                      A                      A                      A
 Frequencies --   1457.6635              1926.5558              3813.1250
 Red. masses --      5.4289                11.6925                 1.0647
 Frc consts  --      6.7964                25.5694                 9.1206
 IR Inten    --     55.1696               320.3964               123.8958

 - Thermochemistry -
 -------------------
 Temperature   298.150 Kelvin.  Pressure   1.00000 Atm.
 Atom     1 has atomic number  6 and mass  12.00000

 Molecular mass:   113.99286 amu.
 Principal axes and moments of inertia in atomic units:
                           1         2         3
     Eigenvalues --   463.60011 717.73575 865.46831
           X            0.99153  -0.12906  -0.01457
           Y            0.12821   0.99054  -0.04898
           Z            0.02075   0.04670   0.99869
 This molecule is an asymmetric top.
 Rotational symmetry number  1.
 Warning -- assumption of classical behavior for rotation
           may cause significant error
 Rotational temperatures (Kelvin)      0.18683     0.12068     0.10008
 Rotational constants (GHZ):           3.89288     2.51449     2.08528
 Zero-point vibrational energy     105027.5 (Joules/Mol)
                                   25.10218 (Kcal/Mol)
 Warning -- explicit consideration of   8 degrees of freedom as
           vibrations may cause significant error
 Vibrational temperatures:     52.95   344.23   354.85   567.84   622.62
          (Kelvin)            739.44   859.01   864.46   980.91  1161.54
                             1186.66  1696.88  1791.86  1796.48  1888.73
                             2097.25  2771.88  5486.24

 Zero-point correction=                           0.040003 (Hartree/Particle)
 Thermal correction to Energy=                    0.046151
 Thermal correction to Enthalpy=                  0.047095
 Thermal correction to Gibbs Free Energy=         0.008854
 Sum of electronic and zero-point Energies=           -526.812766
 Sum of electronic and thermal Energies=              -526.806618
 Sum of electronic and thermal Enthalpies=            -526.805674
 Sum of electronic and thermal Free Energies=         -526.843914

                     E (Thermal)             CV                S
                      KCal/Mol        Cal/Mol-Kelvin    Cal/Mol-Kelvin
 Total                   28.960             20.590             80.484
 Electronic               0.000              0.000              0.000
 Translational            0.889              2.981             40.108
 Rotational               0.889              2.981             27.157
 Vibrational             27.183             14.628             13.219
 Vibration     1          0.594              1.982              5.424
 Vibration     2          0.657              1.780              1.808
 Vibration     3          0.661              1.768              1.755
 Vibration     4          0.762              1.482              0.982
 Vibration     5          0.794              1.399              0.850
 Vibration     6          0.869              1.219              0.624
 Vibration     7          0.955              1.038              0.455
 Vibration     8          0.959              1.030              0.448

 Optimization completed.
    -- Stationary point found.
 Normal termination of Gaussian 16 at Sun May 25 04:31:02 2025.
