 Gaussian 16, Revision C.01,
 Gaussian 16:  ES64L-G16RevC.01  3-Jul-2019

 ----------------------------------------------------------------------
 #P M062X/Def2TZVPP Symm(None) scf(xqc) pop(None) opt(NoFreeze,TS,CalcA
 ll,NoEigentest,MaxCycle=999)
 ----------------------------------------------------------------------

 ------------------------------
 Gaussian input prepared by ASE
 ------------------------------
 Symbolic Z-matrix:
 Charge =  0 Multiplicity = 1

 SCF Done:  E(RM062X) =  -526.584077138     A.U. after   18 cycles
 SCF Done:  E(RM062X) =  -526.630641638     A.U. after   15 cycles
 SCF Done:  E(RM062X) =  -526.665879465     A.U. after   15 cycles
 SCF Done:  E(RM062X) =  -526.684385046     A.U. after   15 cycles
 SCF Done:  E(RM062X) =  -526.690374301     A.U. after   15 cycles
 SCF Done:  E(RM062X) =  -526.691248670     A.U. after   14 cycles
 SCF Done:  E(RM062X) =  -526.691320993     A.U. after   13 cycles
 SCF Done:  E(RM062X) =  -526.691322677     A.U. after    9 cycles

 Isotropic polarizability for W=    0.000000       36.81 Bohr**3.
 End of Minotr F.D. properties file   721 does not exist.

 Optimization completed.
    -- Stationary point found.

                          Input orientation:
 ---------------------------------------------------------------------
 Center     Atomic      Atomic             Coordinates (Angstroms)
 Number     Number       Type             X           Y           Z
 ---------------------------------------------------------------------
      1          6           0        1.563338    0.420167    0.426505
      2          8           0        1.539918   -0.202638   -0.680804
      3          6           0       -0.071770   -0.124768   -0.105978
      4          9           0       -0.807619    0.862087    0.414328
      5          9           0       -0.596370   -0.269774   -1.326063
      6          9           0       -0.241172   -1.236325    0.559209
      7          8           0        2.643676    1.080993    0.720237
      8          1           0        3.289623    0.974530   -0.008517
 ---------------------------------------------------------------------

 ******    1 imaginary frequencies (negative Signs) ******

                      1                      2                      3
                      A                      A                      A
 Frequencies --   -759.6767                82.0777               139.0787
 Red. masses --     12.9468                13.8273                 5.2743
 Frc consts  --      4.4022                 0.0549                 0.0601
 IR Inten    --     73.3665                 3.2826                 6.6822

                      4                      5                      6
                      A                      A                      A
 Frequencies --    346.3060               415.8214               457.2327
 Red. masses --     11.5950                 8.3561                 7.9372
 Frc consts  --      0.8193                 0.8513                 0.9777
 IR Inten    --     53.5563                14.9703                64.1712

                      7                      8                      9
                      A                      A                      A
 Frequencies --    524.3192               593.3285               680.6687
 Red. masses --     10.1673                15.9059                 3.8256
 Frc consts  --      1.6468                 3.2991                 1.0443
 IR Inten    --      3.5449                 5.0026               194.8482

                     10                     11                     12
                      A                      A                      A
 Frequencies --    733.2459               749.9732               955.7018
 Red. masses --      1.7188                 6.2323                14.6604
 Frc consts  --      0.5445                 2.0653                 7.8893
 IR Inten    --    144.5454               147.8917               586.1947

                     13                     14                     15
                      A                      A                      A
 Frequencies --   1079.4953              1220.7568              1310.8525
 Red. masses --     12.8873                 1.8932                13.1549
 Frc consts  --      8.8482                 1.6623                13.3182
 IR Inten    --    229.0425                95.0390               326.7342

                     16                     17                     18
                      A                      A                      A
 Frequencies --   1394.9952              1571.8326              3598.1040
 Red. masses --      4.6337                 7.5895                 1.0619
 Frc consts  --      5.3128                11.0479                 8.1003
 IR Inten    --    100.4499               295.2457                29.6387

 - Thermochemistry -
 -------------------
 Temperature   298.150 Kelvin.  Pressure   1.00000 Atm.
 Atom     1 has atomic number  6 and mass  12.00000

 Molecular mass:   113.99286 amu.
 Principal axes and moments of inertia in atomic units:
                           1         2         3
     Eigenvalues --   373.96391 892.09194 942.89714
           X            0.91910  -0.38070  -0.10161
           Y            0.32390   0.58312   0.74502
           Z            0.22438   0.71766  -0.65925
 This molecule is an asymmetric top.
 Rotational symmetry number  1.
 Rotational temperatures (Kelvin)      0.23161     0.09709     0.09186
 Rotational constants (GHZ):           4.82598     2.02304     1.91404
    1 imaginary frequencies ignored.
 Zero-point vibrational energy      94826.7 (Joules/Mol)
                                   22.66413 (Kcal/Mol)
 Warning -- explicit consideration of   7 degrees of freedom as
           vibrations may cause significant error
 Vibrational temperatures:    118.09   200.10   498.26   598.27   657.86
          (Kelvin)            754.38   853.67   979.33  1054.98  1079.04
                             1375.04  1553.15  1756.40  1886.02  2007.09
                             2261.52  5176.87

 Zero-point correction=                           0.036118 (Hartree/Particle)
 Thermal correction to Energy=                    0.042093
 Thermal correction to Enthalpy=                  0.043037
 Thermal correction to Gibbs Free Energy=         0.005475
 Sum of electronic and zero-point Energies=           -526.655205
 Sum of electronic and thermal Energies=              -526.649230
 Sum of electronic and thermal Enthalpies=            -526.648286
 Sum of electronic and thermal Free Energies=         -526.685848

                     E (Thermal)             CV                S
                      KCal/Mol        Cal/Mol-Kelvin    Cal/Mol-Kelvin
 Total                   26.414             20.040             79.056
 Electronic               0.000              0.000              0.000
 Translational            0.889              2.981             40.108
 Rotational               0.889              2.981             27.244
 Vibrational             24.636             14.078             11.703
 Vibration     1          0.600              1.961              3.841
 Vibration     2          0.615              1.914              2.817
 Vibration     3          0.724              1.583              1.183
 Vibration     4          0.779              1.436              0.906
 Vibration     5          0.815              1.345              0.774
 Vibration     6          0.879              1.196              0.600
 Vibration     7          0.951              1.046              0.461

 Normal termination of Gaussian 16 at Sun May 25 03:51:59 2025.
