 Gaussian 16, Revision C.01,
 Gaussian 16:  ES64L-G16RevC.01  3-Jul-2019

 ----------------------------------------------------------------------
 #P M062X/Def2TZVPP Symm(None) scf(xqc) pop(None) opt(NoFreeze,TS,CalcA
 ll,NoEigentest,MaxCycle=999)
 ----------------------------------------------------------------------

 ------------------------------
 Gaussian input prepared by ASE
 ------------------------------
 Symbolic Z-matrix:
 Charge =  0 Multiplicity = 1

 SCF Done:  E(RM062X) =  -526.461074702     A.U. after   23 cycles
 SCF Done:  E(RM062X) =  -526.464164686     A.U. after   22 cycles
 SCF Done:  E(RM062X) =  -526.490943533     A.U. after   22 cycles
 SCF Done:  E(RM062X) =  -526.518046704     A.U. after   22 cycles
 SCF Done:  E(RM062X) =  -526.530062537     A.U. after   23 cycles
 SCF Done:  E(RM062X) =  -526.524604258     A.U. after   24 cycles
 SCF Done:  E(RM062X) =  -526.524139184     A.U. after   17 cycles
 SCF Done:  E(RM062X) =  -526.524124727     A.U. after    8 cycles
 SCF Done:  E(RM062X) =  -526.522270725     A.U. after   20 cycles
 SCF Done:  E(RM062X) =  -526.516811526     A.U. after   18 cycles
 SCF Done:  E(RM062X) =  -526.547838003     A.U. after   13 cycles
 SCF Done:  E(RM062X) =  -526.565034208     A.U. after   19 cycles
 SCF Done:  E(RM062X) =  -526.580112885     A.U. after   16 cycles
 SCF Done:  E(RM062X) =  -526.623195247     A.U. after   17 cycles
 SCF Done:  E(RM062X) =  -526.642592711     A.U. after   16 cycles
 SCF Done:  E(RM062X) =  -526.681258133     A.U. after   16 cycles
 SCF Done:  E(RM062X) =  -526.707846873     A.U. after   15 cycles
 SCF Done:  E(RM062X) =  -526.716727336     A.U. after   15 cycles
 SCF Done:  E(RM062X) =  -526.717461083     A.U. after   13 cycles
 SCF Done:  E(RM062X) =  -526.717465696     A.U. after   10 cycles

 Isotropic polarizability for W=    0.000000       34.52 Bohr**3.
 End of Minotr F.D. properties file   721 does not exist.

 Optimization completed.
    -- Stationary point found.

                          Input orientation:
 ---------------------------------------------------------------------
 Center     Atomic      Atomic             Coordinates (Angstroms)
 Number     Number       Type             X           Y           Z
 ---------------------------------------------------------------------
      1          6           0        1.610695   -0.566652   -0.265385
      2          8           0        2.664277   -0.981059   -0.531866
      3          6           0        0.178775   -0.003367    0.096197
      4          9           0        0.171803    0.488292    1.313020
      5          9           0       -0.204921    0.881136   -0.794366
      6          9           0       -0.737201   -0.985340    0.076961
      7          8           0        2.099449    0.964272   -0.066328
      8          1           0        1.536746    1.706990    0.170680
 ---------------------------------------------------------------------

 ******    2 imaginary frequencies (negative Signs) ******

                      1                      2                      3
                      A                      A                      A
 Frequencies --   -387.2374              -135.7140               269.0030
 Red. masses --      8.5155                 3.6465                 1.5019
 Frc consts  --      0.7523                 0.0396                 0.0640
 IR Inten    --    136.5842                13.8744                79.4141

                      4                      5                      6
                      A                      A                      A
 Frequencies --    305.2693               354.9591               401.3598
 Red. masses --     13.9547                16.4537                13.8897
 Frc consts  --      0.7662                 1.2214                 1.3183
 IR Inten    --      2.8845                 6.6058                 1.4692

                      7                      8                      9
                      A                      A                      A
 Frequencies --    478.9033               540.0249               577.9557
 Red. masses --      8.8652                15.1285                17.7605
 Frc consts  --      1.1979                 2.5994                 3.4954
 IR Inten    --     15.8383                 6.3749                12.1359

                     10                     11                     12
                      A                      A                      A
 Frequencies --    720.9066               722.1749               809.4083
 Red. masses --      8.5900                 7.4557                12.2628
 Frc consts  --      2.6303                 2.2910                 4.7334
 IR Inten    --     24.3410                 0.7319                22.7557

                     13                     14                     15
                      A                      A                      A
 Frequencies --   1103.4627              1153.9655              1260.6988
 Red. masses --      4.0287                 2.1426                 3.8373
 Frc consts  --      2.8902                 1.6811                 3.5933
 IR Inten    --    611.3616               157.2477               137.2010

                     16                     17                     18
                      A                      A                      A
 Frequencies --   1323.4476              2018.8407              3869.4649
 Red. masses --     12.2322                13.0460                 1.0670
 Frc consts  --     12.6231                31.3279                 9.4131
 IR Inten    --    310.5308               166.1330                43.9624

 - Thermochemistry -
 -------------------
 Temperature   298.150 Kelvin.  Pressure   1.00000 Atm.
 Atom     1 has atomic number  6 and mass  12.00000

 Molecular mass:   113.99286 amu.
 Principal axes and moments of inertia in atomic units:
                           1         2         3
     Eigenvalues --   428.61440 774.98894 882.20182
           X            0.97780   0.11774   0.17335
           Y           -0.08582   0.97967  -0.18133
           Z           -0.19117   0.16243   0.96802
 This molecule is an asymmetric top.
 Rotational symmetry number  1.
 Rotational temperatures (Kelvin)      0.20208     0.11176     0.09818
 Rotational constants (GHZ):           4.21064     2.32873     2.04572
    2 imaginary frequencies ignored.
 Zero-point vibrational energy      95162.0 (Joules/Mol)
                                   22.74427 (Kcal/Mol)
 Warning -- explicit consideration of   7 degrees of freedom as
           vibrations may cause significant error
 Vibrational temperatures:    387.04   439.21   510.71   577.47   689.04
          (Kelvin)            776.98   831.55  1037.22  1039.05  1164.56
                             1587.64  1660.30  1813.86  1904.15  2904.66
                             5567.30

 Zero-point correction=                           0.036245 (Hartree/Particle)
 Thermal correction to Energy=                    0.041577
 Thermal correction to Enthalpy=                  0.042522
 Thermal correction to Gibbs Free Energy=         0.006851
 Sum of electronic and zero-point Energies=           -526.681220
 Sum of electronic and thermal Energies=              -526.675888
 Sum of electronic and thermal Enthalpies=            -526.674944
 Sum of electronic and thermal Free Energies=         -526.710614

                     E (Thermal)             CV                S
                      KCal/Mol        Cal/Mol-Kelvin    Cal/Mol-Kelvin
 Total                   26.090             18.968             75.075
 Electronic               0.000              0.000              0.000
 Translational            0.889              2.981             40.108
 Rotational               0.889              2.981             27.174
 Vibrational             24.313             13.006              7.792
 Vibration     1          0.673              1.730              1.603
 Vibration     2          0.696              1.664              1.388
 Vibration     3          0.731              1.565              1.144
 Vibration     4          0.767              1.467              0.958
 Vibration     5          0.835              1.297              0.713
 Vibration     6          0.895              1.162              0.565
 Vibration     7          0.934              1.079              0.489

 Normal termination of Gaussian 16 at Sun May 25 04:20:52 2025.
