 Gaussian 16, Revision C.01,
 Gaussian 16:  ES64L-G16RevC.01  3-Jul-2019

 -----------------------------------------------------------------
 #P M062X/Def2TZVPP Symm(None) scf(xqc) pop(None) freq opt(CalcFC)
 -----------------------------------------------------------------

 ------------------------------
 Gaussian input prepared by ASE
 ------------------------------
 Symbolic Z-matrix:
 Charge =  0 Multiplicity = 1

 SCF Done:  E(RM062X) =  -526.659578692     A.U. after   16 cycles
 SCF Done:  E(RM062X) =  -526.659684836     A.U. after   13 cycles
 SCF Done:  E(RM062X) =  -526.659685165     A.U. after    8 cycles
 Optimization completed.
    -- Stationary point found.
 Normal termination of Gaussian 16 at Sun May 25 04:28:40 2025.

 ---------------------------------------------------------------------
 #P Geom=AllCheck Guess=TCheck SCRF=Check GenChk RM062X/def2TZVPP Freq
 ---------------------------------------------------------------------

 Structure from the checkpoint file:  "1141903082400600000001_ketoenol_2_1_3_4_IRC_F_prod.chk"
 ------------------------------
 Gaussian input prepared by ASE
 ------------------------------
 Charge =  0 Multiplicity = 1

                          Input orientation:
 ---------------------------------------------------------------------
 Center     Atomic      Atomic             Coordinates (Angstroms)
 Number     Number       Type             X           Y           Z
 ---------------------------------------------------------------------
      1          6           0       -0.085467   -0.270259    0.428200
      2          8           0       -0.954305   -1.070794   -0.201849
      3          6           0        0.143242    0.935809   -0.090566
      4          9           0       -0.143137   -2.109068   -0.810541
      5          9           0        0.878848    1.839784    0.490626
      6          9           0       -0.401512    1.379461   -1.186279
      7          8           0        0.450783   -0.659912    1.603421
      8          1           0        0.961307   -1.466642    1.468981
 ---------------------------------------------------------------------

 SCF Done:  E(RM062X) =  -526.659685165     A.U. after    1 cycles

 Isotropic polarizability for W=    0.000000       38.33 Bohr**3.
 End of Minotr F.D. properties file   721 does not exist.

                      1                      2                      3
                      A                      A                      A
 Frequencies --     98.9356               150.7724               216.0481
 Red. masses --     14.4669                 8.1966                 1.5312
 Frc consts  --      0.0834                 0.1098                 0.0421
 IR Inten    --      1.4851                10.1358                74.0740

                      4                      5                      6
                      A                      A                      A
 Frequencies --    244.3910               262.9556               421.9401
 Red. masses --      3.1737                 9.3209                15.9575
 Frc consts  --      0.1117                 0.3797                 1.6738
 IR Inten    --     38.1581                14.9690                 1.5040

                      7                      8                      9
                      A                      A                      A
 Frequencies --    523.3204               581.7455               611.6626
 Red. masses --     12.8528                14.2556                13.7261
 Frc consts  --      2.0739                 2.8425                 3.0257
 IR Inten    --      4.6103                 4.3473                 3.7768

                     10                     11                     12
                      A                      A                      A
 Frequencies --    683.2139               793.2428               873.4293
 Red. masses --      9.0859                15.7792                 9.0406
 Frc consts  --      2.4988                 5.8499                 4.0635
 IR Inten    --     71.9503               192.8640                17.2060

                     13                     14                     15
                      A                      A                      A
 Frequencies --   1170.8637              1299.3709              1336.2090
 Red. masses --      3.8775                 1.8186                 6.9982
 Frc consts  --      3.1319                 1.8091                 7.3618
 IR Inten    --    225.7803               119.3024               199.9110

                     16                     17                     18
                      A                      A                      A
 Frequencies --   1408.4496              1854.2695              3836.0393
 Red. masses --     12.6229                10.8816                 1.0658
 Frc consts  --     14.7534                22.0439                 9.2401
 IR Inten    --    174.1267               185.1404               109.0570

 - Thermochemistry -
 -------------------
 Temperature   298.150 Kelvin.  Pressure   1.00000 Atm.
 Atom     1 has atomic number  6 and mass  12.00000

 Molecular mass:   113.99286 amu.
 Principal axes and moments of inertia in atomic units:
                           1         2         3
     Eigenvalues --   426.48074 878.288491202.59332
           X            0.20059   0.39483   0.89659
           Y            0.97825  -0.13010  -0.16157
           Z            0.05286   0.90950  -0.41233
 This molecule is an asymmetric top.
 Rotational symmetry number  1.
 Rotational temperatures (Kelvin)      0.20309     0.09862     0.07202
 Rotational constants (GHZ):           4.23171     2.05484     1.50071
 Zero-point vibrational energy      97895.6 (Joules/Mol)
                                   23.39760 (Kcal/Mol)
 Warning -- explicit consideration of   9 degrees of freedom as
           vibrations may cause significant error
 Vibrational temperatures:    142.35   216.93   310.85   351.62   378.33
          (Kelvin)            607.08   752.94   837.00   880.05   982.99
                             1141.30  1256.67  1684.61  1869.50  1922.51
                             2026.44  2667.88  5519.20

 Zero-point correction=                           0.037286 (Hartree/Particle)
 Thermal correction to Energy=                    0.044124
 Thermal correction to Enthalpy=                  0.045068
 Thermal correction to Gibbs Free Energy=         0.005887
 Sum of electronic and zero-point Energies=           -526.622399
 Sum of electronic and thermal Energies=              -526.615561
 Sum of electronic and thermal Enthalpies=            -526.614617
 Sum of electronic and thermal Free Energies=         -526.653798

                     E (Thermal)             CV                S
                      KCal/Mol        Cal/Mol-Kelvin    Cal/Mol-Kelvin
 Total                   27.688             22.530             82.464
 Electronic               0.000              0.000              0.000
 Translational            0.889              2.981             40.108
 Rotational               0.889              2.981             27.601
 Vibrational             25.911             16.569             14.754
 Vibration     1          0.604              1.950              3.475
 Vibration     2          0.618              1.902              2.662
 Vibration     3          0.645              1.817              1.992
 Vibration     4          0.660              1.772              1.771
 Vibration     5          0.670              1.741              1.642
 Vibration     6          0.784              1.423              0.885
 Vibration     7          0.878              1.198              0.602
 Vibration     8          0.939              1.071              0.482
 Vibration     9          0.971              1.007              0.430

 Optimization completed.
    -- Stationary point found.
 Normal termination of Gaussian 16 at Sun May 25 04:29:46 2025.
