 Gaussian 16, Revision C.01,
 Gaussian 16:  ES64L-G16RevC.01  3-Jul-2019

 ----------------------------------------------------------------------
 #P M062X/Def2TZVPP Symm(None) scf(xqc) pop(None) geom(AllCheck,NoKeepC
 onstants) guess(Read) irc(RCFC,forward,MaxPoints=100,StepSize=2)
 ----------------------------------------------------------------------

 Structure from the checkpoint file:  "1141903082400600000001_r12_insertion_R_8_7_1_IRC_F.chk"
 ------------------------------
 Gaussian input prepared by ASE
 ------------------------------
 Charge =  0 Multiplicity = 1

 SCF Done:  E(RM062X) =  -526.789184505     A.U. after    9 cycles
 SCF Done:  E(RM062X) =  -526.789283208     A.U. after   11 cycles
 SCF Done:  E(RM062X) =  -526.789447098     A.U. after   10 cycles
 SCF Done:  E(RM062X) =  -526.789675343     A.U. after   10 cycles
 SCF Done:  E(RM062X) =  -526.789966802     A.U. after   10 cycles
 SCF Done:  E(RM062X) =  -526.790319996     A.U. after   10 cycles
 SCF Done:  E(RM062X) =  -526.790733080     A.U. after   10 cycles
 SCF Done:  E(RM062X) =  -526.791203912     A.U. after   10 cycles
 SCF Done:  E(RM062X) =  -526.791730192     A.U. after   10 cycles
 SCF Done:  E(RM062X) =  -526.792309619     A.U. after   10 cycles
 SCF Done:  E(RM062X) =  -526.848233771     A.U. after    8 cycles
 SCF Done:  E(RM062X) =  -526.848422256     A.U. after    8 cycles
 SCF Done:  E(RM062X) =  -526.848603339     A.U. after    8 cycles
 SCF Done:  E(RM062X) =  -526.848777177     A.U. after    8 cycles
 SCF Done:  E(RM062X) =  -526.848943921     A.U. after    8 cycles
 SCF Done:  E(RM062X) =  -526.849103727     A.U. after    8 cycles
 SCF Done:  E(RM062X) =  -526.849256753     A.U. after    8 cycles
 SCF Done:  E(RM062X) =  -526.849403158     A.U. after    8 cycles
 SCF Done:  E(RM062X) =  -526.849543106     A.U. after    8 cycles
 SCF Done:  E(RM062X) =  -526.849676765     A.U. after    8 cycles

                          Input orientation:
 ---------------------------------------------------------------------
 Center     Atomic      Atomic             Coordinates (Angstroms)
 Number     Number       Type             X           Y           Z
 ---------------------------------------------------------------------
      1          6           0        0.968810    0.226639    0.045602
      2          8           0        1.680218   -0.148215   -1.007199
      3          6           0       -0.559506   -0.098746   -0.001778
      4          9           0       -1.227638    0.872056    0.603787
      5          9           0       -1.035574   -0.233248   -1.232056
      6          9           0       -0.781755   -1.233944    0.658976
      7          8           0        1.466049    0.753041    0.988027
      8          1           0        2.593306    0.097007   -0.796405
 ---------------------------------------------------------------------

 Normal termination of Gaussian 16 at Sun May 25 04:13:27 2025.
