 Gaussian 16, Revision C.01,
 Gaussian 16:  ES64L-G16RevC.01  3-Jul-2019

 -----------------------------------------------------------------
 #P M062X/Def2TZVPP Symm(None) scf(xqc) pop(None) freq opt(CalcFC)
 -----------------------------------------------------------------

 ------------------------------
 Gaussian input prepared by ASE
 ------------------------------
 Symbolic Z-matrix:
 Charge =  0 Multiplicity = 1

 SCF Done:  E(RM062X) =  -526.852761697     A.U. after   13 cycles
 SCF Done:  E(RM062X) =  -526.852771531     A.U. after    8 cycles
 Optimization completed.
    -- Stationary point found.
 Normal termination of Gaussian 16 at Sun May 25 04:22:28 2025.

 ---------------------------------------------------------------------
 #P Geom=AllCheck Guess=TCheck SCRF=Check GenChk RM062X/def2TZVPP Freq
 ---------------------------------------------------------------------

 Structure from the checkpoint file:  "1141903082400600000001_r12_insertion_R_3_1_7_IRC_F_prod.chk"
 ------------------------------
 Gaussian input prepared by ASE
 ------------------------------
 Charge =  0 Multiplicity = 1

                          Input orientation:
 ---------------------------------------------------------------------
 Center     Atomic      Atomic             Coordinates (Angstroms)
 Number     Number       Type             X           Y           Z
 ---------------------------------------------------------------------
      1          6           0        0.988598   -0.133617    0.034294
      2          8           0        1.556859   -1.174672    0.101915
      3          6           0       -0.549146   -0.005071   -0.015231
      4          9           0       -0.985047    0.708010    1.020181
      5          9           0       -0.924350    0.609119   -1.134329
      6          9           0       -1.110508   -1.198370    0.023779
      7          8           0        1.543712    1.072862   -0.009736
      8          1           0        2.504622    0.968611    0.022504
 ---------------------------------------------------------------------

 SCF Done:  E(RM062X) =  -526.852771531     A.U. after    1 cycles

 Isotropic polarizability for W=    0.000000       31.73 Bohr**3.
 End of Minotr F.D. properties file   721 does not exist.

                      1                      2                      3
                      A                      A                      A
 Frequencies --     36.3552               239.2728               246.2664
 Red. masses --     14.4178                11.5628                 9.4011
 Frc consts  --      0.0112                 0.3900                 0.3359
 IR Inten    --      1.7146                 1.3588                 0.0815

                      4                      5                      6
                      A                      A                      A
 Frequencies --    394.6944               432.6667               513.0378
 Red. masses --     12.1010                15.4453                 4.4964
 Frc consts  --      1.1107                 1.7035                 0.6973
 IR Inten    --      2.1754                 0.0415                 4.4598

                      7                      8                      9
                      A                      A                      A
 Frequencies --    593.5430               600.9768               681.8547
 Red. masses --      1.4319                14.2456                 4.9041
 Frc consts  --      0.2972                 3.0314                 1.3434
 IR Inten    --    103.6974                 9.2737                79.0857

                     10                     11                     12
                      A                      A                      A
 Frequencies --    807.1374               824.7839              1179.4287
 Red. masses --      9.9856                 8.7371                 4.2051
 Frc consts  --      3.8328                 3.5018                 3.4464
 IR Inten    --     36.7538                 2.7942               311.7324

                     13                     14                     15
                      A                      A                      A
 Frequencies --   1245.3113              1247.8406              1312.8476
 Red. masses --      2.5529                13.1132                 7.0037
 Frc consts  --      2.3326                12.0303                 7.1123
 IR Inten    --    191.1747               297.7284               191.4883

                     16                     17                     18
                      A                      A                      A
 Frequencies --   1457.8651              1926.5606              3812.8063
 Red. masses --      5.4355                11.6959                 1.0647
 Frc consts  --      6.8065                25.5769                 9.1191
 IR Inten    --     54.8036               320.2546               124.1104

 - Thermochemistry -
 -------------------
 Temperature   298.150 Kelvin.  Pressure   1.00000 Atm.
 Atom     1 has atomic number  6 and mass  12.00000

 Molecular mass:   113.99286 amu.
 Principal axes and moments of inertia in atomic units:
                           1         2         3
     Eigenvalues --   463.58103 717.67111 865.41038
           X            0.99956   0.00967  -0.02808
           Y           -0.00828   0.99874   0.04946
           Z            0.02852  -0.04920   0.99838
 This molecule is an asymmetric top.
 Rotational symmetry number  1.
 Warning -- assumption of classical behavior for rotation
           may cause significant error
 Rotational temperatures (Kelvin)      0.18684     0.12069     0.10008
 Rotational constants (GHZ):           3.89304     2.51472     2.08542
 Zero-point vibrational energy     104991.7 (Joules/Mol)
                                   25.09363 (Kcal/Mol)
 Warning -- explicit consideration of   8 degrees of freedom as
           vibrations may cause significant error
 Vibrational temperatures:     52.31   344.26   354.32   567.88   622.51
          (Kelvin)            738.15   853.98   864.67   981.04  1161.29
                             1186.68  1696.93  1791.73  1795.36  1888.89
                             2097.54  2771.89  5485.78

 Zero-point correction=                           0.039989 (Hartree/Particle)
 Thermal correction to Energy=                    0.046141
 Thermal correction to Enthalpy=                  0.047086
 Thermal correction to Gibbs Free Energy=         0.008828
 Sum of electronic and zero-point Energies=           -526.812782
 Sum of electronic and thermal Energies=              -526.806630
 Sum of electronic and thermal Enthalpies=            -526.805686
 Sum of electronic and thermal Free Energies=         -526.843943

                     E (Thermal)             CV                S
                      KCal/Mol        Cal/Mol-Kelvin    Cal/Mol-Kelvin
 Total                   28.954             20.600             80.519
 Electronic               0.000              0.000              0.000
 Translational            0.889              2.981             40.108
 Rotational               0.889              2.981             27.156
 Vibrational             27.177             14.638             13.254
 Vibration     1          0.594              1.982              5.448
 Vibration     2          0.657              1.780              1.808
 Vibration     3          0.661              1.769              1.757
 Vibration     4          0.762              1.482              0.982
 Vibration     5          0.794              1.399              0.850
 Vibration     6          0.868              1.221              0.626
 Vibration     7          0.951              1.046              0.461
 Vibration     8          0.959              1.030              0.448

 Optimization completed.
    -- Stationary point found.
 Normal termination of Gaussian 16 at Sun May 25 04:23:43 2025.
