 Gaussian 16, Revision C.01,
 Gaussian 16:  ES64L-G16RevC.01  3-Jul-2019

 -----------------------------------------------------------------
 #P M062X/Def2TZVPP Symm(None) scf(xqc) pop(None) freq opt(CalcFC)
 -----------------------------------------------------------------

 ------------------------------
 Gaussian input prepared by ASE
 ------------------------------
 Symbolic Z-matrix:
 Charge =  0 Multiplicity = 1

 SCF Done:  E(RM062X) =  -526.850022323     A.U. after   13 cycles
 SCF Done:  E(RM062X) =  -526.852513910     A.U. after   13 cycles
 SCF Done:  E(RM062X) =  -526.852721053     A.U. after   15 cycles
 SCF Done:  E(RM062X) =  -526.852763372     A.U. after   11 cycles
 SCF Done:  E(RM062X) =  -526.852767866     A.U. after   11 cycles
 Optimization completed.
    -- Stationary point found.
 Normal termination of Gaussian 16 at Sun May 25 04:13:29 2025.

 ---------------------------------------------------------------------
 #P Geom=AllCheck Guess=TCheck SCRF=Check GenChk RM062X/def2TZVPP Freq
 ---------------------------------------------------------------------

 Structure from the checkpoint file:  "1141903082400600000001_intra_H_migration_2_8_IRC_F_prod.chk"
 ------------------------------
 Gaussian input prepared by ASE
 ------------------------------
 Charge =  0 Multiplicity = 1

                          Input orientation:
 ---------------------------------------------------------------------
 Center     Atomic      Atomic             Coordinates (Angstroms)
 Number     Number       Type             X           Y           Z
 ---------------------------------------------------------------------
      1          6           0       -0.319673    0.256672   -0.921398
      2          8           0        0.001629   -0.238658   -1.952262
      3          6           0        0.207270   -0.213516    0.451114
      4          9           0        1.044444   -1.221956    0.300139
      5          9           0        0.841037    0.781608    1.066511
      6          9           0       -0.803428   -0.606598    1.222067
      7          8           0       -1.161603    1.271291   -0.756366
      8          1           0       -1.478400    1.550110   -1.626512
 ---------------------------------------------------------------------

 SCF Done:  E(RM062X) =  -526.852767866     A.U. after    1 cycles

 Isotropic polarizability for W=    0.000000       31.72 Bohr**3.
 End of Minotr F.D. properties file   721 does not exist.

                      1                      2                      3
                      A                      A                      A
 Frequencies --     36.4615               238.9948               246.1409
 Red. masses --     14.3918                11.5715                 9.4513
 Frc consts  --      0.0113                 0.3894                 0.3374
 IR Inten    --      1.7223                 1.3314                 0.0879

                      4                      5                      6
                      A                      A                      A
 Frequencies --    394.6911               432.7394               513.4563
 Red. masses --     12.0839                15.4398                 4.6330
 Frc consts  --      1.1091                 1.7035                 0.7196
 IR Inten    --      2.1711                 0.0413                 4.0166

                      7                      8                      9
                      A                      A                      A
 Frequencies --    595.1623               600.9139               681.8164
 Red. masses --      1.4213                13.9661                 4.9050
 Frc consts  --      0.2966                 2.9713                 1.3435
 IR Inten    --    103.7090                 9.5163                79.0946

                     10                     11                     12
                      A                      A                      A
 Frequencies --    807.4778               825.0306              1179.5595
 Red. masses --      9.9400                 8.7240                 4.1631
 Frc consts  --      3.8185                 3.4987                 3.4128
 IR Inten    --     36.8883                 2.7974               310.8227

                     13                     14                     15
                      A                      A                      A
 Frequencies --   1245.2249              1248.3602              1313.9509
 Red. masses --      2.5580                13.1085                 7.0849
 Frc consts  --      2.3369                12.0360                 7.2068
 IR Inten    --    190.0153               297.6165               193.5802

                     16                     17                     18
                      A                      A                      A
 Frequencies --   1458.0272              1926.7099              3812.8448
 Red. masses --      5.4443                11.6970                 1.0647
 Frc consts  --      6.8190                25.5833                 9.1192
 IR Inten    --     54.9631               320.1776               123.8509

 - Thermochemistry -
 -------------------
 Temperature   298.150 Kelvin.  Pressure   1.00000 Atm.
 Atom     1 has atomic number  6 and mass  12.00000

 Molecular mass:   113.99286 amu.
 Principal axes and moments of inertia in atomic units:
                           1         2         3
     Eigenvalues --   463.56789 717.48183 865.19428
           X            0.38175  -0.52343   0.76177
           Y           -0.35637   0.67710   0.64385
           Z            0.85280   0.51726  -0.07195
 This molecule is an asymmetric top.
 Rotational symmetry number  1.
 Warning -- assumption of classical behavior for rotation
           may cause significant error
 Rotational temperatures (Kelvin)      0.18684     0.12072     0.10011
 Rotational constants (GHZ):           3.89315     2.51538     2.08594
 Zero-point vibrational energy     105017.5 (Joules/Mol)
                                   25.09980 (Kcal/Mol)
 Warning -- explicit consideration of   8 degrees of freedom as
           vibrations may cause significant error
 Vibrational temperatures:     52.46   343.86   354.14   567.87   622.62
          (Kelvin)            738.75   856.31   864.58   980.98  1161.78
                             1187.04  1697.12  1791.60  1796.11  1890.48
                             2097.78  2772.11  5485.83

 Zero-point correction=                           0.039999 (Hartree/Particle)
 Thermal correction to Energy=                    0.046150
 Thermal correction to Enthalpy=                  0.047094
 Thermal correction to Gibbs Free Energy=         0.008841
 Sum of electronic and zero-point Energies=           -526.812769
 Sum of electronic and thermal Energies=              -526.806618
 Sum of electronic and thermal Enthalpies=            -526.805674
 Sum of electronic and thermal Free Energies=         -526.843927

                     E (Thermal)             CV                S
                      KCal/Mol        Cal/Mol-Kelvin    Cal/Mol-Kelvin
 Total                   28.960             20.594             80.511
 Electronic               0.000              0.000              0.000
 Translational            0.889              2.981             40.108
 Rotational               0.889              2.981             27.156
 Vibrational             27.182             14.633             13.247
 Vibration     1          0.594              1.982              5.443
 Vibration     2          0.657              1.781              1.810
 Vibration     3          0.661              1.769              1.758
 Vibration     4          0.762              1.482              0.982
 Vibration     5          0.794              1.399              0.850
 Vibration     6          0.869              1.220              0.625
 Vibration     7          0.953              1.042              0.458
 Vibration     8          0.959              1.030              0.448

 Optimization completed.
    -- Stationary point found.
 Normal termination of Gaussian 16 at Sun May 25 04:14:44 2025.
