 Gaussian 16, Revision C.01,
 Gaussian 16:  ES64L-G16RevC.01  3-Jul-2019

 ----------------------------------------------------------------------
 #P M062X/Def2TZVPP Symm(None) scf(xqc) pop(None) geom(AllCheck,NoKeepC
 onstants) guess(Read) irc(RCFC,forward,MaxPoints=100,StepSize=2)
 ----------------------------------------------------------------------

 Structure from the checkpoint file:  "1141903082400600000001_r13_insertion_ROR_8_7_1_2_IRC_F.chk"
 ------------------------------
 Gaussian input prepared by ASE
 ------------------------------
 Charge =  0 Multiplicity = 1

 SCF Done:  E(RM062X) =  -526.620203979     A.U. after   10 cycles

                          Input orientation:
 ---------------------------------------------------------------------
 Center     Atomic      Atomic             Coordinates (Angstroms)
 Number     Number       Type             X           Y           Z
 ---------------------------------------------------------------------
      1          6           0       -0.628459   -0.031420    0.276763
      2          8           0       -2.783379   -0.036342    1.253565
      3          6           0        0.831778    0.063823   -0.183546
      4          9           0        1.642559   -0.153559    0.827813
      5          9           0        1.086534   -0.820319   -1.133429
      6          9           0        1.012732    1.284058   -0.652482
      7          8           0       -1.577867   -0.346065   -0.267678
      8          1           0       -3.741488   -0.163906    1.304333
 ---------------------------------------------------------------------

 Normal termination of Gaussian 16 at Sun May 25 04:37:30 2025.
