 Gaussian 16, Revision C.01,
 Gaussian 16:  ES64L-G16RevC.01  3-Jul-2019

 ----------------------------------------------------------------------
 #P M062X/Def2TZVPP Symm(None) scf(xqc) pop(None) opt(NoFreeze,TS,CalcA
 ll,NoEigentest,MaxCycle=999)
 ----------------------------------------------------------------------

 ------------------------------
 Gaussian input prepared by ASE
 ------------------------------
 Symbolic Z-matrix:
 Charge =  0 Multiplicity = 1

 SCF Done:  E(RM062X) =  -526.715452882     A.U. after   16 cycles
 SCF Done:  E(RM062X) =  -526.719221171     A.U. after   13 cycles
 SCF Done:  E(RM062X) =  -526.723705050     A.U. after   13 cycles
 SCF Done:  E(RM062X) =  -526.724629368     A.U. after   13 cycles
 SCF Done:  E(RM062X) =  -526.724687052     A.U. after   12 cycles
 SCF Done:  E(RM062X) =  -526.724687168     A.U. after    8 cycles

 Isotropic polarizability for W=    0.000000       36.15 Bohr**3.
 End of Minotr F.D. properties file   721 does not exist.

 Optimization completed.
    -- Stationary point found.

                          Input orientation:
 ---------------------------------------------------------------------
 Center     Atomic      Atomic             Coordinates (Angstroms)
 Number     Number       Type             X           Y           Z
 ---------------------------------------------------------------------
      1          6           0        1.638473   -0.127026    0.238919
      2          8           0        2.067874   -1.202448    0.468890
      3          6           0        0.042681   -0.133909   -0.520141
      4          9           0        0.678628    0.511095    1.286409
      5          9           0       -0.589994    0.877415   -0.966991
      6          9           0       -0.760569   -1.079024   -0.282026
      7          8           0        2.322016    0.916978   -0.260309
      8          1           0        1.920518    1.741194    0.034162
 ---------------------------------------------------------------------

 ******    1 imaginary frequencies (negative Signs) ******

                      1                      2                      3
                      A                      A                      A
 Frequencies --   -431.0528               109.7657               142.9903
 Red. masses --     13.6705                14.8250                11.9514
 Frc consts  --      1.4966                 0.1052                 0.1440
 IR Inten    --     24.5166                 1.7359                32.6904

                      4                      5                      6
                      A                      A                      A
 Frequencies --    162.2600               331.1638               367.5871
 Red. masses --     10.3644                 2.1305                 2.5746
 Frc consts  --      0.1608                 0.1377                 0.2050
 IR Inten    --      1.8200                58.5307                63.3635

                      7                      8                      9
                      A                      A                      A
 Frequencies --    412.5094               508.8944               577.3313
 Red. masses --      6.3127                 6.1623                11.7911
 Frc consts  --      0.6329                 0.9403                 2.3156
 IR Inten    --     20.6036                22.5134                34.9048

                     10                     11                     12
                      A                      A                      A
 Frequencies --    663.1451               713.9252               737.5877
 Red. masses --     10.1525                14.1656                12.8716
 Frc consts  --      2.6305                 4.2539                 4.1258
 IR Inten    --    168.1776                23.7761               238.0305

                     13                     14                     15
                      A                      A                      A
 Frequencies --   1094.1131              1268.0268              1374.8981
 Red. masses --      7.5713                 1.3604                10.9798
 Frc consts  --      5.3401                 1.2888                12.2289
 IR Inten    --    274.2464               279.6357               237.8609

                     16                     17                     18
                      A                      A                      A
 Frequencies --   1415.7979              1906.3376              3868.0215
 Red. masses --     12.8984                11.1149                 1.0656
 Frc consts  --     15.2331                23.7988                 9.3930
 IR Inten    --    189.7184               588.9302               102.6008

 - Thermochemistry -
 -------------------
 Temperature   298.150 Kelvin.  Pressure   1.00000 Atm.
 Atom     1 has atomic number  6 and mass  12.00000

 Molecular mass:   113.99286 amu.
 Principal axes and moments of inertia in atomic units:
                           1         2         3
     Eigenvalues --   450.72169 775.70945 933.41334
           X            0.94316   0.05862  -0.32714
           Y            0.03922   0.95781   0.28470
           Z            0.33002  -0.28134   0.90107
 This molecule is an asymmetric top.
 Rotational symmetry number  1.
 Warning -- assumption of classical behavior for rotation
           may cause significant error
 Rotational temperatures (Kelvin)      0.19217     0.11166     0.09279
 Rotational constants (GHZ):           4.00411     2.32657     1.93349
    1 imaginary frequencies ignored.
 Zero-point vibrational energy      93633.8 (Joules/Mol)
                                   22.37902 (Kcal/Mol)
 Warning -- explicit consideration of   8 degrees of freedom as
           vibrations may cause significant error
 Vibrational temperatures:    157.93   205.73   233.46   476.47   528.88
          (Kelvin)            593.51   732.19   830.65   954.12  1027.18
                             1061.22  1574.18  1824.41  1978.17  2037.02
                             2742.79  5565.22

 Zero-point correction=                           0.035663 (Hartree/Particle)
 Thermal correction to Energy=                    0.042291
 Thermal correction to Enthalpy=                  0.043235
 Thermal correction to Gibbs Free Energy=         0.004569
 Sum of electronic and zero-point Energies=           -526.689024
 Sum of electronic and thermal Energies=              -526.682396
 Sum of electronic and thermal Enthalpies=            -526.681452
 Sum of electronic and thermal Free Energies=         -526.720118

                     E (Thermal)             CV                S
                      KCal/Mol        Cal/Mol-Kelvin    Cal/Mol-Kelvin
 Total                   26.538             21.753             81.379
 Electronic               0.000              0.000              0.000
 Translational            0.889              2.981             40.108
 Rotational               0.889              2.981             27.281
 Vibrational             24.760             15.791             13.990
 Vibration     1          0.606              1.941              3.273
 Vibration     2          0.616              1.910              2.763
 Vibration     3          0.622              1.889              2.523
 Vibration     4          0.714              1.613              1.254
 Vibration     5          0.740              1.539              1.090
 Vibration     6          0.776              1.443              0.918
 Vibration     7          0.864              1.230              0.636
 Vibration     8          0.934              1.080              0.490

 Normal termination of Gaussian 16 at Sun May 25 03:49:01 2025.
