 Gaussian 16, Revision C.01,
 Gaussian 16:  ES64L-G16RevC.01  3-Jul-2019

 ----------------------------------------------------------------------
 #P M062X/Def2TZVPP Symm(None) scf(xqc) pop(None) geom(AllCheck,NoKeepC
 onstants) guess(Read) irc(RCFC,reverse,MaxPoints=100,StepSize=2)
 ----------------------------------------------------------------------

 Structure from the checkpoint file:  "1141903082400600000001_r13_insertion_ROR_4_3_1_7_IRC_R.chk"
 ------------------------------
 Gaussian input prepared by ASE
 ------------------------------
 Charge =  0 Multiplicity = 1

 SCF Done:  E(RM062X) =  -526.771476844     A.U. after    9 cycles
 SCF Done:  E(RM062X) =  -526.771553812     A.U. after   10 cycles
 SCF Done:  E(RM062X) =  -526.771680753     A.U. after   10 cycles
 SCF Done:  E(RM062X) =  -526.771855966     A.U. after   10 cycles
 SCF Done:  E(RM062X) =  -526.772077469     A.U. after   10 cycles
 SCF Done:  E(RM062X) =  -526.772343264     A.U. after   10 cycles
 SCF Done:  E(RM062X) =  -526.772651530     A.U. after   10 cycles
 SCF Done:  E(RM062X) =  -526.773000650     A.U. after   10 cycles
 SCF Done:  E(RM062X) =  -526.773389084     A.U. after   10 cycles
 SCF Done:  E(RM062X) =  -526.773815184     A.U. after   10 cycles
 SCF Done:  E(RM062X) =  -526.829132440     A.U. after    9 cycles
 SCF Done:  E(RM062X) =  -526.829635671     A.U. after    9 cycles
 SCF Done:  E(RM062X) =  -526.830130827     A.U. after    9 cycles
 SCF Done:  E(RM062X) =  -526.830617798     A.U. after    9 cycles
 SCF Done:  E(RM062X) =  -526.831096479     A.U. after    9 cycles
 SCF Done:  E(RM062X) =  -526.831566764     A.U. after    9 cycles
 SCF Done:  E(RM062X) =  -526.832028548     A.U. after    9 cycles
 SCF Done:  E(RM062X) =  -526.832481731     A.U. after    9 cycles
 SCF Done:  E(RM062X) =  -526.832926212     A.U. after    9 cycles
 SCF Done:  E(RM062X) =  -526.833361894     A.U. after    9 cycles

                          Input orientation:
 ---------------------------------------------------------------------
 Center     Atomic      Atomic             Coordinates (Angstroms)
 Number     Number       Type             X           Y           Z
 ---------------------------------------------------------------------
      1          6           0        2.339013    0.497654   -0.441309
      2          8           0        3.262528    1.111000   -0.600902
      3          6           0       -0.862255   -0.247083    0.160258
      4          9           0       -2.278048   -0.357912    0.434702
      5          9           0       -0.564733   -0.829192   -0.991915
      6          9           0       -0.158196   -0.887623    1.081619
      7          8           0       -0.706159    1.075373    0.166897
      8          1           0       -1.583819    1.427643    0.348868
 ---------------------------------------------------------------------

 Normal termination of Gaussian 16 at Sun May 25 05:11:42 2025.
