 Gaussian 16, Revision C.01,
 Gaussian 16:  ES64L-G16RevC.01  3-Jul-2019

 ----------------------------------------------------------------------
 #P M062X/Def2TZVPP Symm(None) scf(xqc) pop(None) geom(AllCheck,NoKeepC
 onstants) guess(Read) irc(RCFC,reverse,MaxPoints=100,StepSize=2)
 ----------------------------------------------------------------------

 Structure from the checkpoint file:  "1141903082400600000001_r12_insertion_R_8_7_1_IRC_R.chk"
 ------------------------------
 Gaussian input prepared by ASE
 ------------------------------
 Charge =  0 Multiplicity = 1

 SCF Done:  E(RM062X) =  -526.789184554     A.U. after    9 cycles
 SCF Done:  E(RM062X) =  -526.789283438     A.U. after   11 cycles
 SCF Done:  E(RM062X) =  -526.789447714     A.U. after   11 cycles
 SCF Done:  E(RM062X) =  -526.789676527     A.U. after   11 cycles
 SCF Done:  E(RM062X) =  -526.789968651     A.U. after   11 cycles
 SCF Done:  E(RM062X) =  -526.790322520     A.U. after   11 cycles
 SCF Done:  E(RM062X) =  -526.790736295     A.U. after   11 cycles
 SCF Done:  E(RM062X) =  -526.791207940     A.U. after   11 cycles
 SCF Done:  E(RM062X) =  -526.791735285     A.U. after   11 cycles
 SCF Done:  E(RM062X) =  -526.792316083     A.U. after   11 cycles
 SCF Done:  E(RM062X) =  -526.848497160     A.U. after    8 cycles
 SCF Done:  E(RM062X) =  -526.848687337     A.U. after    8 cycles
 SCF Done:  E(RM062X) =  -526.848870095     A.U. after    8 cycles
 SCF Done:  E(RM062X) =  -526.849045589     A.U. after    8 cycles
 SCF Done:  E(RM062X) =  -526.849213974     A.U. after    8 cycles
 SCF Done:  E(RM062X) =  -526.849375407     A.U. after    8 cycles
 SCF Done:  E(RM062X) =  -526.849530048     A.U. after    8 cycles
 SCF Done:  E(RM062X) =  -526.849678058     A.U. after    8 cycles
 SCF Done:  E(RM062X) =  -526.849819606     A.U. after    8 cycles
 SCF Done:  E(RM062X) =  -526.849954864     A.U. after    8 cycles

                          Input orientation:
 ---------------------------------------------------------------------
 Center     Atomic      Atomic             Coordinates (Angstroms)
 Number     Number       Type             X           Y           Z
 ---------------------------------------------------------------------
      1          6           0        0.978632    0.168802   -0.081053
      2          8           0        1.631734   -0.160155   -1.017698
      3          6           0       -0.559814   -0.098503   -0.001126
      4          9           0       -1.223975    0.876147    0.607648
      5          9           0       -1.040446   -0.232840   -1.226596
      6          9           0       -0.781202   -1.232471    0.662482
      7          8           0        1.516383    0.755818    0.978335
      8          1           0        2.463040    0.815647    0.782576
 ---------------------------------------------------------------------

 Normal termination of Gaussian 16 at Sun May 25 04:13:44 2025.
