 Gaussian 16, Revision C.01,
 Gaussian 16:  ES64L-G16RevC.01  3-Jul-2019

 ----------------------------------------------------------------------
 #P M062X/Def2TZVPP Symm(None) scf(xqc) pop(None) opt(NoFreeze,TS,CalcA
 ll,NoEigentest,MaxCycle=999)
 ----------------------------------------------------------------------

 ------------------------------
 Gaussian input prepared by ASE
 ------------------------------
 Symbolic Z-matrix:
 Charge =  0 Multiplicity = 1

 SCF Done:  E(RM062X) =  -526.776325607     A.U. after   13 cycles
 SCF Done:  E(RM062X) =  -526.788533209     A.U. after   16 cycles
 SCF Done:  E(RM062X) =  -526.789135547     A.U. after   15 cycles
 SCF Done:  E(RM062X) =  -526.789150349     A.U. after   12 cycles
 SCF Done:  E(RM062X) =  -526.789152458     A.U. after   13 cycles
 SCF Done:  E(RM062X) =  -526.789152679     A.U. after    9 cycles

 Isotropic polarizability for W=    0.000000       32.21 Bohr**3.
 End of Minotr F.D. properties file   721 does not exist.

 Optimization completed on the basis of negligible forces.
    -- Stationary point found.

                          Input orientation:
 ---------------------------------------------------------------------
 Center     Atomic      Atomic             Coordinates (Angstroms)
 Number     Number       Type             X           Y           Z
 ---------------------------------------------------------------------
      1          6           0        1.483313    0.286460    0.015261
      2          8           0        2.338393   -0.541775   -0.378500
      3          6           0       -0.021832    0.012297    0.013122
      4          9           0       -0.626622    0.722016    0.950101
      5          9           0       -0.513728    0.355899   -1.172445
      6          9           0       -0.261219   -1.271336    0.220818
      7          8           0        1.989899    1.375761    0.374185
      8          1           0        2.931419    0.564952   -0.023629
 ---------------------------------------------------------------------

 ******    1 imaginary frequencies (negative Signs) ******

                      1                      2                      3
                      A                      A                      A
 Frequencies --  -1995.7488                 8.4265               225.6215
 Red. masses --      1.0987                16.7429                14.7365
 Frc consts  --      2.5784                 0.0007                 0.4420
 IR Inten    --    381.8076                 0.0668                 0.8668

                      4                      5                      6
                      A                      A                      A
 Frequencies --    232.0587               415.4182               427.8707
 Red. masses --     10.7936                14.4786                16.8734
 Frc consts  --      0.3425                 1.4721                 1.8200
 IR Inten    --      1.8509                 0.4713                 0.1331

                      7                      8                      9
                      A                      A                      A
 Frequencies --    517.0311               600.5397               746.5815
 Red. masses --     13.3978                17.2303                 5.8985
 Frc consts  --      2.1102                 3.6612                 1.9371
 IR Inten    --      3.5721                 3.4412                 0.4790

                     10                     11                     12
                      A                      A                      A
 Frequencies --    780.6126               973.3656              1176.1688
 Red. masses --     16.8849                14.3467                 1.2472
 Frc consts  --      6.0621                 8.0086                 1.0166
 IR Inten    --     36.0025                73.5797                70.8729

                     13                     14                     15
                      A                      A                      A
 Frequencies --   1258.7921              1275.1201              1301.2074
 Red. masses --     12.5614                12.5160                13.1119
 Frc consts  --     11.7273                11.9900                13.0800
 IR Inten    --    273.3088               306.7508               293.5343

                     16                     17                     18
                      A                      A                      A
 Frequencies --   1604.3344              1732.2607              2237.5500
 Red. masses --      7.3676                 8.4519                 1.0971
 Frc consts  --     11.1729                14.9428                 3.2364
 IR Inten    --     35.9198               507.4506                76.5695

 - Thermochemistry -
 -------------------
 Temperature   298.150 Kelvin.  Pressure   1.00000 Atm.
 Atom     1 has atomic number  6 and mass  12.00000

 Molecular mass:   113.99286 amu.
 Principal axes and moments of inertia in atomic units:
                           1         2         3
     Eigenvalues --   439.88713 757.37204 881.52203
           X            0.98311  -0.16751   0.07366
           Y            0.18280   0.91770  -0.35271
           Z           -0.00852   0.36022   0.93283
 This molecule is an asymmetric top.
 Rotational symmetry number  1.
 Warning -- assumption of classical behavior for rotation
           may cause significant error
 Rotational temperatures (Kelvin)      0.19690     0.11436     0.09825
 Rotational constants (GHZ):           4.10274     2.38290     2.04730
    1 imaginary frequencies ignored.
 Zero-point vibrational energy      92788.1 (Joules/Mol)
                                   22.17689 (Kcal/Mol)
 Warning -- explicit consideration of   7 degrees of freedom as
           vibrations may cause significant error
 Vibrational temperatures:     12.12   324.62   333.88   597.69   615.61
          (Kelvin)            743.89   864.04  1074.16  1123.13  1400.46
                             1692.24  1811.12  1834.61  1872.15  2308.28
                             2492.34  3219.34

 Zero-point correction=                           0.035341 (Hartree/Particle)
 Thermal correction to Energy=                    0.041363
 Thermal correction to Enthalpy=                  0.042307
 Thermal correction to Gibbs Free Energy=         0.002879
 Sum of electronic and zero-point Energies=           -526.753812
 Sum of electronic and thermal Energies=              -526.747790
 Sum of electronic and thermal Enthalpies=            -526.746846
 Sum of electronic and thermal Free Energies=         -526.786273

                     E (Thermal)             CV                S
                      KCal/Mol        Cal/Mol-Kelvin    Cal/Mol-Kelvin
 Total                   25.955             19.253             82.982
 Electronic               0.000              0.000              0.000
 Translational            0.889              2.981             40.108
 Rotational               0.889              2.981             27.176
 Vibrational             24.178             13.291             15.698
 Vibration     1          0.593              1.987              8.351
 Vibration     2          0.650              1.802              1.914
 Vibration     3          0.653              1.792              1.863
 Vibration     4          0.779              1.437              0.908
 Vibration     5          0.789              1.410              0.866
 Vibration     6          0.872              1.212              0.617
 Vibration     7          0.959              1.031              0.449

 Normal termination of Gaussian 16 at Sun May 25 04:01:49 2025.
