 Gaussian 16, Revision C.01,
 Gaussian 16:  ES64L-G16RevC.01  3-Jul-2019

 -----------------------------------------------------------------
 #P M062X/Def2TZVPP Symm(None) scf(xqc) pop(None) freq opt(CalcFC)
 -----------------------------------------------------------------

 ------------------------------
 Gaussian input prepared by ASE
 ------------------------------
 Symbolic Z-matrix:
 Charge =  0 Multiplicity = 1

 SCF Done:  E(RM062X) =  -526.852771029     A.U. after   13 cycles
 SCF Done:  E(RM062X) =  -526.852771540     A.U. after    9 cycles
 Optimization completed.
    -- Stationary point found.
 Normal termination of Gaussian 16 at Sun May 25 04:15:18 2025.

 ---------------------------------------------------------------------
 #P Geom=AllCheck Guess=TCheck SCRF=Check GenChk RM062X/def2TZVPP Freq
 ---------------------------------------------------------------------

 Structure from the checkpoint file:  "1141903082400600000001_r12_insertion_R_3_1_7_IRC_R_prod.chk"
 ------------------------------
 Gaussian input prepared by ASE
 ------------------------------
 Charge =  0 Multiplicity = 1

                          Input orientation:
 ---------------------------------------------------------------------
 Center     Atomic      Atomic             Coordinates (Angstroms)
 Number     Number       Type             X           Y           Z
 ---------------------------------------------------------------------
      1          6           0        0.988472   -0.132109    0.036011
      2          8           0        1.557654   -1.172713    0.102900
      3          6           0       -0.549309   -0.004991   -0.016013
      4          9           0       -0.987706    0.706420    1.019490
      5          9           0       -0.923137    0.610196   -1.135028
      6          9           0       -1.109594   -1.198872    0.020567
      7          8           0        1.542466    1.075002   -0.005078
      8          1           0        2.503429    0.971657    0.028629
 ---------------------------------------------------------------------

 SCF Done:  E(RM062X) =  -526.852771539     A.U. after    1 cycles

 Isotropic polarizability for W=    0.000000       31.73 Bohr**3.
 End of Minotr F.D. properties file   721 does not exist.

                      1                      2                      3
                      A                      A                      A
 Frequencies --     36.3486               239.2749               246.2663
 Red. masses --     14.4190                11.5629                 9.3956
 Frc consts  --      0.0112                 0.3900                 0.3357
 IR Inten    --      1.7131                 1.3584                 0.0808

                      4                      5                      6
                      A                      A                      A
 Frequencies --    394.6924               432.6663               512.9812
 Red. masses --     12.1005                15.4455                 4.4814
 Frc consts  --      1.1106                 1.7036                 0.6948
 IR Inten    --      2.1759                 0.0415                 4.5121

                      7                      8                      9
                      A                      A                      A
 Frequencies --    593.3493               600.9827               681.8514
 Red. masses --      1.4334                14.2560                 4.9045
 Frc consts  --      0.2973                 3.0337                 1.3435
 IR Inten    --    103.6820                 9.2647                79.0737

                     10                     11                     12
                      A                      A                      A
 Frequencies --    807.1244               824.7771              1179.3879
 Red. masses --      9.9917                 8.7374                 4.2069
 Frc consts  --      3.8351                 3.5019                 3.4476
 IR Inten    --     36.7277                 2.7938               311.7718

                     13                     14                     15
                      A                      A                      A
 Frequencies --   1245.3037              1247.8208              1312.8073
 Red. masses --      2.5528                13.1116                 6.9990
 Frc consts  --      2.3325                12.0284                 7.1070
 IR Inten    --    191.2427               297.7277               191.4132

                     16                     17                     18
                      A                      A                      A
 Frequencies --   1457.8463              1926.5228              3812.7891
 Red. masses --      5.4353                11.6956                 1.0647
 Frc consts  --      6.8061                25.5753                 9.1190
 IR Inten    --     54.7967               320.2297               124.1140

 - Thermochemistry -
 -------------------
 Temperature   298.150 Kelvin.  Pressure   1.00000 Atm.
 Atom     1 has atomic number  6 and mass  12.00000

 Molecular mass:   113.99286 amu.
 Principal axes and moments of inertia in atomic units:
                           1         2         3
     Eigenvalues --   463.58278 717.67200 865.41289
           X            0.99952   0.00877  -0.02987
           Y           -0.00734   0.99883   0.04779
           Z            0.03026  -0.04754   0.99841
 This molecule is an asymmetric top.
 Rotational symmetry number  1.
 Warning -- assumption of classical behavior for rotation
           may cause significant error
 Rotational temperatures (Kelvin)      0.18684     0.12069     0.10008
 Rotational constants (GHZ):           3.89303     2.51472     2.08541
 Zero-point vibrational energy     104989.0 (Joules/Mol)
                                   25.09298 (Kcal/Mol)
 Warning -- explicit consideration of   8 degrees of freedom as
           vibrations may cause significant error
 Vibrational temperatures:     52.30   344.26   354.32   567.87   622.51
          (Kelvin)            738.07   853.70   864.68   981.03  1161.27
                             1186.67  1696.88  1791.71  1795.34  1888.84
                             2097.52  2771.84  5485.75

 Zero-point correction=                           0.039988 (Hartree/Particle)
 Thermal correction to Energy=                    0.046141
 Thermal correction to Enthalpy=                  0.047085
 Thermal correction to Gibbs Free Energy=         0.008827
 Sum of electronic and zero-point Energies=           -526.812783
 Sum of electronic and thermal Energies=              -526.806631
 Sum of electronic and thermal Enthalpies=            -526.805687
 Sum of electronic and thermal Free Energies=         -526.843944

                     E (Thermal)             CV                S
                      KCal/Mol        Cal/Mol-Kelvin    Cal/Mol-Kelvin
 Total                   28.954             20.601             80.520
 Electronic               0.000              0.000              0.000
 Translational            0.889              2.981             40.108
 Rotational               0.889              2.981             27.156
 Vibrational             27.176             14.639             13.255
 Vibration     1          0.594              1.982              5.449
 Vibration     2          0.657              1.780              1.808
 Vibration     3          0.661              1.769              1.757
 Vibration     4          0.762              1.482              0.982
 Vibration     5          0.794              1.399              0.850
 Vibration     6          0.868              1.221              0.626
 Vibration     7          0.951              1.046              0.461
 Vibration     8          0.959              1.030              0.448

 Optimization completed.
    -- Stationary point found.
 Normal termination of Gaussian 16 at Sun May 25 04:16:33 2025.
