 Gaussian 16, Revision C.01,
 Gaussian 16:  ES64L-G16RevC.01  3-Jul-2019

 ----------------------------------------------------------------------
 #P M062X/Def2TZVPP Symm(None) scf(xqc) pop(None) geom(AllCheck,NoKeepC
 onstants) guess(Read) irc(RCFC,reverse,MaxPoints=100,StepSize=2)
 ----------------------------------------------------------------------

 Structure from the checkpoint file:  "1141903082400600000001_intra_H_migration_1_8_IRC_R.chk"
 ------------------------------
 Gaussian input prepared by ASE
 ------------------------------
 Charge =  0 Multiplicity = 1

 SCF Done:  E(RM062X) =  -526.789185644     A.U. after    9 cycles
 SCF Done:  E(RM062X) =  -526.789284391     A.U. after   11 cycles
 SCF Done:  E(RM062X) =  -526.789448371     A.U. after   11 cycles
 SCF Done:  E(RM062X) =  -526.789676717     A.U. after   11 cycles
 SCF Done:  E(RM062X) =  -526.789968239     A.U. after   11 cycles
 SCF Done:  E(RM062X) =  -526.790321422     A.U. after   11 cycles
 SCF Done:  E(RM062X) =  -526.790734461     A.U. after   11 cycles
 SCF Done:  E(RM062X) =  -526.791205328     A.U. after   11 cycles
 SCF Done:  E(RM062X) =  -526.791731843     A.U. after   11 cycles
 SCF Done:  E(RM062X) =  -526.792311749     A.U. after   11 cycles
 SCF Done:  E(RM062X) =  -526.848341471     A.U. after    8 cycles
 SCF Done:  E(RM062X) =  -526.848530678     A.U. after    8 cycles
 SCF Done:  E(RM062X) =  -526.848712457     A.U. after    8 cycles
 SCF Done:  E(RM062X) =  -526.848886963     A.U. after    8 cycles
 SCF Done:  E(RM062X) =  -526.849054354     A.U. after    8 cycles
 SCF Done:  E(RM062X) =  -526.849214788     A.U. after    8 cycles
 SCF Done:  E(RM062X) =  -526.849368425     A.U. after    8 cycles
 SCF Done:  E(RM062X) =  -526.849515429     A.U. after    8 cycles
 SCF Done:  E(RM062X) =  -526.849655970     A.U. after    8 cycles
 SCF Done:  E(RM062X) =  -526.849790221     A.U. after    8 cycles

                          Input orientation:
 ---------------------------------------------------------------------
 Center     Atomic      Atomic             Coordinates (Angstroms)
 Number     Number       Type             X           Y           Z
 ---------------------------------------------------------------------
      1          6           0        0.989956    0.110260   -0.012427
      2          8           0        1.735524   -0.730172   -0.399896
      3          6           0       -0.558243   -0.105458    0.011361
      4          9           0       -1.174276    0.603367    0.948129
      5          9           0       -1.065463    0.236257   -1.172377
      6          9           0       -0.813926   -1.388119    0.218460
      7          8           0        1.417730    1.297897    0.390022
      8          1           0        2.379562    1.272256    0.278504
 ---------------------------------------------------------------------

 Normal termination of Gaussian 16 at Sun May 25 04:23:38 2025.
