 Gaussian 16, Revision C.01,
 Gaussian 16:  ES64L-G16RevC.01  3-Jul-2019

 ----------------------------------------------------------------------
 #P M062X/Def2TZVPP Symm(None) scf(xqc) pop(None) opt(NoFreeze,TS,CalcA
 ll,NoEigentest,MaxCycle=999)
 ----------------------------------------------------------------------

 ------------------------------
 Gaussian input prepared by ASE
 ------------------------------
 Symbolic Z-matrix:
 Charge =  0 Multiplicity = 1

 SCF Done:  E(RM062X) =  -526.545658309     A.U. after   25 cycles
 SCF Done:  E(RM062X) =  -526.578031670     A.U. after   21 cycles
 SCF Done:  E(RM062X) =  -526.613597048     A.U. after   20 cycles
 SCF Done:  E(RM062X) =  -526.636396516     A.U. after   20 cycles
 SCF Done:  E(RM062X) =  -526.635442646     A.U. after   20 cycles
 SCF Done:  E(RM062X) =  -526.628045595     A.U. after   20 cycles
 SCF Done:  E(RM062X) =  -526.628025167     A.U. after   19 cycles
 SCF Done:  E(RM062X) =  -526.621115401     A.U. after   20 cycles
 SCF Done:  E(RM062X) =  -526.625596972     A.U. after   20 cycles
 SCF Done:  E(RM062X) =  -526.619463278     A.U. after   20 cycles
 SCF Done:  E(RM062X) =  -526.620518381     A.U. after   20 cycles
 SCF Done:  E(RM062X) =  -526.615604514     A.U. after   20 cycles
 SCF Done:  E(RM062X) =  -526.607665240     A.U. after   25 cycles
 SCF Done:  E(RM062X) =  -526.605189249     A.U. after   29 cycles
 SCF Done:  E(RM062X) =  -526.605691689     A.U. after   32 cycles
 SCF Done:  E(RM062X) =  -526.605728637     A.U. after   23 cycles
 SCF Done:  E(RM062X) =  -526.605735232     A.U. after   20 cycles
 SCF Done:  E(RM062X) =  -526.605737662     A.U. after   19 cycles
 SCF Done:  E(RM062X) =  -526.605738415     A.U. after   18 cycles

 Isotropic polarizability for W=    0.000000       66.69 Bohr**3.
 End of Minotr F.D. properties file   721 does not exist.

 Optimization completed.
    -- Stationary point found.

                          Input orientation:
 ---------------------------------------------------------------------
 Center     Atomic      Atomic             Coordinates (Angstroms)
 Number     Number       Type             X           Y           Z
 ---------------------------------------------------------------------
      1          6           0        1.815615   -0.158584    0.230808
      2          8           0        2.549666   -1.038172    0.551924
      3          6           0        0.344261   -0.432831    0.040811
      4          9           0       -0.473155    0.421400   -0.287565
      5          9           0       -1.909027    1.918085   -0.866508
      6          9           0       -0.079477   -1.607119    0.226804
      7          8           0        2.063874    1.110201   -0.008967
      8          1           0        3.007869    1.291300    0.111606
 ---------------------------------------------------------------------

 ******    2 imaginary frequencies (negative Signs) ******

                      1                      2                      3
                      A                      A                      A
 Frequencies --   -301.5292               -33.6844                62.9023
 Red. masses --     18.7621                14.2927                14.9722
 Frc consts  --      1.0051                 0.0096                 0.0349
 IR Inten    --      3.5049                15.7096                 8.7216

                      4                      5                      6
                      A                      A                      A
 Frequencies --    219.0535               277.2870               379.2013
 Red. masses --     12.4949                16.0413                 4.0278
 Frc consts  --      0.3533                 0.7267                 0.3412
 IR Inten    --      6.9757                 9.2845                 0.4563

                      7                      8                      9
                      A                      A                      A
 Frequencies --    414.6432               536.3200               581.4977
 Red. masses --     11.5549                12.2926                 1.3347
 Frc consts  --      1.1705                 2.0832                 0.2659
 IR Inten    --      2.2648                 8.0495               160.2595

                     10                     11                     12
                      A                      A                      A
 Frequencies --    647.8231               769.0820               825.3653
 Red. masses --      5.7840                11.2261                 6.3535
 Frc consts  --      1.4302                 3.9122                 2.5501
 IR Inten    --    104.8211                 6.7508                18.4086

                     13                     14                     15
                      A                      A                      A
 Frequencies --   1176.0317              1355.2026              1474.5128
 Red. masses --      2.2879                 3.2179                 8.5839
 Frc consts  --      1.8643                 3.4820                10.9959
 IR Inten    --    194.8482               154.7445               728.4377

                     16                     17                     18
                      A                      A                      A
 Frequencies --   1649.0865              1890.9581              3797.4465
 Red. masses --     13.1398                12.5915                 1.0650
 Frc consts  --     21.0535                26.5272                 9.0490
 IR Inten    --     63.9671               537.3287               251.2869

 - Thermochemistry -
 -------------------
 Temperature   298.150 Kelvin.  Pressure   1.00000 Atm.
 Atom     1 has atomic number  6 and mass  12.00000

 Molecular mass:   113.99286 amu.
 Principal axes and moments of inertia in atomic units:
                           1         2         3
     Eigenvalues --   424.805551193.566421618.37133
           X            0.84193   0.51387  -0.16458
           Y           -0.47822   0.85190   0.21347
           Z            0.24990  -0.10102   0.96299
 This molecule is an asymmetric top.
 Rotational symmetry number  1.
 Rotational temperatures (Kelvin)      0.20389     0.07257     0.05352
 Rotational constants (GHZ):           4.24839     1.51206     1.11516
    2 imaginary frequencies ignored.
 Zero-point vibrational energy      96038.7 (Joules/Mol)
                                   22.95380 (Kcal/Mol)
 Warning -- explicit consideration of   7 degrees of freedom as
           vibrations may cause significant error
 Vibrational temperatures:     90.50   315.17   398.95   545.59   596.58
          (Kelvin)            771.64   836.65   932.07  1106.54  1187.52
                             1692.05  1949.83  2121.50  2372.67  2720.67
                             5463.68

 Zero-point correction=                           0.036579 (Hartree/Particle)
 Thermal correction to Energy=                    0.042526
 Thermal correction to Enthalpy=                  0.043471
 Thermal correction to Gibbs Free Energy=         0.005422
 Sum of electronic and zero-point Energies=           -526.569159
 Sum of electronic and thermal Energies=              -526.563212
 Sum of electronic and thermal Enthalpies=            -526.562268
 Sum of electronic and thermal Free Energies=         -526.600317

                     E (Thermal)             CV                S
                      KCal/Mol        Cal/Mol-Kelvin    Cal/Mol-Kelvin
 Total                   26.686             19.388             80.080
 Electronic               0.000              0.000              0.000
 Translational            0.889              2.981             40.108
 Rotational               0.889              2.981             28.197
 Vibrational             24.908             13.427             11.775
 Vibration     1          0.597              1.972              4.364
 Vibration     2          0.647              1.812              1.967
 Vibration     3          0.678              1.715              1.550
 Vibration     4          0.749              1.514              1.042
 Vibration     5          0.778              1.438              0.910
 Vibration     6          0.891              1.170              0.573
 Vibration     7          0.938              1.071              0.483

 Normal termination of Gaussian 16 at Sun May 25 04:02:47 2025.
