 Gaussian 16, Revision C.01,
 Gaussian 16:  ES64L-G16RevC.01  3-Jul-2019

 ----------------------------------------------------------------------
 #P M062X/Def2TZVPP Symm(None) scf(xqc) pop(None) geom(AllCheck,NoKeepC
 onstants) guess(Read) irc(RCFC,forward,MaxPoints=100,StepSize=2)
 ----------------------------------------------------------------------

 Structure from the checkpoint file:  "1141903082400600000001_r12_insertion_R_3_1_2_IRC_F.chk"
 ------------------------------
 Gaussian input prepared by ASE
 ------------------------------
 Charge =  0 Multiplicity = 1

 SCF Done:  E(RM062X) =  -526.691387245     A.U. after   10 cycles
 SCF Done:  E(RM062X) =  -526.691556373     A.U. after   12 cycles
 SCF Done:  E(RM062X) =  -526.691836048     A.U. after   12 cycles
 SCF Done:  E(RM062X) =  -526.692224256     A.U. after   12 cycles
 SCF Done:  E(RM062X) =  -526.692718351     A.U. after   12 cycles
 SCF Done:  E(RM062X) =  -526.693315118     A.U. after   12 cycles
 SCF Done:  E(RM062X) =  -526.694010846     A.U. after   11 cycles
 SCF Done:  E(RM062X) =  -526.694801427     A.U. after   11 cycles
 SCF Done:  E(RM062X) =  -526.695682445     A.U. after   11 cycles
 SCF Done:  E(RM062X) =  -526.696649267     A.U. after   11 cycles
 SCF Done:  E(RM062X) =  -526.783356947     A.U. after    9 cycles
 SCF Done:  E(RM062X) =  -526.783521098     A.U. after    9 cycles
 SCF Done:  E(RM062X) =  -526.783671786     A.U. after    9 cycles
 SCF Done:  E(RM062X) =  -526.783682091     A.U. after    9 cycles
 SCF Done:  E(RM062X) =  -526.783833296     A.U. after    9 cycles
 SCF Done:  E(RM062X) =  -526.783979472     A.U. after    9 cycles
 SCF Done:  E(RM062X) =  -526.784117724     A.U. after    9 cycles
 SCF Done:  E(RM062X) =  -526.784249403     A.U. after    9 cycles
 SCF Done:  E(RM062X) =  -526.784374522     A.U. after    9 cycles
 SCF Done:  E(RM062X) =  -526.784493271     A.U. after    9 cycles

                          Input orientation:
 ---------------------------------------------------------------------
 Center     Atomic      Atomic             Coordinates (Angstroms)
 Number     Number       Type             X           Y           Z
 ---------------------------------------------------------------------
      1          6           0        1.255653    0.495158    0.850229
      2          8           0        0.706453    0.103456   -0.332227
      3          6           0       -0.614844   -0.274407   -0.213468
      4          9           0       -1.318776    0.706592    0.321542
      5          9           0       -1.072110   -0.518653   -1.426022
      6          9           0       -0.752072   -1.358491    0.523502
      7          8           0        2.383475    1.053547    0.568570
      8          1           0        2.571045    1.079067   -0.389991
 ---------------------------------------------------------------------

 Normal termination of Gaussian 16 at Sun May 25 04:18:50 2025.
