 Gaussian 16, Revision C.01,
 Gaussian 16:  ES64L-G16RevC.01  3-Jul-2019

 -----------------------------------------------------------------
 #P M062X/Def2TZVPP Symm(None) scf(xqc) pop(None) freq opt(CalcFC)
 -----------------------------------------------------------------

 ------------------------------
 Gaussian input prepared by ASE
 ------------------------------
 Symbolic Z-matrix:
 Charge =  0 Multiplicity = 1

 SCF Done:  E(RM062X) =  -526.849801315     A.U. after   13 cycles
 SCF Done:  E(RM062X) =  -526.852233424     A.U. after   13 cycles
 SCF Done:  E(RM062X) =  -526.852650740     A.U. after   15 cycles
 SCF Done:  E(RM062X) =  -526.852755436     A.U. after   10 cycles
 SCF Done:  E(RM062X) =  -526.852760728     A.U. after   12 cycles
 SCF Done:  E(RM062X) =  -526.852770644     A.U. after   11 cycles
 SCF Done:  E(RM062X) =  -526.852770687     A.U. after    8 cycles
 SCF Done:  E(RM062X) =  -526.852770699     A.U. after    7 cycles
 Optimization completed.
    -- Stationary point found.
 Normal termination of Gaussian 16 at Sun May 25 04:10:54 2025.

 ---------------------------------------------------------------------
 #P Geom=AllCheck Guess=TCheck SCRF=Check GenChk RM062X/def2TZVPP Freq
 ---------------------------------------------------------------------

 Structure from the checkpoint file:  "1141903082400600000001_intra_H_migration_suprafacial_2_8_IRC_F_prod.chk"
 ------------------------------
 Gaussian input prepared by ASE
 ------------------------------
 Charge =  0 Multiplicity = 1

                          Input orientation:
 ---------------------------------------------------------------------
 Center     Atomic      Atomic             Coordinates (Angstroms)
 Number     Number       Type             X           Y           Z
 ---------------------------------------------------------------------
      1          6           0       -0.164018    0.635367   -0.767278
      2          8           0       -0.556690   -0.111240   -1.793976
      3          6           0        0.084620   -0.259131    0.466317
      4          9           0        1.020843   -1.165454    0.197382
      5          9           0        0.481957    0.471894    1.490232
      6          9           0       -1.032585   -0.898458    0.803663
      7          8           0       -0.016297    1.814115   -0.761926
      8          1           0       -0.707762    0.468260   -2.553324
 ---------------------------------------------------------------------

 SCF Done:  E(RM062X) =  -526.852770699     A.U. after    1 cycles

 Isotropic polarizability for W=    0.000000       31.74 Bohr**3.
 End of Minotr F.D. properties file   721 does not exist.

                      1                      2                      3
                      A                      A                      A
 Frequencies --     37.6444               238.3988               245.9733
 Red. masses --     14.4152                11.5653                 9.4436
 Frc consts  --      0.0120                 0.3873                 0.3366
 IR Inten    --      1.7247                 1.3834                 0.0875

                      4                      5                      6
                      A                      A                      A
 Frequencies --    394.4679               432.5104               513.5551
 Red. masses --     12.0890                15.4451                 4.6163
 Frc consts  --      1.1083                 1.7023                 0.7173
 IR Inten    --      2.1702                 0.0399                 4.0731

                      7                      8                      9
                      A                      A                      A
 Frequencies --    595.0977               600.7841               681.4111
 Red. masses --      1.4234                13.8699                 4.8921
 Frc consts  --      0.2970                 2.9496                 1.3383
 IR Inten    --    103.6370                 9.6481                79.3044

                     10                     11                     12
                      A                      A                      A
 Frequencies --    807.3812               824.5700              1178.9188
 Red. masses --      9.9454                 8.7235                 4.1440
 Frc consts  --      3.8197                 3.4946                 3.3934
 IR Inten    --     36.9148                 2.7725               311.2920

                     13                     14                     15
                      A                      A                      A
 Frequencies --   1244.6537              1248.0493              1312.8631
 Red. masses --      2.6155                11.8616                 7.1590
 Frc consts  --      2.3873                10.8857                 7.2701
 IR Inten    --    191.9852               294.7805               193.7532

                     16                     17                     18
                      A                      A                      A
 Frequencies --   1456.9616              1926.5699              3810.1816
 Red. masses --      5.4370                11.7002                 1.0647
 Frc consts  --      6.7999                25.5866                 9.1065
 IR Inten    --     55.0772               321.0188               124.1921

 - Thermochemistry -
 -------------------
 Temperature   298.150 Kelvin.  Pressure   1.00000 Atm.
 Atom     1 has atomic number  6 and mass  12.00000

 Molecular mass:   113.99286 amu.
 Principal axes and moments of inertia in atomic units:
                           1         2         3
     Eigenvalues --   463.58712 717.68281 865.42437
           X            0.18000   0.24299   0.95318
           Y           -0.51717   0.84765  -0.11842
           Z            0.83674   0.47164  -0.27824
 This molecule is an asymmetric top.
 Rotational symmetry number  1.
 Warning -- assumption of classical behavior for rotation
           may cause significant error
 Rotational temperatures (Kelvin)      0.18683     0.12069     0.10008
 Rotational constants (GHZ):           3.89299     2.51468     2.08538
 Zero-point vibrational energy     104972.3 (Joules/Mol)
                                   25.08897 (Kcal/Mol)
 Warning -- explicit consideration of   8 degrees of freedom as
           vibrations may cause significant error
 Vibrational temperatures:     54.16   343.00   353.90   567.55   622.29
          (Kelvin)            738.89   856.21   864.39   980.40  1161.64
                             1186.37  1696.20  1790.78  1795.66  1888.92
                             2096.24  2771.90  5482.00

 Zero-point correction=                           0.039982 (Hartree/Particle)
 Thermal correction to Energy=                    0.046132
 Thermal correction to Enthalpy=                  0.047077
 Thermal correction to Gibbs Free Energy=         0.008849
 Sum of electronic and zero-point Energies=           -526.812789
 Sum of electronic and thermal Energies=              -526.806638
 Sum of electronic and thermal Enthalpies=            -526.805694
 Sum of electronic and thermal Free Energies=         -526.843922

                     E (Thermal)             CV                S
                      KCal/Mol        Cal/Mol-Kelvin    Cal/Mol-Kelvin
 Total                   28.949             20.600             80.457
 Electronic               0.000              0.000              0.000
 Translational            0.889              2.981             40.108
 Rotational               0.889              2.981             27.157
 Vibrational             27.171             14.638             13.192
 Vibration     1          0.594              1.982              5.379
 Vibration     2          0.656              1.782              1.815
 Vibration     3          0.660              1.769              1.759
 Vibration     4          0.761              1.482              0.983
 Vibration     5          0.793              1.399              0.850
 Vibration     6          0.869              1.220              0.625
 Vibration     7          0.953              1.042              0.458
 Vibration     8          0.959              1.030              0.448

 Optimization completed.
    -- Stationary point found.
 Normal termination of Gaussian 16 at Sun May 25 04:12:03 2025.
