 Gaussian 16, Revision C.01,
 Gaussian 16:  ES64L-G16RevC.01  3-Jul-2019

 ----------------------------------------------------------------------
 #P M062X/Def2TZVPP Symm(None) scf(xqc) pop(None) opt(NoFreeze,TS,CalcA
 ll,NoEigentest,MaxCycle=999)
 ----------------------------------------------------------------------

 ------------------------------
 Gaussian input prepared by ASE
 ------------------------------
 Symbolic Z-matrix:
 Charge =  0 Multiplicity = 1

 SCF Done:  E(RM062X) =  -526.613496012     A.U. after   15 cycles
 SCF Done:  E(RM062X) =  -526.650888456     A.U. after   14 cycles
 SCF Done:  E(RM062X) =  -526.695472245     A.U. after   14 cycles
 SCF Done:  E(RM062X) =  -526.717476224     A.U. after   14 cycles
 SCF Done:  E(RM062X) =  -526.724397596     A.U. after   14 cycles
 SCF Done:  E(RM062X) =  -526.724683332     A.U. after   13 cycles
 SCF Done:  E(RM062X) =  -526.724689073     A.U. after   10 cycles

 Isotropic polarizability for W=    0.000000       36.15 Bohr**3.
 End of Minotr F.D. properties file   721 does not exist.

 Optimization completed.
    -- Stationary point found.

                          Input orientation:
 ---------------------------------------------------------------------
 Center     Atomic      Atomic             Coordinates (Angstroms)
 Number     Number       Type             X           Y           Z
 ---------------------------------------------------------------------
      1          6           0        1.645357   -0.134183    0.206230
      2          8           0        2.070948   -1.212465    0.429702
      3          6           0        0.012881   -0.128301   -0.470577
      4          9           0        0.748671    0.532136    1.291532
      5          9           0       -0.627999    0.885806   -0.899111
      6          9           0       -0.790016   -1.058292   -0.177961
      7          8           0        2.316968    0.892830   -0.341972
      8          1           0        1.942811    1.726748   -0.038928
 ---------------------------------------------------------------------

 ******    1 imaginary frequencies (negative Signs) ******

                      1                      2                      3
                      A                      A                      A
 Frequencies --   -431.1007               110.1966               142.1575
 Red. masses --     13.6682                14.8161                11.7852
 Frc consts  --      1.4966                 0.1060                 0.1403
 IR Inten    --     24.8590                 1.7470                32.6926

                      4                      5                      6
                      A                      A                      A
 Frequencies --    162.4545               331.4365               368.0154
 Red. masses --     10.4892                 2.1555                 2.5576
 Frc consts  --      0.1631                 0.1395                 0.2041
 IR Inten    --      1.8536                57.8425                64.0078

                      7                      8                      9
                      A                      A                      A
 Frequencies --    412.7518               509.0248               577.4134
 Red. masses --      6.2256                 6.1346                11.7669
 Frc consts  --      0.6249                 0.9365                 2.3115
 IR Inten    --     20.9778                22.4534                34.8834

                     10                     11                     12
                      A                      A                      A
 Frequencies --    663.0583               714.0527               737.2500
 Red. masses --     10.1364                14.1665                12.8712
 Frc consts  --      2.6257                 4.2557                 4.1219
 IR Inten    --    168.2842                23.7311               237.8848

                     13                     14                     15
                      A                      A                      A
 Frequencies --   1094.2770              1266.7320              1375.1983
 Red. masses --      7.5653                 1.3605                11.0247
 Frc consts  --      5.3374                 1.2863                12.2842
 IR Inten    --    273.9456               279.9716               235.4576

                     16                     17                     18
                      A                      A                      A
 Frequencies --   1416.2592              1906.5039              3867.8426
 Red. masses --     12.9232                11.1211                 1.0656
 Frc consts  --     15.2724                23.8163                 9.3921
 IR Inten    --    191.6589               589.0587               102.7056

 - Thermochemistry -
 -------------------
 Temperature   298.150 Kelvin.  Pressure   1.00000 Atm.
 Atom     1 has atomic number  6 and mass  12.00000

 Molecular mass:   113.99286 amu.
 Principal axes and moments of inertia in atomic units:
                           1         2         3
     Eigenvalues --   450.66990 775.68857 933.43284
           X            0.95926   0.05741  -0.27662
           Y            0.02999   0.95292   0.30175
           Z            0.28092  -0.29775   0.91237
 This molecule is an asymmetric top.
 Rotational symmetry number  1.
 Warning -- assumption of classical behavior for rotation
           may cause significant error
 Rotational temperatures (Kelvin)      0.19219     0.11166     0.09279
 Rotational constants (GHZ):           4.00457     2.32663     1.93345
    1 imaginary frequencies ignored.
 Zero-point vibrational energy      93635.4 (Joules/Mol)
                                   22.37941 (Kcal/Mol)
 Warning -- explicit consideration of   8 degrees of freedom as
           vibrations may cause significant error
 Vibrational temperatures:    158.55   204.53   233.74   476.86   529.49
          (Kelvin)            593.86   732.37   830.77   953.99  1027.36
                             1060.74  1574.42  1822.54  1978.60  2037.68
                             2743.03  5564.96

 Zero-point correction=                           0.035664 (Hartree/Particle)
 Thermal correction to Energy=                    0.042291
 Thermal correction to Enthalpy=                  0.043235
 Thermal correction to Gibbs Free Energy=         0.004571
 Sum of electronic and zero-point Energies=           -526.689025
 Sum of electronic and thermal Energies=              -526.682398
 Sum of electronic and thermal Enthalpies=            -526.681454
 Sum of electronic and thermal Free Energies=         -526.720119

                     E (Thermal)             CV                S
                      KCal/Mol        Cal/Mol-Kelvin    Cal/Mol-Kelvin
 Total                   26.538             21.752             81.376
 Electronic               0.000              0.000              0.000
 Translational            0.889              2.981             40.108
 Rotational               0.889              2.981             27.281
 Vibrational             24.760             15.790             13.987
 Vibration     1          0.606              1.941              3.265
 Vibration     2          0.616              1.911              2.775
 Vibration     3          0.623              1.888              2.521
 Vibration     4          0.714              1.613              1.253
 Vibration     5          0.741              1.538              1.088
 Vibration     6          0.777              1.443              0.917
 Vibration     7          0.864              1.230              0.636
 Vibration     8          0.934              1.080              0.490

 Normal termination of Gaussian 16 at Sun May 25 03:49:03 2025.
