 Gaussian 16, Revision C.01,
 Gaussian 16:  ES64L-G16RevC.01  3-Jul-2019

 -----------------------------------------------------------------
 #P M062X/Def2TZVPP Symm(None) scf(xqc) pop(None) freq opt(CalcFC)
 -----------------------------------------------------------------

 ------------------------------
 Gaussian input prepared by ASE
 ------------------------------
 Symbolic Z-matrix:
 Charge =  0 Multiplicity = 1

 SCF Done:  E(RM062X) =  -526.837529739     A.U. after   14 cycles
 SCF Done:  E(RM062X) =  -526.846980048     A.U. after   13 cycles
 SCF Done:  E(RM062X) =  -526.847720221     A.U. after   12 cycles
 SCF Done:  E(RM062X) =  -526.847761723     A.U. after   11 cycles
 SCF Done:  E(RM062X) =  -526.847796243     A.U. after   12 cycles
 SCF Done:  E(RM062X) =  -526.847835188     A.U. after   13 cycles
 SCF Done:  E(RM062X) =  -526.847854074     A.U. after   12 cycles
 SCF Done:  E(RM062X) =  -526.847880565     A.U. after   13 cycles
 SCF Done:  E(RM062X) =  -526.847883817     A.U. after   11 cycles
 SCF Done:  E(RM062X) =  -526.847886752     A.U. after    9 cycles
 SCF Done:  E(RM062X) =  -526.847888319     A.U. after   11 cycles
 SCF Done:  E(RM062X) =  -526.847888631     A.U. after   11 cycles
 SCF Done:  E(RM062X) =  -526.847888690     A.U. after    9 cycles
 Optimization completed.
    -- Stationary point found.
 Normal termination of Gaussian 16 at Sun May 25 04:13:12 2025.

 ---------------------------------------------------------------------
 #P Geom=AllCheck Guess=TCheck SCRF=Check GenChk RM062X/def2TZVPP Freq
 ---------------------------------------------------------------------

 Structure from the checkpoint file:  "1141903082400600000001_r12_insertion_R_4_3_1_IRC_F_prod.chk"
 ------------------------------
 Gaussian input prepared by ASE
 ------------------------------
 Charge =  0 Multiplicity = 1

                          Input orientation:
 ---------------------------------------------------------------------
 Center     Atomic      Atomic             Coordinates (Angstroms)
 Number     Number       Type             X           Y           Z
 ---------------------------------------------------------------------
      1          6           0        0.990132   -0.182186   -0.014313
      2          8           0        1.481632   -1.136828    0.484785
      3          6           0       -0.534953    0.068333    0.120835
      4          9           0       -0.864482    0.213786    1.393815
      5          9           0       -0.903552    1.183870   -0.532893
      6          9           0       -1.214515   -0.946223   -0.386181
      7          8           0        1.660330    0.733394   -0.707144
      8          1           0        1.074786    1.427795   -1.032099
 ---------------------------------------------------------------------

 SCF Done:  E(RM062X) =  -526.847888690     A.U. after    1 cycles

 Isotropic polarizability for W=    0.000000       31.66 Bohr**3.
 End of Minotr F.D. properties file   721 does not exist.

                      1                      2                      3
                      A                      A                      A
 Frequencies --      8.2250               256.3534               267.5584
 Red. masses --     10.6940                17.3536                12.4300
 Frc consts  --      0.0004                 0.6719                 0.5243
 IR Inten    --      2.0351                10.0590                11.4885

                      4                      5                      6
                      A                      A                      A
 Frequencies --    399.3475               435.9096               517.8613
 Red. masses --      9.3239                13.4526                10.0975
 Frc consts  --      0.8761                 1.5061                 1.5955
 IR Inten    --      4.8947                 4.0705                30.0863

                      7                      8                      9
                      A                      A                      A
 Frequencies --    542.9456               603.4405               703.9262
 Red. masses --      1.1597                13.2588                10.0656
 Frc consts  --      0.2014                 2.8446                 2.9386
 IR Inten    --     90.4675                 0.2088                30.7107

                     10                     11                     12
                      A                      A                      A
 Frequencies --    791.9972               825.2289              1169.5138
 Red. masses --     10.7919                13.1296                 4.9067
 Frc consts  --      3.9884                 5.2681                 3.9541
 IR Inten    --      7.7827                12.4246                86.8916

                     13                     14                     15
                      A                      A                      A
 Frequencies --   1254.1837              1270.0273              1279.6848
 Red. masses --     12.9587                 1.6120                13.1108
 Frc consts  --     12.0097                 1.5319                12.6498
 IR Inten    --    424.7138               197.2937               294.3728

                     16                     17                     18
                      A                      A                      A
 Frequencies --   1432.3220              1951.1951              3843.6049
 Red. masses --      5.7381                11.4491                 1.0657
 Frc consts  --      6.9358                25.6817                 9.2760
 IR Inten    --    135.1097               292.5381               147.9226

 - Thermochemistry -
 -------------------
 Temperature   298.150 Kelvin.  Pressure   1.00000 Atm.
 Atom     1 has atomic number  6 and mass  12.00000

 Molecular mass:   113.99286 amu.
 Principal axes and moments of inertia in atomic units:
                           1         2         3
     Eigenvalues --   468.65492 714.97623 869.06902
           X            0.98703   0.02132   0.15912
           Y           -0.10215   0.84805   0.51997
           Z           -0.12386  -0.52948   0.83923
 This molecule is an asymmetric top.
 Rotational symmetry number  1.
 Warning -- assumption of classical behavior for rotation
           may cause significant error
 Rotational temperatures (Kelvin)      0.18481     0.12114     0.09966
 Rotational constants (GHZ):           3.85090     2.52420     2.07664
 Zero-point vibrational energy     104992.2 (Joules/Mol)
                                   25.09374 (Kcal/Mol)
 Warning -- explicit consideration of   8 degrees of freedom as
           vibrations may cause significant error
 Vibrational temperatures:     11.83   368.84   384.96   574.57   627.18
          (Kelvin)            745.09   781.18   868.22  1012.79  1139.51
                             1187.32  1682.67  1804.49  1827.29  1841.18
                             2060.79  2807.33  5530.09

 Zero-point correction=                           0.039989 (Hartree/Particle)
 Thermal correction to Energy=                    0.046165
 Thermal correction to Enthalpy=                  0.047109
 Thermal correction to Gibbs Free Energy=         0.007551
 Sum of electronic and zero-point Energies=           -526.807899
 Sum of electronic and thermal Energies=              -526.801724
 Sum of electronic and thermal Enthalpies=            -526.800780
 Sum of electronic and thermal Free Energies=         -526.840338

                     E (Thermal)             CV                S
                      KCal/Mol        Cal/Mol-Kelvin    Cal/Mol-Kelvin
 Total                   28.969             20.611             83.257
 Electronic               0.000              0.000              0.000
 Translational            0.889              2.981             40.108
 Rotational               0.889              2.981             27.168
 Vibrational             27.191             14.649             15.981
 Vibration     1          0.593              1.987              8.399
 Vibration     2          0.666              1.752              1.686
 Vibration     3          0.673              1.733              1.612
 Vibration     4          0.765              1.472              0.965
 Vibration     5          0.796              1.392              0.840
 Vibration     6          0.873              1.210              0.615
 Vibration     7          0.898              1.155              0.559
 Vibration     8          0.962              1.025              0.444

 Optimization completed.
    -- Stationary point found.
 Normal termination of Gaussian 16 at Sun May 25 04:14:25 2025.
