 Gaussian 16, Revision C.01,
 Gaussian 16:  ES64L-G16RevC.01  3-Jul-2019

 -----------------------------------------------------------------
 #P M062X/Def2TZVPP Symm(None) scf(xqc) pop(None) freq opt(CalcFC)
 -----------------------------------------------------------------

 ------------------------------
 Gaussian input prepared by ASE
 ------------------------------
 Symbolic Z-matrix:
 Charge =  0 Multiplicity = 1

 SCF Done:  E(RM062X) =  -526.854379048     A.U. after   13 cycles
 SCF Done:  E(RM062X) =  -526.861611327     A.U. after   11 cycles
 SCF Done:  E(RM062X) =  -526.868955966     A.U. after   12 cycles
 SCF Done:  E(RM062X) =  -526.870651788     A.U. after   12 cycles
 SCF Done:  E(RM062X) =  -526.872615511     A.U. after   11 cycles
 SCF Done:  E(RM062X) =  -526.873324800     A.U. after   11 cycles
 SCF Done:  E(RM062X) =  -526.874609193     A.U. after   12 cycles
 SCF Done:  E(RM062X) =  -526.874538253     A.U. after   14 cycles
 SCF Done:  E(RM062X) =  -526.876120540     A.U. after   13 cycles
 SCF Done:  E(RM062X) =  -526.876372370     A.U. after   12 cycles
 SCF Done:  E(RM062X) =  -526.876842967     A.U. after   11 cycles
 SCF Done:  E(RM062X) =  -526.876733103     A.U. after   12 cycles
 SCF Done:  E(RM062X) =  -526.876910215     A.U. after   10 cycles
 SCF Done:  E(RM062X) =  -526.876920011     A.U. after    9 cycles
 SCF Done:  E(RM062X) =  -526.876921423     A.U. after    8 cycles
 SCF Done:  E(RM062X) =  -526.876922082     A.U. after    8 cycles
 SCF Done:  E(RM062X) =  -526.876923210     A.U. after    8 cycles
 SCF Done:  E(RM062X) =  -526.876923542     A.U. after    8 cycles
 SCF Done:  E(RM062X) =  -526.876923651     A.U. after    7 cycles
 Optimization completed.
    -- Stationary point found.
 Normal termination of Gaussian 16 at Sun May 25 04:29:10 2025.

 ---------------------------------------------------------------------
 #P Geom=AllCheck Guess=TCheck SCRF=Check GenChk RM062X/def2TZVPP Freq
 ---------------------------------------------------------------------

 Structure from the checkpoint file:  "1141903082400600000001_r13_insertion_CO2_3_8_IRC_F_prod.chk"
 ------------------------------
 Gaussian input prepared by ASE
 ------------------------------
 Charge =  0 Multiplicity = 1

                          Input orientation:
 ---------------------------------------------------------------------
 Center     Atomic      Atomic             Coordinates (Angstroms)
 Number     Number       Type             X           Y           Z
 ---------------------------------------------------------------------
      1          6           0        2.061706   -0.116273   -0.667484
      2          8           0        2.113765   -0.697833   -1.660678
      3          6           0       -0.995898    0.169736    0.527280
      4          9           0       -2.301672    0.133326    0.767102
      5          9           0       -0.802472    0.751392   -0.657589
      6          9           0       -0.548734   -1.084333    0.444788
      7          8           0        2.015342    0.468370    0.330057
      8          1           0       -0.468914    0.711995    1.308556
 ---------------------------------------------------------------------

 SCF Done:  E(RM062X) =  -526.876923651     A.U. after    1 cycles

 Isotropic polarizability for W=    0.000000       30.80 Bohr**3.
 End of Minotr F.D. properties file   721 does not exist.

                      1                      2                      3
                      A                      A                      A
 Frequencies --     20.9336                39.5711                72.5010
 Red. masses --     17.5304                16.0462                11.7085
 Frc consts  --      0.0045                 0.0148                 0.0363
 IR Inten    --      0.1657                 1.2525                 1.0472

                      4                      5                      6
                      A                      A                      A
 Frequencies --     77.1018                89.4626               515.2875
 Red. masses --     10.6114                15.4844                13.8701
 Frc consts  --      0.0372                 0.0730                 2.1699
 IR Inten    --      1.9148                 0.0337                 2.7345

                      7                      8                      9
                      A                      A                      A
 Frequencies --    519.3307               693.7629               695.0563
 Red. masses --     13.8143                12.8818                12.8742
 Frc consts  --      2.1952                 3.6530                 3.6645
 IR Inten    --      5.9912                29.4781                50.5437

                     10                     11                     12
                      A                      A                      A
 Frequencies --    712.2751              1171.6540              1194.3919
 Red. masses --     13.3568                 8.4718                 5.0100
 Frc consts  --      3.9925                 6.8521                 4.2110
 IR Inten    --     16.6323                92.0296               267.9765

                     13                     14                     15
                      A                      A                      A
 Frequencies --   1213.8777              1413.0580              1419.5477
 Red. masses --      4.6488                15.6431                 1.2675
 Frc consts  --      4.0359                18.4032                 1.5049
 IR Inten    --    326.6047                 0.8654                52.7450

                     16                     17                     18
                      A                      A                      A
 Frequencies --   1423.3622              2448.6060              3193.1641
 Red. masses --      1.2713                12.8610                 1.0907
 Frc consts  --      1.5175                45.4321                 6.5523
 IR Inten    --     53.8748               751.5035                17.2121

 - Thermochemistry -
 -------------------
 Temperature   298.150 Kelvin.  Pressure   1.00000 Atm.
 Atom     1 has atomic number  6 and mass  12.00000

 Molecular mass:   113.99286 amu.
 Principal axes and moments of inertia in atomic units:
                           1         2         3
     Eigenvalues --   315.900171416.852551418.23244
           X            0.94108   0.32710   0.08589
           Y           -0.06620  -0.07090   0.99528
           Z           -0.33164   0.94233   0.04507
 This molecule is an asymmetric top.
 Rotational symmetry number  1.
 Rotational temperatures (Kelvin)      0.27418     0.06113     0.06107
 Rotational constants (GHZ):           5.71301     1.27377     1.27253
 Zero-point vibrational energy     101161.9 (Joules/Mol)
                                   24.17827 (Kcal/Mol)
 Warning -- explicit consideration of   7 degrees of freedom as
           vibrations may cause significant error
 Vibrational temperatures:     30.12    56.93   104.31   110.93   128.72
          (Kelvin)            741.38   747.20   998.17  1000.03  1024.81
                             1685.75  1718.46  1746.50  2033.08  2042.41
                             2047.90  3523.00  4594.25

 Zero-point correction=                           0.038531 (Hartree/Particle)
 Thermal correction to Energy=                    0.046274
 Thermal correction to Enthalpy=                  0.047218
 Thermal correction to Gibbs Free Energy=         0.002593
 Sum of electronic and zero-point Energies=           -526.838393
 Sum of electronic and thermal Energies=              -526.830650
 Sum of electronic and thermal Enthalpies=            -526.829706
 Sum of electronic and thermal Free Energies=         -526.874331

                     E (Thermal)             CV                S
                      KCal/Mol        Cal/Mol-Kelvin    Cal/Mol-Kelvin
 Total                   29.037             21.654             93.922
 Electronic               0.000              0.000              0.000
 Translational            0.889              2.981             40.108
 Rotational               0.889              2.981             27.942
 Vibrational             27.260             15.693             25.871
 Vibration     1          0.593              1.986              6.544
 Vibration     2          0.594              1.981              5.280
 Vibration     3          0.599              1.967              4.084
 Vibration     4          0.599              1.964              3.963
 Vibration     5          0.602              1.957              3.672
 Vibration     6          0.870              1.216              0.621
 Vibration     7          0.874              1.207              0.612

 Optimization completed.
    -- Stationary point found.
 Normal termination of Gaussian 16 at Sun May 25 04:30:18 2025.
