 Gaussian 16, Revision C.01,
 Gaussian 16:  ES64L-G16RevC.01  3-Jul-2019

 ----------------------------------------------------------------------
 #P M062X/Def2TZVPP Symm(None) scf(xqc) pop(None) geom(AllCheck,NoKeepC
 onstants) guess(Read) irc(RCFC,reverse,MaxPoints=100,StepSize=2)
 ----------------------------------------------------------------------

 Structure from the checkpoint file:  "1141903082400600000001_r12_insertion_R_7_1_2_IRC_R.chk"
 ------------------------------
 Gaussian input prepared by ASE
 ------------------------------
 Charge =  0 Multiplicity = 1

 SCF Done:  E(RM062X) =  -526.567985011     A.U. after   14 cycles
 SCF Done:  E(RM062X) =  -526.568534759     A.U. after   20 cycles
 SCF Done:  E(RM062X) =  -526.569447134     A.U. after   20 cycles
 SCF Done:  E(RM062X) =  -526.570721042     A.U. after   22 cycles
 SCF Done:  E(RM062X) =  -526.572351436     A.U. after   21 cycles
 SCF Done:  E(RM062X) =  -526.574280609     A.U. after   23 cycles
 SCF Done:  E(RM062X) =  -526.576298030     A.U. after   22 cycles
 SCF Done:  E(RM062X) =  -526.578260348     A.U. after   16 cycles
 SCF Done:  E(RM062X) =  -526.580140339     A.U. after   15 cycles
 SCF Done:  E(RM062X) =  -526.581932486     A.U. after   15 cycles
 SCF Done:  E(RM062X) =  -526.598519400     A.U. after   11 cycles
 SCF Done:  E(RM062X) =  -526.598679462     A.U. after   11 cycles
 SCF Done:  E(RM062X) =  -526.598805403     A.U. after   11 cycles
 SCF Done:  E(RM062X) =  -526.598903231     A.U. after   11 cycles
 SCF Done:  E(RM062X) =  -526.598977937     A.U. after   11 cycles
 SCF Done:  E(RM062X) =  -526.599033841     A.U. after   11 cycles
 SCF Done:  E(RM062X) =  -526.599074537     A.U. after   11 cycles
 SCF Done:  E(RM062X) =  -526.599102928     A.U. after   11 cycles
 SCF Done:  E(RM062X) =  -526.599121414     A.U. after   11 cycles
 SCF Done:  E(RM062X) =  -526.599132400     A.U. after   11 cycles

                          Input orientation:
 ---------------------------------------------------------------------
 Center     Atomic      Atomic             Coordinates (Angstroms)
 Number     Number       Type             X           Y           Z
 ---------------------------------------------------------------------
      1          6           0        0.913030   -0.247433    0.591766
      2          8           0        1.684805   -0.371348   -0.600792
      3          6           0       -0.558407   -0.131222    0.156815
      4          9           0       -1.195499    0.700459    0.979647
      5          9           0       -0.774969    0.291900   -1.091066
      6          9           0       -1.099770   -1.344263    0.271778
      7          8           0        1.547299    1.000594   -0.173635
      8          1           0        2.355983    1.163438    0.342952
 ---------------------------------------------------------------------

 Normal termination of Gaussian 16 at Sun May 25 04:02:17 2025.
