 Gaussian 16, Revision C.01,
 Gaussian 16:  ES64L-G16RevC.01  3-Jul-2019

 -----------------------------------------------------------------
 #P M062X/Def2TZVPP Symm(None) scf(xqc) pop(None) freq opt(CalcFC)
 -----------------------------------------------------------------

 ------------------------------
 Gaussian input prepared by ASE
 ------------------------------
 Symbolic Z-matrix:
 Charge =  0 Multiplicity = 1

 SCF Done:  E(RM062X) =  -526.849624765     A.U. after   13 cycles
 SCF Done:  E(RM062X) =  -526.852522837     A.U. after   15 cycles
 SCF Done:  E(RM062X) =  -526.852266020     A.U. after   15 cycles
 SCF Done:  E(RM062X) =  -526.852689281     A.U. after   12 cycles
 SCF Done:  E(RM062X) =  -526.852738043     A.U. after   12 cycles
 SCF Done:  E(RM062X) =  -526.852761949     A.U. after   10 cycles
 SCF Done:  E(RM062X) =  -526.852762619     A.U. after    8 cycles
 Optimization completed.
    -- Stationary point found.
 Normal termination of Gaussian 16 at Sun May 25 04:17:15 2025.

 ---------------------------------------------------------------------
 #P Geom=AllCheck Guess=TCheck SCRF=Check GenChk RM062X/def2TZVPP Freq
 ---------------------------------------------------------------------

 Structure from the checkpoint file:  "1141903082400600000001_intra_H_migration_2_8_IRC_R_prod.chk"
 ------------------------------
 Gaussian input prepared by ASE
 ------------------------------
 Charge =  0 Multiplicity = 1

                          Input orientation:
 ---------------------------------------------------------------------
 Center     Atomic      Atomic             Coordinates (Angstroms)
 Number     Number       Type             X           Y           Z
 ---------------------------------------------------------------------
      1          6           0       -0.518323    0.341736   -0.797448
      2          8           0        0.323970    0.320671   -1.825020
      3          6           0        0.182959   -0.202021    0.465973
      4          9           0        0.589976   -1.452755    0.264509
      5          9           0        1.246263    0.542313    0.758888
      6          9           0       -0.644777   -0.184387    1.493226
      7          8           0       -1.646069    0.714981   -0.811276
      8          1           0       -0.135053    0.664778   -2.603574
 ---------------------------------------------------------------------

 SCF Done:  E(RM062X) =  -526.852762619     A.U. after    1 cycles

 Isotropic polarizability for W=    0.000000       31.73 Bohr**3.
 End of Minotr F.D. properties file   721 does not exist.

                      1                      2                      3
                      A                      A                      A
 Frequencies --     34.8716               238.2559               245.9080
 Red. masses --     14.4272                11.5295                 9.2837
 Frc consts  --      0.0103                 0.3856                 0.3308
 IR Inten    --      1.6934                 1.3384                 0.0617

                      4                      5                      6
                      A                      A                      A
 Frequencies --    394.5869               432.5277               512.0477
 Red. masses --     12.0692                15.4539                 4.1139
 Frc consts  --      1.1072                 1.7034                 0.6355
 IR Inten    --      2.2037                 0.0401                 5.9586

                      7                      8                      9
                      A                      A                      A
 Frequencies --    589.2452               600.6156               681.2710
 Red. masses --      1.4757                14.1890                 4.8778
 Frc consts  --      0.3019                 3.0157                 1.3339
 IR Inten    --    102.7969                 9.4870                79.3298

                     10                     11                     12
                      A                      A                      A
 Frequencies --    806.9376               824.6078              1178.0125
 Red. masses --     10.1017                 8.7162                 4.0582
 Frc consts  --      3.8755                 3.4920                 3.3181
 IR Inten    --     36.2135                 2.8143               311.4094

                     13                     14                     15
                      A                      A                      A
 Frequencies --   1244.2549              1249.0038              1311.9350
 Red. masses --      2.5936                13.0044                 7.1663
 Frc consts  --      2.3658                11.9528                 7.2672
 IR Inten    --    188.2429               297.8521               194.7200

                     16                     17                     18
                      A                      A                      A
 Frequencies --   1457.6319              1926.2745              3814.0777
 Red. masses --      5.4954                11.7016                 1.0647
 Frc consts  --      6.8793                25.5819                 9.1252
 IR Inten    --     55.6904               319.9381               123.8449

 - Thermochemistry -
 -------------------
 Temperature   298.150 Kelvin.  Pressure   1.00000 Atm.
 Atom     1 has atomic number  6 and mass  12.00000

 Molecular mass:   113.99286 amu.
 Principal axes and moments of inertia in atomic units:
                           1         2         3
     Eigenvalues --   463.60449 717.66958 865.42936
           X            0.39004   0.86942   0.30326
           Y           -0.34042  -0.16986   0.92480
           Z            0.85556  -0.46395   0.22971
 This molecule is an asymmetric top.
 Rotational symmetry number  1.
 Warning -- assumption of classical behavior for rotation
           may cause significant error
 Rotational temperatures (Kelvin)      0.18683     0.12069     0.10008
 Rotational constants (GHZ):           3.89285     2.51472     2.08537
 Zero-point vibrational energy     104924.9 (Joules/Mol)
                                   25.07764 (Kcal/Mol)
 Warning -- explicit consideration of   8 degrees of freedom as
           vibrations may cause significant error
 Vibrational temperatures:     50.17   342.80   353.81   567.72   622.31
          (Kelvin)            736.72   847.79   864.15   980.20  1161.00
                             1186.43  1694.90  1790.21  1797.04  1887.58
                             2097.21  2771.48  5487.61

 Zero-point correction=                           0.039964 (Hartree/Particle)
 Thermal correction to Energy=                    0.046125
 Thermal correction to Enthalpy=                  0.047069
 Thermal correction to Gibbs Free Energy=         0.008762
 Sum of electronic and zero-point Energies=           -526.812799
 Sum of electronic and thermal Energies=              -526.806637
 Sum of electronic and thermal Enthalpies=            -526.805693
 Sum of electronic and thermal Free Energies=         -526.844001

                     E (Thermal)             CV                S
                      KCal/Mol        Cal/Mol-Kelvin    Cal/Mol-Kelvin
 Total                   28.944             20.618             80.625
 Electronic               0.000              0.000              0.000
 Translational            0.889              2.981             40.108
 Rotational               0.889              2.981             27.157
 Vibrational             27.167             14.657             13.360
 Vibration     1          0.594              1.983              5.531
 Vibration     2          0.656              1.782              1.816
 Vibration     3          0.660              1.770              1.760
 Vibration     4          0.762              1.482              0.983
 Vibration     5          0.793              1.399              0.850
 Vibration     6          0.867              1.223              0.629
 Vibration     7          0.947              1.055              0.469
 Vibration     8          0.959              1.030              0.449

 Optimization completed.
    -- Stationary point found.
 Normal termination of Gaussian 16 at Sun May 25 04:18:29 2025.
