 Gaussian 16, Revision C.01,
 Gaussian 16:  ES64L-G16RevC.01  3-Jul-2019

 ----------------------------------------------------------------------
 #P M062X/Def2TZVPP Symm(None) scf(xqc) pop(None) geom(AllCheck,NoKeepC
 onstants) guess(Read) irc(RCFC,reverse,MaxPoints=100,StepSize=2)
 ----------------------------------------------------------------------

 Structure from the checkpoint file:  "1141903082400600000001_r12_insertion_R_3_1_7_IRC_R.chk"
 ------------------------------
 Gaussian input prepared by ASE
 ------------------------------
 Charge =  0 Multiplicity = 1

 SCF Done:  E(RM062X) =  -526.727309872     A.U. after   10 cycles
 SCF Done:  E(RM062X) =  -526.729066753     A.U. after   11 cycles
 SCF Done:  E(RM062X) =  -526.729512613     A.U. after   11 cycles
 SCF Done:  E(RM062X) =  -526.734430203     A.U. after   10 cycles
 SCF Done:  E(RM062X) =  -526.739249118     A.U. after   12 cycles
 SCF Done:  E(RM062X) =  -526.743918876     A.U. after   10 cycles
 SCF Done:  E(RM062X) =  -526.748441467     A.U. after   10 cycles
 SCF Done:  E(RM062X) =  -526.752823835     A.U. after   11 cycles
 SCF Done:  E(RM062X) =  -526.757059804     A.U. after   11 cycles
 SCF Done:  E(RM062X) =  -526.761143145     A.U. after   11 cycles
 SCF Done:  E(RM062X) =  -526.852168147     A.U. after    9 cycles
 SCF Done:  E(RM062X) =  -526.852291527     A.U. after    9 cycles
 SCF Done:  E(RM062X) =  -526.852400898     A.U. after    9 cycles
 SCF Done:  E(RM062X) =  -526.852496216     A.U. after    9 cycles
 SCF Done:  E(RM062X) =  -526.852577441     A.U. after    9 cycles
 SCF Done:  E(RM062X) =  -526.852644541     A.U. after    9 cycles
 SCF Done:  E(RM062X) =  -526.852697485     A.U. after    9 cycles
 SCF Done:  E(RM062X) =  -526.852736242     A.U. after    9 cycles
 SCF Done:  E(RM062X) =  -526.852760777     A.U. after    9 cycles
 SCF Done:  E(RM062X) =  -526.852771029     A.U. after    9 cycles

                          Input orientation:
 ---------------------------------------------------------------------
 Center     Atomic      Atomic             Coordinates (Angstroms)
 Number     Number       Type             X           Y           Z
 ---------------------------------------------------------------------
      1          6           0        0.988486   -0.132754    0.035277
      2          8           0        1.558535   -1.173169    0.096819
      3          6           0       -0.549173   -0.005314   -0.015802
      4          9           0       -0.986396    0.709644    1.017673
      5          9           0       -0.922376    0.607000   -1.136688
      6          9           0       -1.110915   -1.198356    0.024378
      7          8           0        1.541455    1.075131   -0.000953
      8          1           0        2.502659    0.972408    0.030773
 ---------------------------------------------------------------------

 Normal termination of Gaussian 16 at Sun May 25 04:13:50 2025.
