 Gaussian 16, Revision C.01,
 Gaussian 16:  ES64L-G16RevC.01  3-Jul-2019

 ----------------------------------------------------------------------
 #P M062X/Def2TZVPP Symm(None) scf(xqc) pop(None) geom(AllCheck,NoKeepC
 onstants) guess(Read) irc(RCFC,reverse,MaxPoints=100,StepSize=2)
 ----------------------------------------------------------------------

 Structure from the checkpoint file:  "1141903082400600000001_r13_insertion_ROR_4_3_1_2_IRC_R.chk"
 ------------------------------
 Gaussian input prepared by ASE
 ------------------------------
 Charge =  0 Multiplicity = 1

 SCF Done:  E(RM062X) =  -526.757311359     A.U. after    9 cycles
 SCF Done:  E(RM062X) =  -526.757330165     A.U. after   10 cycles
 SCF Done:  E(RM062X) =  -526.757361228     A.U. after   10 cycles
 SCF Done:  E(RM062X) =  -526.757404278     A.U. after   10 cycles
 SCF Done:  E(RM062X) =  -526.757459004     A.U. after   10 cycles
 SCF Done:  E(RM062X) =  -526.757525054     A.U. after   10 cycles
 SCF Done:  E(RM062X) =  -526.757602042     A.U. after   10 cycles
 SCF Done:  E(RM062X) =  -526.757689554     A.U. after   10 cycles
 SCF Done:  E(RM062X) =  -526.757787154     A.U. after   10 cycles
 SCF Done:  E(RM062X) =  -526.757894380     A.U. after   10 cycles
 SCF Done:  E(RM062X) =  -526.769180834     A.U. after    9 cycles
 SCF Done:  E(RM062X) =  -526.769218900     A.U. after    9 cycles
 SCF Done:  E(RM062X) =  -526.769255439     A.U. after    9 cycles
 SCF Done:  E(RM062X) =  -526.769290514     A.U. after    9 cycles
 SCF Done:  E(RM062X) =  -526.769324185     A.U. after    9 cycles
 SCF Done:  E(RM062X) =  -526.769356515     A.U. after    9 cycles
 SCF Done:  E(RM062X) =  -526.769387562     A.U. after    9 cycles
 SCF Done:  E(RM062X) =  -526.769417392     A.U. after    9 cycles
 SCF Done:  E(RM062X) =  -526.769446062     A.U. after    9 cycles
 SCF Done:  E(RM062X) =  -526.769473634     A.U. after    9 cycles

                          Input orientation:
 ---------------------------------------------------------------------
 Center     Atomic      Atomic             Coordinates (Angstroms)
 Number     Number       Type             X           Y           Z
 ---------------------------------------------------------------------
      1          6           0        0.575528    0.885586    0.950902
      2          8           0       -0.625942   -0.078075   -1.558526
      3          6           0       -0.461701   -0.952846   -0.799394
      4          9           0       -0.319028    1.820347    1.244231
      5          9           0       -1.333474   -1.381572    0.072601
      6          9           0        0.603429   -1.703922   -0.718202
      7          8           0        1.685045    1.477775    0.687162
      8          1           0        1.616009    2.450765    0.750589
 ---------------------------------------------------------------------

 Normal termination of Gaussian 16 at Sun May 25 04:24:20 2025.
