 Gaussian 16, Revision C.01,
 Gaussian 16:  ES64L-G16RevC.01  3-Jul-2019

 -----------------------------------------------------------------
 #P M062X/Def2TZVPP Symm(None) scf(xqc) pop(None) freq opt(CalcFC)
 -----------------------------------------------------------------

 ------------------------------
 Gaussian input prepared by ASE
 ------------------------------
 Symbolic Z-matrix:
 Charge =  0 Multiplicity = 1

 SCF Done:  E(RM062X) =  -526.816373096     A.U. after   14 cycles
 SCF Done:  E(RM062X) =  -526.824643038     A.U. after   11 cycles
 SCF Done:  E(RM062X) =  -526.831992769     A.U. after   12 cycles
 SCF Done:  E(RM062X) =  -526.833661906     A.U. after   15 cycles
 SCF Done:  E(RM062X) =  -526.833791408     A.U. after   12 cycles
 SCF Done:  E(RM062X) =  -526.833793452     A.U. after   12 cycles
 SCF Done:  E(RM062X) =  -526.833810625     A.U. after   11 cycles
 SCF Done:  E(RM062X) =  -526.833815599     A.U. after   10 cycles
 SCF Done:  E(RM062X) =  -526.833819279     A.U. after    8 cycles
 SCF Done:  E(RM062X) =  -526.833823524     A.U. after    9 cycles
 SCF Done:  E(RM062X) =  -526.833827916     A.U. after   10 cycles
 SCF Done:  E(RM062X) =  -526.833831352     A.U. after    9 cycles
 SCF Done:  E(RM062X) =  -526.833833079     A.U. after   10 cycles
 SCF Done:  E(RM062X) =  -526.833834752     A.U. after    8 cycles
 SCF Done:  E(RM062X) =  -526.833835233     A.U. after    8 cycles
 SCF Done:  E(RM062X) =  -526.833835782     A.U. after    9 cycles
 SCF Done:  E(RM062X) =  -526.833835787     A.U. after    7 cycles
 Optimization completed.
    -- Stationary point found.
 Normal termination of Gaussian 16 at Sun May 25 05:13:53 2025.

 ---------------------------------------------------------------------
 #P Geom=AllCheck Guess=TCheck SCRF=Check GenChk RM062X/def2TZVPP Freq
 ---------------------------------------------------------------------

 Structure from the checkpoint file:  "1141903082400600000001_r13_insertion_ROR_4_3_1_7_IRC_F_prod.chk"
 ------------------------------
 Gaussian input prepared by ASE
 ------------------------------
 Charge =  0 Multiplicity = 1

                          Input orientation:
 ---------------------------------------------------------------------
 Center     Atomic      Atomic             Coordinates (Angstroms)
 Number     Number       Type             X           Y           Z
 ---------------------------------------------------------------------
      1          6           0        2.498007    0.561903   -0.472433
      2          8           0        3.539940    0.921141   -0.664240
      3          6           0       -0.377713   -0.036839    0.075158
      4          9           0       -3.031302   -0.440150    0.575265
      5          9           0       -0.354731   -0.730648   -1.026238
      6          9           0        0.053718   -0.787608    1.047374
      7          8           0       -0.733496    1.075305    0.175802
      8          1           0       -2.879729    0.469895    0.570023
 ---------------------------------------------------------------------

 SCF Done:  E(RM062X) =  -526.833835787     A.U. after    1 cycles

 Isotropic polarizability for W=    0.000000       32.05 Bohr**3.
 End of Minotr F.D. properties file   721 does not exist.

                      1                      2                      3
                      A                      A                      A
 Frequencies --     20.9858                25.5489                47.8140
 Red. masses --     13.2663                13.5340                16.8713
 Frc consts  --      0.0034                 0.0052                 0.0227
 IR Inten    --      0.1141                 3.8849                14.9115

                      4                      5                      6
                      A                      A                      A
 Frequencies --     50.7115                76.7994               116.7746
 Red. masses --     15.4732                13.5667                13.3853
 Frc consts  --      0.0234                 0.0471                 0.1075
 IR Inten    --      0.6098                 1.7524                 0.0250

                      7                      8                      9
                      A                      A                      A
 Frequencies --    118.9666               169.6886               281.2256
 Red. masses --     12.8991                 9.9440                 1.0728
 Frc consts  --      0.1076                 0.1687                 0.0500
 IR Inten    --      0.5794                 5.9734               133.9594

                     10                     11                     12
                      A                      A                      A
 Frequencies --    377.2259               595.1987               635.0225
 Red. masses --      1.0752                16.6151                16.6617
 Frc consts  --      0.0901                 3.4680                 3.9586
 IR Inten    --    330.3940                 3.0510                11.2046

                     13                     14                     15
                      A                      A                      A
 Frequencies --    799.0231              1024.1493              1336.3079
 Red. masses --     12.1237                16.8852                13.1323
 Frc consts  --      4.5604                10.4348                13.8167
 IR Inten    --     66.8532                41.9219               393.3698

                     16                     17                     18
                      A                      A                      A
 Frequencies --   1995.4328              2294.5978              4108.8327
 Red. masses --     13.0124                13.4329                 1.0583
 Frc consts  --     30.5269                41.6708                10.5267
 IR Inten    --    476.6613                99.8080               138.4515

 - Thermochemistry -
 -------------------
 Temperature   298.150 Kelvin.  Pressure   1.00000 Atm.
 Atom     1 has atomic number  6 and mass  12.00000

 Molecular mass:   113.99286 amu.
 Principal axes and moments of inertia in atomic units:
                           1         2         3
     Eigenvalues --   311.926191947.703011956.36731
           X            0.96443  -0.18473   0.18906
           Y            0.19149   0.98133  -0.01795
           Z           -0.18222   0.05351   0.98180
 This molecule is an asymmetric top.
 Rotational symmetry number  1.
 Rotational temperatures (Kelvin)      0.27767     0.04447     0.04427
 Rotational constants (GHZ):           5.78580     0.92660     0.92250
 Zero-point vibrational energy      84183.0 (Joules/Mol)
                                   20.12023 (Kcal/Mol)
 Warning -- explicit consideration of  11 degrees of freedom as
           vibrations may cause significant error
 Vibrational temperatures:     30.19    36.76    68.79    72.96   110.50
          (Kelvin)            168.01   171.17   244.14   404.62   542.74
                              856.36   913.66  1149.62  1473.52  1922.65
                             2870.98  3301.41  5911.69

 Zero-point correction=                           0.032064 (Hartree/Particle)
 Thermal correction to Energy=                    0.042348
 Thermal correction to Enthalpy=                  0.043293
 Thermal correction to Gibbs Free Energy=        -0.007775
 Sum of electronic and zero-point Energies=           -526.801772
 Sum of electronic and thermal Energies=              -526.791487
 Sum of electronic and thermal Enthalpies=            -526.790543
 Sum of electronic and thermal Free Energies=         -526.841611

                     E (Thermal)             CV                S
                      KCal/Mol        Cal/Mol-Kelvin    Cal/Mol-Kelvin
 Total                   26.574             27.979            107.482
 Electronic               0.000              0.000              0.000
 Translational            0.889              2.981             40.108
 Rotational               0.889              2.981             28.565
 Vibrational             24.797             22.018             38.808
 Vibration     1          0.593              1.986              6.539
 Vibration     2          0.593              1.985              6.148
 Vibration     3          0.595              1.978              4.906
 Vibration     4          0.595              1.977              4.789
 Vibration     5          0.599              1.965              3.971
 Vibration     6          0.608              1.935              3.153
 Vibration     7          0.609              1.934              3.117
 Vibration     8          0.625              1.880              2.439
 Vibration     9          0.681              1.708              1.526
 Vibration    10          0.748              1.519              1.050
 Vibration    11          0.953              1.042              0.458

 Optimization completed.
    -- Stationary point found.
 Normal termination of Gaussian 16 at Sun May 25 05:14:44 2025.
