 Gaussian 16, Revision C.01,
 Gaussian 16:  ES64L-G16RevC.01  3-Jul-2019

 ----------------------------------------------------------------------
 #P M062X/Def2TZVPP Symm(None) scf(xqc) pop(None) geom(AllCheck,NoKeepC
 onstants) guess(Read) irc(RCFC,forward,MaxPoints=100,StepSize=2)
 ----------------------------------------------------------------------

 Structure from the checkpoint file:  "1141903082400600000001_r13_insertion_ROR_4_3_1_7_IRC_F.chk"
 ------------------------------
 Gaussian input prepared by ASE
 ------------------------------
 Charge =  0 Multiplicity = 1

 SCF Done:  E(RM062X) =  -526.771476870     A.U. after    9 cycles
 SCF Done:  E(RM062X) =  -526.771554351     A.U. after   10 cycles
 SCF Done:  E(RM062X) =  -526.771682978     A.U. after   10 cycles
 SCF Done:  E(RM062X) =  -526.771861866     A.U. after   10 cycles
 SCF Done:  E(RM062X) =  -526.772089659     A.U. after   10 cycles
 SCF Done:  E(RM062X) =  -526.772364396     A.U. after   10 cycles
 SCF Done:  E(RM062X) =  -526.772683438     A.U. after   10 cycles
 SCF Done:  E(RM062X) =  -526.773043546     A.U. after   10 cycles
 SCF Done:  E(RM062X) =  -526.773441118     A.U. after   10 cycles
 SCF Done:  E(RM062X) =  -526.773872479     A.U. after   10 cycles
 SCF Done:  E(RM062X) =  -526.813667238     A.U. after    8 cycles
 SCF Done:  E(RM062X) =  -526.813984899     A.U. after    8 cycles
 SCF Done:  E(RM062X) =  -526.814298217     A.U. after    8 cycles
 SCF Done:  E(RM062X) =  -526.814607230     A.U. after    8 cycles
 SCF Done:  E(RM062X) =  -526.814911977     A.U. after    8 cycles
 SCF Done:  E(RM062X) =  -526.815212496     A.U. after    8 cycles
 SCF Done:  E(RM062X) =  -526.815508827     A.U. after    8 cycles
 SCF Done:  E(RM062X) =  -526.815801011     A.U. after    8 cycles
 SCF Done:  E(RM062X) =  -526.816089089     A.U. after    8 cycles
 SCF Done:  E(RM062X) =  -526.816373103     A.U. after    8 cycles

                          Input orientation:
 ---------------------------------------------------------------------
 Center     Atomic      Atomic             Coordinates (Angstroms)
 Number     Number       Type             X           Y           Z
 ---------------------------------------------------------------------
      1          6           0        2.341979    0.495198   -0.441920
      2          8           0        3.262245    1.111647   -0.600837
      3          6           0       -0.506484   -0.124325    0.093960
      4          9           0       -2.497498   -0.338217    0.478269
      5          9           0       -0.560889   -0.840363   -0.994264
      6          9           0       -0.153763   -0.898865    1.081704
      7          8           0       -0.666158    1.040645    0.158088
      8          1           0       -2.504738    0.587278    0.505712
 ---------------------------------------------------------------------

 Normal termination of Gaussian 16 at Sun May 25 05:10:28 2025.
