 Gaussian 16, Revision C.01,
 Gaussian 16:  ES64L-G16RevC.01  3-Jul-2019

 -----------------------------------------------------------------
 #P M062X/Def2TZVPP Symm(None) scf(xqc) pop(None) freq opt(CalcFC)
 -----------------------------------------------------------------

 ------------------------------
 Gaussian input prepared by ASE
 ------------------------------
 Symbolic Z-matrix:
 Charge =  0 Multiplicity = 1

 SCF Done:  E(RM062X) =  -526.760940832     A.U. after   13 cycles
 SCF Done:  E(RM062X) =  -526.762113129     A.U. after   12 cycles
 SCF Done:  E(RM062X) =  -526.758931969     A.U. after   12 cycles
 SCF Done:  E(RM062X) =  -526.763119797     A.U. after   13 cycles
 SCF Done:  E(RM062X) =  -526.763550101     A.U. after   12 cycles
 SCF Done:  E(RM062X) =  -526.763769609     A.U. after   12 cycles
 SCF Done:  E(RM062X) =  -526.763858434     A.U. after   12 cycles
 SCF Done:  E(RM062X) =  -526.764049086     A.U. after   12 cycles
 SCF Done:  E(RM062X) =  -526.764515118     A.U. after   15 cycles
 SCF Done:  E(RM062X) =  -526.764749787     A.U. after   13 cycles
 SCF Done:  E(RM062X) =  -526.765132437     A.U. after    8 cycles
 SCF Done:  E(RM062X) =  -526.765132926     A.U. after    9 cycles
 SCF Done:  E(RM062X) =  -526.765133157     A.U. after   10 cycles
 SCF Done:  E(RM062X) =  -526.765133222     A.U. after    9 cycles
 SCF Done:  E(RM062X) =  -526.765133594     A.U. after    8 cycles
 SCF Done:  E(RM062X) =  -526.765133874     A.U. after   10 cycles
 SCF Done:  E(RM062X) =  -526.765134064     A.U. after    8 cycles
 SCF Done:  E(RM062X) =  -526.765134250     A.U. after    8 cycles
 SCF Done:  E(RM062X) =  -526.765134281     A.U. after    8 cycles
 Optimization completed.
    -- Stationary point found.
 Normal termination of Gaussian 16 at Sun May 25 04:18:16 2025.

 ---------------------------------------------------------------------
 #P Geom=AllCheck Guess=TCheck SCRF=Check GenChk RM062X/def2TZVPP Freq
 ---------------------------------------------------------------------

 Structure from the checkpoint file:  "1141903082400600000001_r12_insertion_R_1_3_4_IRC_R_prod.chk"
 ------------------------------
 Gaussian input prepared by ASE
 ------------------------------
 Charge =  0 Multiplicity = 1

                          Input orientation:
 ---------------------------------------------------------------------
 Center     Atomic      Atomic             Coordinates (Angstroms)
 Number     Number       Type             X           Y           Z
 ---------------------------------------------------------------------
      1          6           0        1.146033    0.135511    0.759788
      2          8           0        0.789774   -0.957506    1.006487
      3          6           0       -1.269003    0.115476   -0.854747
      4          9           0        0.783222    1.196845    1.488049
      5          9           0       -2.386722   -0.169374   -0.276508
      6          9           0       -1.142039   -0.766478   -1.788503
      7          8           0        1.942693    0.500650   -0.226411
      8          1           0        2.032747    1.460191   -0.246181
 ---------------------------------------------------------------------

 SCF Done:  E(RM062X) =  -526.765134281     A.U. after    1 cycles

 Isotropic polarizability for W=    0.000000       34.20 Bohr**3.
 End of Minotr F.D. properties file   721 does not exist.

                      1                      2                      3
                      A                      A                      A
 Frequencies --     12.9559                22.5616                40.9727
 Red. masses --     15.0616                14.3704                12.1257
 Frc consts  --      0.0015                 0.0043                 0.0120
 IR Inten    --      1.1356                 5.8346                12.1699

                      4                      5                      6
                      A                      A                      A
 Frequencies --     68.1138                79.0081               193.0798
 Red. masses --     14.1675                10.8704                12.1219
 Frc consts  --      0.0387                 0.0400                 0.2663
 IR Inten    --      0.6677                 1.3527                 0.4016

                      7                      8                      9
                      A                      A                      A
 Frequencies --    487.7170               569.6229               630.5440
 Red. masses --      1.1225                 5.2426                14.7282
 Frc consts  --      0.1573                 1.0022                 3.4501
 IR Inten    --    136.5413                16.3230                 3.4992

                     10                     11                     12
                      A                      A                      A
 Frequencies --    693.4346               788.4366               975.5785
 Red. masses --     17.6586                12.3615                11.6414
 Frc consts  --      5.0029                 4.5275                 6.5280
 IR Inten    --      5.1735                56.4814                76.4595

                     13                     14                     15
                      A                      A                      A
 Frequencies --   1200.3804              1220.2985              1300.1060
 Red. masses --     11.5262                 1.8621                13.8392
 Frc consts  --      9.7853                 1.6337                13.7822
 IR Inten    --    282.1908                60.3117               136.0479

                     16                     17                     18
                      A                      A                      A
 Frequencies --   1367.2227              1987.4931              3856.7969
 Red. masses --      3.0135                10.9881                 1.0658
 Frc consts  --      3.3189                25.5731                 9.3405
 IR Inten    --    514.2770               496.1930               139.3188

 - Thermochemistry -
 -------------------
 Temperature   298.150 Kelvin.  Pressure   1.00000 Atm.
 Atom     1 has atomic number  6 and mass  12.00000

 Molecular mass:   113.99286 amu.
 Principal axes and moments of inertia in atomic units:
                           1         2         3
     Eigenvalues --   437.753791317.341271464.98018
           X            0.83509  -0.54946  -0.02681
           Y            0.23240   0.30820   0.92250
           Z            0.49862   0.77660  -0.38507
 This molecule is an asymmetric top.
 Rotational symmetry number  1.
 Warning -- assumption of classical behavior for rotation
           may cause significant error
 Rotational temperatures (Kelvin)      0.19786     0.06575     0.05912
 Rotational constants (GHZ):           4.12273     1.36999     1.23192
 Zero-point vibrational energy      92676.6 (Joules/Mol)
                                   22.15025 (Kcal/Mol)
 Warning -- explicit consideration of   8 degrees of freedom as
           vibrations may cause significant error
 Vibrational temperatures:     18.64    32.46    58.95    98.00   113.68
          (Kelvin)            277.80   701.72   819.56   907.21   997.70
                             1134.38  1403.64  1727.08  1755.74  1870.56
                             1967.13  2859.56  5549.07

 Zero-point correction=                           0.035299 (Hartree/Particle)
 Thermal correction to Energy=                    0.043783
 Thermal correction to Enthalpy=                  0.044728
 Thermal correction to Gibbs Free Energy=        -0.002840
 Sum of electronic and zero-point Energies=           -526.729836
 Sum of electronic and thermal Energies=              -526.721351
 Sum of electronic and thermal Enthalpies=            -526.720407
 Sum of electronic and thermal Free Energies=         -526.767975

                     E (Thermal)             CV                S
                      KCal/Mol        Cal/Mol-Kelvin    Cal/Mol-Kelvin
 Total                   27.475             23.630            100.115
 Electronic               0.000              0.000              0.000
 Translational            0.889              2.981             40.108
 Rotational               0.889              2.981             28.226
 Vibrational             25.697             17.669             31.781
 Vibration     1          0.593              1.987              7.497
 Vibration     2          0.593              1.985              6.395
 Vibration     3          0.594              1.981              5.211
 Vibration     4          0.598              1.969              4.207
 Vibration     5          0.600              1.963              3.915
 Vibration     6          0.635              1.849              2.198
 Vibration     7          0.844              1.277              0.690
 Vibration     8          0.926              1.097              0.505

                           ! Non-Optimized Parameters !
 Normal termination of Gaussian 16 at Sun May 25 04:19:15 2025.
