 Gaussian 16, Revision C.01,
 Gaussian 16:  ES64L-G16RevC.01  3-Jul-2019

 -----------------------------------------------------------------
 #P M062X/Def2TZVPP Symm(None) scf(xqc) pop(None) freq opt(CalcFC)
 -----------------------------------------------------------------

 ------------------------------
 Gaussian input prepared by ASE
 ------------------------------
 Symbolic Z-matrix:
 Charge =  0 Multiplicity = 1

 SCF Done:  E(RM062X) =  -526.784505850     A.U. after   13 cycles
 SCF Done:  E(RM062X) =  -526.785816600     A.U. after   12 cycles
 SCF Done:  E(RM062X) =  -526.785832658     A.U. after   10 cycles
 SCF Done:  E(RM062X) =  -526.785833335     A.U. after    8 cycles
 Optimization completed.
    -- Stationary point found.
 Normal termination of Gaussian 16 at Sun May 25 04:15:38 2025.

 ---------------------------------------------------------------------
 #P Geom=AllCheck Guess=TCheck SCRF=Check GenChk RM062X/def2TZVPP Freq
 ---------------------------------------------------------------------

 Structure from the checkpoint file:  "1141903082400600000001_r12_insertion_R_2_1_3_IRC_F_prod.chk"
 ------------------------------
 Gaussian input prepared by ASE
 ------------------------------
 Charge =  0 Multiplicity = 1

                          Input orientation:
 ---------------------------------------------------------------------
 Center     Atomic      Atomic             Coordinates (Angstroms)
 Number     Number       Type             X           Y           Z
 ---------------------------------------------------------------------
      1          6           0        1.279522    0.505290    0.852138
      2          8           0        0.658635    0.214989   -0.319095
      3          6           0       -0.642357   -0.225309   -0.203758
      4          9           0       -1.411280    0.685401    0.361354
      5          9           0       -1.076343   -0.456006   -1.428319
      6          9           0       -0.713756   -1.341145    0.496072
      7          8           0        2.471605    0.895696    0.542910
      8          1           0        2.637927    0.890141   -0.419873
 ---------------------------------------------------------------------

 SCF Done:  E(RM062X) =  -526.785833335     A.U. after    1 cycles

 Isotropic polarizability for W=    0.000000       34.72 Bohr**3.
 End of Minotr F.D. properties file   721 does not exist.

                      1                      2                      3
                      A                      A                      A
 Frequencies --    110.9471               146.3058               212.2263
 Red. masses --      7.0238                 5.7602                12.4291
 Frc consts  --      0.0509                 0.0726                 0.3298
 IR Inten    --     18.4951                 9.8748                 4.3604

                      4                      5                      6
                      A                      A                      A
 Frequencies --    437.4799               443.6717               467.2376
 Red. masses --     13.7366                17.4602                 7.3697
 Frc consts  --      1.5490                 2.0250                 0.9479
 IR Inten    --      2.4961                 1.3534                 8.9643

                      7                      8                      9
                      A                      A                      A
 Frequencies --    621.7491               635.7553               751.0739
 Red. masses --     12.1746                16.5280                 9.9636
 Frc consts  --      2.7729                 3.9360                 3.3115
 IR Inten    --      0.4239                 0.9620                11.8168

                     10                     11                     12
                      A                      A                      A
 Frequencies --    780.9089               945.7317              1114.9330
 Red. masses --      1.3086                 7.3109                10.3766
 Frc consts  --      0.4702                 3.8526                 7.5998
 IR Inten    --    115.0947                35.8108               201.0782

                     13                     14                     15
                      A                      A                      A
 Frequencies --   1221.6639              1310.6979              1320.4883
 Red. masses --      3.4096                13.0361                 6.9187
 Frc consts  --      2.9982                13.1948                 7.1079
 IR Inten    --    919.1309               348.4047               333.0729

                     16                     17                     18
                      A                      A                      A
 Frequencies --   1380.7241              1430.5325              3618.3465
 Red. masses --      2.6769                 6.8231                 1.0625
 Frc consts  --      3.0067                 8.2267                 8.1960
 IR Inten    --     53.8332                75.8974                22.9085

 - Thermochemistry -
 -------------------
 Temperature   298.150 Kelvin.  Pressure   1.00000 Atm.
 Atom     1 has atomic number  6 and mass  12.00000

 Molecular mass:   113.99286 amu.
 Principal axes and moments of inertia in atomic units:
                           1         2         3
     Eigenvalues --   331.617381012.254691031.00175
           X            0.90841  -0.26291  -0.32506
           Y            0.32958  -0.02805   0.94371
           Z            0.25722   0.96441  -0.06117
 This molecule is an asymmetric top.
 Rotational symmetry number  1.
 Rotational temperatures (Kelvin)      0.26119     0.08557     0.08401
 Rotational constants (GHZ):           5.44224     1.78289     1.75047
 Zero-point vibrational energy     101386.3 (Joules/Mol)
                                   24.23192 (Kcal/Mol)
 Warning -- explicit consideration of   6 degrees of freedom as
           vibrations may cause significant error
 Vibrational temperatures:    159.63   210.50   305.35   629.44   638.34
          (Kelvin)            672.25   894.56   914.71  1080.63  1123.55
                             1360.70  1604.14  1757.70  1885.80  1899.89
                             1986.55  2058.22  5205.99

 Zero-point correction=                           0.038616 (Hartree/Particle)
 Thermal correction to Energy=                    0.044735
 Thermal correction to Enthalpy=                  0.045679
 Thermal correction to Gibbs Free Energy=         0.007945
 Sum of electronic and zero-point Energies=           -526.747217
 Sum of electronic and thermal Energies=              -526.741099
 Sum of electronic and thermal Enthalpies=            -526.740154
 Sum of electronic and thermal Free Energies=         -526.777889

                     E (Thermal)             CV                S
                      KCal/Mol        Cal/Mol-Kelvin    Cal/Mol-Kelvin
 Total                   28.072             20.466             79.419
 Electronic               0.000              0.000              0.000
 Translational            0.889              2.981             40.108
 Rotational               0.889              2.981             27.339
 Vibrational             26.294             14.505             11.971
 Vibration     1          0.607              1.940              3.252
 Vibration     2          0.617              1.907              2.720
 Vibration     3          0.643              1.822              2.024
 Vibration     4          0.798              1.388              0.835
 Vibration     5          0.803              1.375              0.815
 Vibration     6          0.825              1.323              0.745

 Optimization completed.
    -- Stationary point found.
 Normal termination of Gaussian 16 at Sun May 25 04:16:47 2025.
