 Gaussian 16, Revision C.01,
 Gaussian 16:  ES64L-G16RevC.01  3-Jul-2019

 ----------------------------------------------------------------------
 #P M062X/Def2TZVPP Symm(None) scf(xqc) pop(None) geom(AllCheck,NoKeepC
 onstants) guess(Read) irc(RCFC,reverse,MaxPoints=100,StepSize=2)
 ----------------------------------------------------------------------

 Structure from the checkpoint file:  "1141903082400600000001_r12_insertion_R_4_3_5_IRC_R.chk"
 ------------------------------
 Gaussian input prepared by ASE
 ------------------------------
 Charge =  0 Multiplicity = 1

 SCF Done:  E(RM062X) =  -526.605754636     A.U. after   19 cycles
 SCF Done:  E(RM062X) =  -526.605796060     A.U. after   23 cycles
 SCF Done:  E(RM062X) =  -526.605860785     A.U. after   22 cycles
 SCF Done:  E(RM062X) =  -526.605947758     A.U. after   23 cycles
 SCF Done:  E(RM062X) =  -526.606055201     A.U. after   23 cycles
 SCF Done:  E(RM062X) =  -526.606181240     A.U. after   23 cycles
 SCF Done:  E(RM062X) =  -526.606324010     A.U. after   23 cycles
 SCF Done:  E(RM062X) =  -526.606481742     A.U. after   23 cycles
 SCF Done:  E(RM062X) =  -526.606652810     A.U. after   22 cycles
 SCF Done:  E(RM062X) =  -526.606835746     A.U. after   18 cycles
 SCF Done:  E(RM062X) =  -526.626210538     A.U. after   14 cycles
 SCF Done:  E(RM062X) =  -526.626415294     A.U. after   14 cycles
 SCF Done:  E(RM062X) =  -526.626619963     A.U. after   14 cycles
 SCF Done:  E(RM062X) =  -526.626824607     A.U. after   14 cycles
 SCF Done:  E(RM062X) =  -526.627029225     A.U. after   14 cycles
 SCF Done:  E(RM062X) =  -526.627233608     A.U. after   15 cycles
 SCF Done:  E(RM062X) =  -526.627437409     A.U. after   15 cycles
 SCF Done:  E(RM062X) =  -526.627641886     A.U. after   15 cycles
 SCF Done:  E(RM062X) =  -526.627848935     A.U. after   15 cycles
 SCF Done:  E(RM062X) =  -526.628059562     A.U. after   14 cycles

                          Input orientation:
 ---------------------------------------------------------------------
 Center     Atomic      Atomic             Coordinates (Angstroms)
 Number     Number       Type             X           Y           Z
 ---------------------------------------------------------------------
      1          6           0        1.256506   -0.185054    0.198609
      2          8           0        1.987696   -1.101010    0.407501
      3          6           0       -0.235636   -0.411711    0.199214
      4          9           0       -1.056597    0.460528    0.453499
      5          9           0       -2.019410    1.450388   -1.068058
      6          9           0       -0.665237   -1.585012    0.008472
      7          8           0        1.532968    1.084974    0.010672
      8          1           0        2.491519    1.219755    0.049586
 ---------------------------------------------------------------------

 Normal termination of Gaussian 16 at Sun May 25 04:25:20 2025.
