 Gaussian 16, Revision C.01,
 Gaussian 16:  ES64L-G16RevC.01  3-Jul-2019

 ----------------------------------------------------------------------
 #P M062X/Def2TZVPP Symm(None) scf(xqc) pop(None) opt(NoFreeze,TS,CalcA
 ll,NoEigentest,MaxCycle=999)
 ----------------------------------------------------------------------

 ------------------------------
 Gaussian input prepared by ASE
 ------------------------------
 Symbolic Z-matrix:
 Charge =  0 Multiplicity = 1

 SCF Done:  E(RM062X) =  -526.684783271     A.U. after   16 cycles
 SCF Done:  E(RM062X) =  -526.690633460     A.U. after   14 cycles
 SCF Done:  E(RM062X) =  -526.692272735     A.U. after   11 cycles
 SCF Done:  E(RM062X) =  -526.712726269     A.U. after   15 cycles
 SCF Done:  E(RM062X) =  -526.724116854     A.U. after   14 cycles
 SCF Done:  E(RM062X) =  -526.726217551     A.U. after   14 cycles
 SCF Done:  E(RM062X) =  -526.726998537     A.U. after   13 cycles
 SCF Done:  E(RM062X) =  -526.727263636     A.U. after   13 cycles
 SCF Done:  E(RM062X) =  -526.727293276     A.U. after   12 cycles

 Isotropic polarizability for W=    0.000000       34.38 Bohr**3.
 End of Minotr F.D. properties file   721 does not exist.

 Optimization completed.
    -- Stationary point found.

                          Input orientation:
 ---------------------------------------------------------------------
 Center     Atomic      Atomic             Coordinates (Angstroms)
 Number     Number       Type             X           Y           Z
 ---------------------------------------------------------------------
      1          6           0        1.551193   -0.463850    0.048473
      2          8           0        2.673871   -0.852047    0.099367
      3          6           0       -0.024153    0.080878   -0.022717
      4          9           0       -0.285631    0.812491    1.023970
      5          9           0       -0.223099    0.711822   -1.145771
      6          9           0       -0.874789   -0.955533    0.000846
      7          8           0        1.772911    1.031871   -0.017299
      8          1           0        2.729317    1.138644    0.012043
 ---------------------------------------------------------------------

 ******    1 imaginary frequencies (negative Signs) ******

                      1                      2                      3
                      A                      A                      A
 Frequencies --   -170.1790               239.0231               305.3535
 Red. masses --     16.5108                14.6538                16.7684
 Frc consts  --      0.2817                 0.4933                 0.9212
 IR Inten    --      0.9728                 8.6428                18.4503

                      4                      5                      6
                      A                      A                      A
 Frequencies --    345.2314               443.1094               462.5615
 Red. masses --     13.5076                 1.2289                10.6548
 Frc consts  --      0.9485                 0.1422                 1.3432
 IR Inten    --     13.3943                54.7486                32.1206

                      7                      8                      9
                      A                      A                      A
 Frequencies --    559.2813               565.0232               573.9549
 Red. masses --      7.6654                15.0545                13.8226
 Frc consts  --      1.4127                 2.8317                 2.6828
 IR Inten    --     34.8763               108.8522                58.8046

                     10                     11                     12
                      A                      A                      A
 Frequencies --    748.4044               752.7066               802.3253
 Red. masses --      8.3952                 7.4288                 4.3345
 Frc consts  --      2.7705                 2.4798                 1.6440
 IR Inten    --     33.3333                85.6991                48.1448

                     13                     14                     15
                      A                      A                      A
 Frequencies --   1103.3923              1197.9319              1265.3074
 Red. masses --     13.1136                 1.9066                 3.9442
 Frc consts  --      9.4066                 1.6121                 3.7205
 IR Inten    --    398.7713               204.7914               192.4990

                     16                     17                     18
                      A                      A                      A
 Frequencies --   1355.7787              1848.4226              3848.4660
 Red. masses --     13.2208                10.2886                 1.0663
 Frc consts  --     14.3181                20.7114                 9.3045
 IR Inten    --    300.1764               168.7097                85.2672

 - Thermochemistry -
 -------------------
 Temperature   298.150 Kelvin.  Pressure   1.00000 Atm.
 Atom     1 has atomic number  6 and mass  12.00000

 Molecular mass:   113.99286 amu.
 Principal axes and moments of inertia in atomic units:
                           1         2         3
     Eigenvalues --   411.27351 806.64761 897.57126
           X            0.99515   0.09405  -0.02868
           Y           -0.09261   0.99454   0.04813
           Z            0.03305  -0.04524   0.99843
 This molecule is an asymmetric top.
 Rotational symmetry number  1.
 Rotational temperatures (Kelvin)      0.21060     0.10738     0.09650
 Rotational constants (GHZ):           4.38818     2.23734     2.01069
    1 imaginary frequencies ignored.
 Zero-point vibrational energy      98191.1 (Joules/Mol)
                                   23.46824 (Kcal/Mol)
 Warning -- explicit consideration of   8 degrees of freedom as
           vibrations may cause significant error
 Vibrational temperatures:    343.90   439.34   496.71   637.54   665.52
          (Kelvin)            804.68   812.94   825.79  1076.79  1082.98
                             1154.37  1587.54  1723.56  1820.50  1950.66
                             2659.47  5537.08

 Zero-point correction=                           0.037399 (Hartree/Particle)
 Thermal correction to Energy=                    0.042906
 Thermal correction to Enthalpy=                  0.043850
 Thermal correction to Gibbs Free Energy=         0.007900
 Sum of electronic and zero-point Energies=           -526.689894
 Sum of electronic and thermal Energies=              -526.684388
 Sum of electronic and thermal Enthalpies=            -526.683443
 Sum of electronic and thermal Free Energies=         -526.719393

                     E (Thermal)             CV                S
                      KCal/Mol        Cal/Mol-Kelvin    Cal/Mol-Kelvin
 Total                   26.924             19.926             75.663
 Electronic               0.000              0.000              0.000
 Translational            0.889              2.981             40.108
 Rotational               0.889              2.981             27.190
 Vibrational             25.146             13.964              8.364
 Vibration     1          0.657              1.781              1.810
 Vibration     2          0.696              1.664              1.387
 Vibration     3          0.724              1.585              1.188
 Vibration     4          0.803              1.376              0.817
 Vibration     5          0.820              1.333              0.759
 Vibration     6          0.915              1.119              0.525
 Vibration     7          0.921              1.107              0.514
 Vibration     8          0.930              1.088              0.497

 Normal termination of Gaussian 16 at Sun May 25 03:54:09 2025.
