 Gaussian 16, Revision C.01,
 Gaussian 16:  ES64L-G16RevC.01  3-Jul-2019

 ----------------------------------------------------------------------
 #P mp2/6-31G Symm(None) scf(xqc) pop(None) guess(Mix,Always) freq opt(
 CalcFC)
 ----------------------------------------------------------------------

 ------------------------------
 Gaussian input prepared by ASE
 ------------------------------
 Symbolic Z-matrix:
 Charge =  0 Multiplicity = 1

 SCF Done:  E(RHF) =  -524.144776634     A.U. after   17 cycles
 E2 =    -0.8088164656D+00 EUMP2 =    -0.52495359309928D+03
 E2 =    -0.8088164656D+00 EUMP2 =    -0.52495359309928D+03
 SCF Done:  E(RHF) =  -524.145040114     A.U. after   17 cycles
 E2 =    -0.8087445998D+00 EUMP2 =    -0.52495378471340D+03
 SCF Done:  E(RHF) =  -524.145844647     A.U. after   17 cycles
 E2 =    -0.8085119582D+00 EUMP2 =    -0.52495435660541D+03
 SCF Done:  E(RHF) =  -524.143674550     A.U. after   17 cycles
 E2 =    -0.8081129261D+00 EUMP2 =    -0.52495178747576D+03
 SCF Done:  E(RHF) =  -524.146538296     A.U. after   17 cycles
 E2 =    -0.8082802223D+00 EUMP2 =    -0.52495481851849D+03
 SCF Done:  E(RHF) =  -524.146943790     A.U. after   17 cycles
 E2 =    -0.8080454493D+00 EUMP2 =    -0.52495498923900D+03
 SCF Done:  E(RHF) =  -524.147108886     A.U. after   17 cycles
 E2 =    -0.8079841635D+00 EUMP2 =    -0.52495509304898D+03
 SCF Done:  E(RHF) =  -524.147073333     A.U. after   17 cycles
 E2 =    -0.8080334618D+00 EUMP2 =    -0.52495510679501D+03
 SCF Done:  E(RHF) =  -524.147065318     A.U. after   17 cycles
 E2 =    -0.8080424104D+00 EUMP2 =    -0.52495510772850D+03
 SCF Done:  E(RHF) =  -524.147068184     A.U. after   17 cycles
 E2 =    -0.8080397326D+00 EUMP2 =    -0.52495510791625D+03
 Optimization completed.
    -- Stationary point found.
 Normal termination of Gaussian 16 at Sun May 25 03:44:01 2025.

 -------------------------------------------------------------------
 #P Geom=AllCheck Guess=TCheck SCRF=Check GenChk RMP2(FC)/6-31G Freq
 -------------------------------------------------------------------

 Structure from the checkpoint file:  "1141903082400600000001_R_Addition_MultipleBond_1_3_4_IRC_R_prod.chk"
 ------------------------------
 Gaussian input prepared by ASE
 ------------------------------
 Charge =  0 Multiplicity = 1

                          Input orientation:
 ---------------------------------------------------------------------
 Center     Atomic      Atomic             Coordinates (Angstroms)
 Number     Number       Type             X           Y           Z
 ---------------------------------------------------------------------
      1          6           0        1.002499   -0.079922   -0.091450
      2          8           0        1.693215   -1.112664   -0.134697
      3          6           0       -0.528065   -0.057710   -0.025481
      4          9           0       -0.967267    0.586647    1.135645
      5          9           0       -1.064275    0.616268   -1.127560
      6          9           0       -1.029739   -1.354756   -0.020952
      7          8           0        1.473404    1.213756   -0.094653
      8          1           0        2.457148    1.237624   -0.136593
 ---------------------------------------------------------------------

 SCF Done:  E(RHF) =  -524.147068184     A.U. after    1 cycles
 E2 =    -0.8080397313D+00 EUMP2 =    -0.52495510791498D+03
 E2 =    -0.8080397313D+00 EUMP2 =    -0.52495510791498D+03

                      1                      2                      3
                      A                      A                      A
 Frequencies --     40.7943               240.8393               241.1421
 Red. masses --     13.9493                10.2181                11.4252
 Frc consts  --      0.0137                 0.3492                 0.3914
 IR Inten    --      1.0454                 0.0877                 0.9732

                      4                      5                      6
                      A                      A                      A
 Frequencies --    386.8747               405.1909               465.8378
 Red. masses --     11.8687                15.8761                 9.2195
 Frc consts  --      1.0466                 1.5357                 1.1788
 IR Inten    --      2.7147                 0.8093                 0.0358

                      7                      8                      9
                      A                      A                      A
 Frequencies --    557.9857               598.1261               629.8944
 Red. masses --     13.3571                 1.2102                 6.4327
 Frc consts  --      2.4502                 0.2551                 1.5038
 IR Inten    --     14.9545               183.0960                65.3930

                     10                     11                     12
                      A                      A                      A
 Frequencies --    738.3887               747.5963              1081.9793
 Red. masses --     10.9762                 8.3103                 4.4293
 Frc consts  --      3.5259                 2.7365                 3.0551
 IR Inten    --     29.9898                 7.2758               324.2357

                     13                     14                     15
                      A                      A                      A
 Frequencies --   1172.3049              1192.1320              1239.3697
 Red. masses --     12.8461                 4.7967                 3.6421
 Frc consts  --     10.4017                 4.0164                 3.2961
 IR Inten    --    256.5608               244.8822                53.8472

                     16                     17                     18
                      A                      A                      A
 Frequencies --   1424.7100              1701.0992              3608.5060
 Red. masses --      3.6540                10.4194                 1.0645
 Frc consts  --      4.3699                17.7644                 8.1667
 IR Inten    --     32.4288               147.1487                88.1815

 - Thermochemistry -
 -------------------
 Temperature   298.150 Kelvin.  Pressure   1.00000 Atm.
 Atom     1 has atomic number  6 and mass  12.00000

 Molecular mass:   113.99286 amu.
 Principal axes and moments of inertia in atomic units:
                           1         2         3
     Eigenvalues --   507.55059 752.49809 911.84440
           X            0.99724  -0.06059   0.04288
           Y            0.06120   0.99804  -0.01314
           Z           -0.04200   0.01573   0.99899
 This molecule is an asymmetric top.
 Rotational symmetry number  1.
 Warning -- assumption of classical behavior for rotation
           may cause significant error
 Rotational temperatures (Kelvin)      0.17065     0.11510     0.09499
 Rotational constants (GHZ):           3.55579     2.39833     1.97922
 Zero-point vibrational energy      98529.1 (Joules/Mol)
                                   23.54901 (Kcal/Mol)
 Warning -- explicit consideration of   8 degrees of freedom as
           vibrations may cause significant error
 Vibrational temperatures:     58.69   346.51   346.95   556.63   582.98
          (Kelvin)            670.24   802.82   860.57   906.28  1062.38
                             1075.62  1556.73  1686.69  1715.21  1783.18
                             2049.84  2447.50  5191.84

 Zero-point correction=                           0.037528 (Hartree/Particle)
 Thermal correction to Energy=                    0.043859
 Thermal correction to Enthalpy=                  0.044803
 Thermal correction to Gibbs Free Energy=         0.006278
 Sum of electronic and zero-point Energies=           -524.917580
 Sum of electronic and thermal Energies=              -524.911249
 Sum of electronic and thermal Enthalpies=            -524.910304
 Sum of electronic and thermal Free Energies=         -524.948830

                     E (Thermal)             CV                S
                      KCal/Mol        Cal/Mol-Kelvin    Cal/Mol-Kelvin
 Total                   27.522             21.450             81.083
 Electronic               0.000              0.000              0.000
 Translational            0.889              2.981             40.108
 Rotational               0.889              2.981             27.346
 Vibrational             25.745             15.488             13.629
 Vibration     1          0.594              1.981              5.220
 Vibration     2          0.658              1.778              1.797
 Vibration     3          0.658              1.777              1.794
 Vibration     4          0.755              1.498              1.012
 Vibration     5          0.770              1.459              0.944
 Vibration     6          0.823              1.326              0.749
 Vibration     7          0.914              1.122              0.528
 Vibration     8          0.956              1.036              0.453

 Optimization completed.
    -- Stationary point found.
 Normal termination of Gaussian 16 at Sun May 25 03:44:10 2025.
