 Gaussian 16, Revision C.01,
 Gaussian 16:  ES64L-G16RevC.01  3-Jul-2019

 ----------------------------------------------------------------------
 #P M062X/Def2TZVPP Symm(None) scf(xqc) pop(None) opt(NoFreeze,TS,CalcA
 ll,NoEigentest,MaxCycle=999)
 ----------------------------------------------------------------------

 ------------------------------
 Gaussian input prepared by ASE
 ------------------------------
 Symbolic Z-matrix:
 Charge =  0 Multiplicity = 1

 SCF Done:  E(RM062X) =  -526.656853076     A.U. after   17 cycles
 SCF Done:  E(RM062X) =  -526.705059271     A.U. after   14 cycles
 SCF Done:  E(RM062X) =  -526.746398208     A.U. after   14 cycles
 SCF Done:  E(RM062X) =  -526.779652075     A.U. after   14 cycles
 SCF Done:  E(RM062X) =  -526.787500299     A.U. after   14 cycles
 SCF Done:  E(RM062X) =  -526.789146457     A.U. after   12 cycles
 SCF Done:  E(RM062X) =  -526.788198452     A.U. after   16 cycles
 SCF Done:  E(RM062X) =  -526.789140711     A.U. after   15 cycles
 SCF Done:  E(RM062X) =  -526.789151330     A.U. after   11 cycles
 SCF Done:  E(RM062X) =  -526.789151521     A.U. after   11 cycles
 SCF Done:  E(RM062X) =  -526.789151525     A.U. after    8 cycles

 Isotropic polarizability for W=    0.000000       32.21 Bohr**3.
 End of Minotr F.D. properties file   721 does not exist.

 Optimization completed.
    -- Stationary point found.

                          Input orientation:
 ---------------------------------------------------------------------
 Center     Atomic      Atomic             Coordinates (Angstroms)
 Number     Number       Type             X           Y           Z
 ---------------------------------------------------------------------
      1          6           0        1.478881    0.309294   -0.014999
      2          8           0        2.240565   -0.005370   -0.959800
      3          6           0       -0.023091    0.018426    0.001325
      4          9           0       -0.676085    0.995429    0.608658
      5          9           0       -0.488395   -0.113132   -1.228454
      6          9           0       -0.229667   -1.114534    0.663863
      7          8           0        2.084218    0.857942    0.936289
      8          1           0        2.933200    0.556217   -0.007967
 ---------------------------------------------------------------------

 ******    1 imaginary frequencies (negative Signs) ******

                      1                      2                      3
                      A                      A                      A
 Frequencies --  -1995.0483                10.5895               226.0001
 Red. masses --      1.0987                16.7328                14.7073
 Frc consts  --      2.5766                 0.0011                 0.4426
 IR Inten    --    381.9015                 0.0645                 0.9023

                      4                      5                      6
                      A                      A                      A
 Frequencies --    232.3338               415.3846               427.9706
 Red. masses --     10.8356                14.4825                16.8661
 Frc consts  --      0.3446                 1.4723                 1.8201
 IR Inten    --      1.8394                 0.4720                 0.1338

                      7                      8                      9
                      A                      A                      A
 Frequencies --    517.1913               600.4009               746.7711
 Red. masses --     13.4062                17.2272                 5.9244
 Frc consts  --      2.1128                 3.6589                 1.9466
 IR Inten    --      3.5681                 3.4723                 0.4254

                     10                     11                     12
                      A                      A                      A
 Frequencies --    780.5318               973.5794              1177.9314
 Red. masses --     16.9173                14.3565                 1.2461
 Frc consts  --      6.0724                 8.0176                 1.0187
 IR Inten    --     35.9227                73.4318                70.3131

                     13                     14                     15
                      A                      A                      A
 Frequencies --   1259.2335              1275.0716              1301.1011
 Red. masses --     12.5350                12.4926                13.1138
 Frc consts  --     11.7108                11.9667                13.0798
 IR Inten    --    274.5721               306.0630               293.4969

                     16                     17                     18
                      A                      A                      A
 Frequencies --   1604.3571              1732.2299              2239.0983
 Red. masses --      7.3868                 8.4496                 1.0967
 Frc consts  --     11.2023                14.9382                 3.2395
 IR Inten    --     35.7040               507.6542                76.7770

 - Thermochemistry -
 -------------------
 Temperature   298.150 Kelvin.  Pressure   1.00000 Atm.
 Atom     1 has atomic number  6 and mass  12.00000

 Molecular mass:   113.99286 amu.
 Principal axes and moments of inertia in atomic units:
                           1         2         3
     Eigenvalues --   439.90180 757.41394 881.53847
           X            0.98334  -0.07114  -0.16726
           Y            0.18167   0.41408   0.89193
           Z           -0.00581   0.90745  -0.42011
 This molecule is an asymmetric top.
 Rotational symmetry number  1.
 Warning -- assumption of classical behavior for rotation
           may cause significant error
 Rotational temperatures (Kelvin)      0.19689     0.11435     0.09825
 Rotational constants (GHZ):           4.10260     2.38277     2.04726
    1 imaginary frequencies ignored.
 Zero-point vibrational energy      92828.9 (Joules/Mol)
                                   22.18663 (Kcal/Mol)
 Warning -- explicit consideration of   7 degrees of freedom as
           vibrations may cause significant error
 Vibrational temperatures:     15.24   325.16   334.28   597.65   615.75
          (Kelvin)            744.12   863.84  1074.44  1123.01  1400.76
                             1694.78  1811.76  1834.54  1871.99  2308.31
                             2492.29  3221.56

 Zero-point correction=                           0.035357 (Hartree/Particle)
 Thermal correction to Energy=                    0.041372
 Thermal correction to Enthalpy=                  0.042316
 Thermal correction to Gibbs Free Energy=         0.003107
 Sum of electronic and zero-point Energies=           -526.753795
 Sum of electronic and thermal Energies=              -526.747779
 Sum of electronic and thermal Enthalpies=            -526.746835
 Sum of electronic and thermal Free Energies=         -526.786044

                     E (Thermal)             CV                S
                      KCal/Mol        Cal/Mol-Kelvin    Cal/Mol-Kelvin
 Total                   25.961             19.249             82.522
 Electronic               0.000              0.000              0.000
 Translational            0.889              2.981             40.108
 Rotational               0.889              2.981             27.176
 Vibrational             24.184             13.288             15.238
 Vibration     1          0.593              1.987              7.897
 Vibration     2          0.650              1.801              1.910
 Vibration     3          0.653              1.791              1.861
 Vibration     4          0.779              1.437              0.908
 Vibration     5          0.789              1.409              0.865
 Vibration     6          0.872              1.212              0.617
 Vibration     7          0.959              1.031              0.449

 Normal termination of Gaussian 16 at Sun May 25 03:54:26 2025.
