 Gaussian 16, Revision C.01,
 Gaussian 16:  ES64L-G16RevC.01  3-Jul-2019

 ----------------------------------------------------------------------
 #P M062X/Def2TZVPP Symm(None) scf(xqc) pop(None) geom(AllCheck,NoKeepC
 onstants) guess(Read) irc(RCFC,forward,MaxPoints=100,StepSize=2)
 ----------------------------------------------------------------------

 Structure from the checkpoint file:  "1141903082400600000001_r12_insertion_R_2_1_3_IRC_F.chk"
 ------------------------------
 Gaussian input prepared by ASE
 ------------------------------
 Charge =  0 Multiplicity = 1

 SCF Done:  E(RM062X) =  -526.691378892     A.U. after   10 cycles
 SCF Done:  E(RM062X) =  -526.691547038     A.U. after   12 cycles
 SCF Done:  E(RM062X) =  -526.691825766     A.U. after   12 cycles
 SCF Done:  E(RM062X) =  -526.692213045     A.U. after   12 cycles
 SCF Done:  E(RM062X) =  -526.692706213     A.U. after   12 cycles
 SCF Done:  E(RM062X) =  -526.693302037     A.U. after   12 cycles
 SCF Done:  E(RM062X) =  -526.693996797     A.U. after   11 cycles
 SCF Done:  E(RM062X) =  -526.694786383     A.U. after   11 cycles
 SCF Done:  E(RM062X) =  -526.695666389     A.U. after   11 cycles
 SCF Done:  E(RM062X) =  -526.696632208     A.U. after   11 cycles
 SCF Done:  E(RM062X) =  -526.783193575     A.U. after    9 cycles
 SCF Done:  E(RM062X) =  -526.783368548     A.U. after    9 cycles
 SCF Done:  E(RM062X) =  -526.783531284     A.U. after    9 cycles
 SCF Done:  E(RM062X) =  -526.783684603     A.U. after    9 cycles
 SCF Done:  E(RM062X) =  -526.783840515     A.U. after    9 cycles
 SCF Done:  E(RM062X) =  -526.783990550     A.U. after    9 cycles
 SCF Done:  E(RM062X) =  -526.784129573     A.U. after    9 cycles
 SCF Done:  E(RM062X) =  -526.784261544     A.U. after    9 cycles
 SCF Done:  E(RM062X) =  -526.784386926     A.U. after    9 cycles
 SCF Done:  E(RM062X) =  -526.784505854     A.U. after    9 cycles

                          Input orientation:
 ---------------------------------------------------------------------
 Center     Atomic      Atomic             Coordinates (Angstroms)
 Number     Number       Type             X           Y           Z
 ---------------------------------------------------------------------
      1          6           0        1.284252    0.432919    0.841146
      2          8           0        0.704627    0.084395   -0.340373
      3          6           0       -0.626890   -0.247327   -0.209745
      4          9           0       -1.287562    0.747223    0.355028
      5          9           0       -1.110233   -0.450166   -1.420076
      6          9           0       -0.793611   -1.340683    0.507452
      7          8           0        2.428781    0.953257    0.554237
      8          1           0        2.604590    0.989439   -0.406241
 ---------------------------------------------------------------------

 Normal termination of Gaussian 16 at Sun May 25 04:13:52 2025.
