 Gaussian 16, Revision C.01,
 Gaussian 16:  ES64L-G16RevC.01  3-Jul-2019

 -----------------------------------------------------------------
 #P M062X/Def2TZVPP Symm(None) scf(xqc) pop(None) freq opt(CalcFC)
 -----------------------------------------------------------------

 ------------------------------
 Gaussian input prepared by ASE
 ------------------------------
 Symbolic Z-matrix:
 Charge =  0 Multiplicity = 1

 SCF Done:  E(RM062X) =  -526.628009411     A.U. after   22 cycles
 SCF Done:  E(RM062X) =  -526.638756034     A.U. after   20 cycles
 SCF Done:  E(RM062X) =  -526.696602616     A.U. after   19 cycles
 SCF Done:  E(RM062X) =  -526.447957081     A.U. after   15 cycles
 SCF Done:  E(RM062X) =  -526.797312649     A.U. after   14 cycles
 SCF Done:  E(RM062X) =  -526.831032644     A.U. after   16 cycles
 SCF Done:  E(RM062X) =  -526.791923237     A.U. after   16 cycles
 SCF Done:  E(RM062X) =  -526.839312811     A.U. after   13 cycles
 SCF Done:  E(RM062X) =  -526.850812677     A.U. after   12 cycles
 SCF Done:  E(RM062X) =  -526.848854051     A.U. after   13 cycles
 SCF Done:  E(RM062X) =  -526.850959345     A.U. after   13 cycles
 SCF Done:  E(RM062X) =  -526.852682850     A.U. after   11 cycles
 SCF Done:  E(RM062X) =  -526.852729777     A.U. after   12 cycles
 SCF Done:  E(RM062X) =  -526.852757375     A.U. after   12 cycles
 SCF Done:  E(RM062X) =  -526.852765252     A.U. after   11 cycles
 SCF Done:  E(RM062X) =  -526.852766281     A.U. after    8 cycles
 Optimization completed.
    -- Stationary point found.
 Normal termination of Gaussian 16 at Sun May 25 04:30:53 2025.

 ---------------------------------------------------------------------
 #P Geom=AllCheck Guess=TCheck SCRF=Check GenChk RM062X/def2TZVPP Freq
 ---------------------------------------------------------------------

 Structure from the checkpoint file:  "1141903082400600000001_r12_insertion_R_4_3_5_IRC_F_prod.chk"
 ------------------------------
 Gaussian input prepared by ASE
 ------------------------------
 Charge =  0 Multiplicity = 1

                          Input orientation:
 ---------------------------------------------------------------------
 Center     Atomic      Atomic             Coordinates (Angstroms)
 Number     Number       Type             X           Y           Z
 ---------------------------------------------------------------------
      1          6           0        1.000900    0.026437    0.319183
      2          8           0        1.591297   -0.774329    0.968438
      3          6           0       -0.471075   -0.146956   -0.112935
      4          9           0       -0.565110   -0.142021   -1.440601
      5          9           0       -1.211420    0.851109    0.363006
      6          9           0       -0.951567   -1.287808    0.342772
      7          8           0        1.473995    1.179179   -0.142356
      8          1           0        2.395026    1.266224    0.139380
 ---------------------------------------------------------------------

 SCF Done:  E(RM062X) =  -526.852766281     A.U. after    1 cycles

 Isotropic polarizability for W=    0.000000       31.73 Bohr**3.
 End of Minotr F.D. properties file   721 does not exist.

                      1                      2                      3
                      A                      A                      A
 Frequencies --     35.8880               239.8935               246.1207
 Red. masses --     14.4296                11.5231                 9.3180
 Frc consts  --      0.0109                 0.3907                 0.3326
 IR Inten    --      1.6986                 1.3151                 0.0652

                      4                      5                      6
                      A                      A                      A
 Frequencies --    394.6313               432.5999               512.2288
 Red. masses --     12.0981                15.4585                 4.2469
 Frc consts  --      1.1101                 1.7045                 0.6565
 IR Inten    --      2.2039                 0.0437                 5.3855

                      7                      8                      9
                      A                      A                      A
 Frequencies --    590.5629               600.6066               681.4881
 Red. masses --      1.4588                14.2688                 4.8934
 Frc consts  --      0.2998                 3.0326                 1.3390
 IR Inten    --    103.0944                 9.4196                79.3084

                     10                     11                     12
                      A                      A                      A
 Frequencies --    806.9781               824.4589              1178.8050
 Red. masses --     10.0613                 8.7329                 4.1611
 Frc consts  --      3.8604                 3.4974                 3.4068
 IR Inten    --     36.4943                 2.7768               311.0688

                     13                     14                     15
                      A                      A                      A
 Frequencies --   1244.2848              1246.8256              1312.9851
 Red. masses --      2.5608                13.1062                 7.0587
 Frc consts  --      2.3360                12.0043                 7.1696
 IR Inten    --    190.6842               297.6361               193.8109

                     16                     17                     18
                      A                      A                      A
 Frequencies --   1457.6056              1926.3327              3810.8710
 Red. masses --      5.4707                11.7006                 1.0647
 Frc consts  --      6.8481                25.5812                 9.1098
 IR Inten    --     54.5812               320.4185               124.2121

 - Thermochemistry -
 -------------------
 Temperature   298.150 Kelvin.  Pressure   1.00000 Atm.
 Atom     1 has atomic number  6 and mass  12.00000

 Molecular mass:   113.99286 amu.
 Principal axes and moments of inertia in atomic units:
                           1         2         3
     Eigenvalues --   463.60621 717.78669 865.43951
           X            0.95331  -0.03742  -0.29968
           Y            0.17813   0.87098   0.45789
           Z            0.24388  -0.48989   0.83698
 This molecule is an asymmetric top.
 Rotational symmetry number  1.
 Warning -- assumption of classical behavior for rotation
           may cause significant error
 Rotational temperatures (Kelvin)      0.18683     0.12067     0.10008
 Rotational constants (GHZ):           3.89283     2.51431     2.08535
 Zero-point vibrational energy     104931.4 (Joules/Mol)
                                   25.07922 (Kcal/Mol)
 Warning -- explicit consideration of   8 degrees of freedom as
           vibrations may cause significant error
 Vibrational temperatures:     51.63   345.15   354.11   567.79   622.41
          (Kelvin)            736.98   849.69   864.14   980.51  1161.06
                             1186.21  1696.04  1790.25  1793.90  1889.09
                             2097.17  2771.56  5482.99

 Zero-point correction=                           0.039966 (Hartree/Particle)
 Thermal correction to Energy=                    0.046122
 Thermal correction to Enthalpy=                  0.047066
 Thermal correction to Gibbs Free Energy=         0.008794
 Sum of electronic and zero-point Energies=           -526.812800
 Sum of electronic and thermal Energies=              -526.806644
 Sum of electronic and thermal Enthalpies=            -526.805700
 Sum of electronic and thermal Free Energies=         -526.843973

                     E (Thermal)             CV                S
                      KCal/Mol        Cal/Mol-Kelvin    Cal/Mol-Kelvin
 Total                   28.942             20.612             80.551
 Electronic               0.000              0.000              0.000
 Translational            0.889              2.981             40.108
 Rotational               0.889              2.981             27.157
 Vibrational             27.164             14.650             13.286
 Vibration     1          0.594              1.982              5.474
 Vibration     2          0.657              1.779              1.804
 Vibration     3          0.661              1.769              1.758
 Vibration     4          0.762              1.482              0.983
 Vibration     5          0.793              1.399              0.850
 Vibration     6          0.867              1.223              0.628
 Vibration     7          0.948              1.052              0.466
 Vibration     8          0.959              1.031              0.449

 Optimization completed.
    -- Stationary point found.
 Normal termination of Gaussian 16 at Sun May 25 04:32:02 2025.
