 Gaussian 16, Revision C.01,
 Gaussian 16:  ES64L-G16RevC.01  3-Jul-2019

 ----------------------------------------------------------------------
 #P mp2/6-31G Symm(None) scf(xqc) pop(None) guess(Read,Mix) geom(AllChe
 ck,NoKeepConstants) irc(RCFC,forward,MaxPoints=100,StepSize=2)
 ----------------------------------------------------------------------

 Structure from the checkpoint file:  "1141903082400600000001_R_Addition_MultipleBond_1_7_8_IRC_F.chk"
 ------------------------------
 Gaussian input prepared by ASE
 ------------------------------
 Charge =  0 Multiplicity = 1

 SCF Done:  E(RHF) =  -524.043230825     A.U. after   16 cycles
 E2 =    -0.8392488118D+00 EUMP2 =    -0.52488247963698D+03
 SCF Done:  E(RHF) =  -524.043388035     A.U. after   11 cycles
 E2 =    -0.8391850004D+00 EUMP2 =    -0.52488257303542D+03
 SCF Done:  E(RHF) =  -524.043649627     A.U. after   11 cycles
 E2 =    -0.8390789071D+00 EUMP2 =    -0.52488272853377D+03
 SCF Done:  E(RHF) =  -524.044014477     A.U. after   11 cycles
 E2 =    -0.8389313837D+00 EUMP2 =    -0.52488294586090D+03
 SCF Done:  E(RHF) =  -524.044481320     A.U. after   11 cycles
 E2 =    -0.8387433194D+00 EUMP2 =    -0.52488322463984D+03
 SCF Done:  E(RHF) =  -524.045048528     A.U. after   11 cycles
 E2 =    -0.8385158475D+00 EUMP2 =    -0.52488356437520D+03
 SCF Done:  E(RHF) =  -524.045714135     A.U. after   11 cycles
 E2 =    -0.8382503120D+00 EUMP2 =    -0.52488396444692D+03
 SCF Done:  E(RHF) =  -524.046475863     A.U. after   11 cycles
 E2 =    -0.8379482403D+00 EUMP2 =    -0.52488442410353D+03
 SCF Done:  E(RHF) =  -524.047331140     A.U. after   11 cycles
 E2 =    -0.8376113146D+00 EUMP2 =    -0.52488494245511D+03
 SCF Done:  E(RHF) =  -524.048277123     A.U. after   11 cycles
 E2 =    -0.8372413434D+00 EUMP2 =    -0.52488551846670D+03
 E2 =    -0.8368402327D+00 EUMP2 =    -0.52488615095231D+03
 E2 =    -0.8364099589D+00 EUMP2 =    -0.52488683857011D+03
 E2 =    -0.8359525418D+00 EUMP2 =    -0.52488757981885D+03
 E2 =    -0.8354700206D+00 EUMP2 =    -0.52488837303567D+03
 E2 =    -0.8349644320D+00 EUMP2 =    -0.52488921639564D+03
 E2 =    -0.8344377909D+00 EUMP2 =    -0.52489010791274D+03
 E2 =    -0.8338920743D+00 EUMP2 =    -0.52489104544247D+03
 E2 =    -0.8333292073D+00 EUMP2 =    -0.52489202668595D+03
 E2 =    -0.8327510530D+00 EUMP2 =    -0.52489304919536D+03
 E2 =    -0.8321594040D+00 EUMP2 =    -0.52489411038084D+03
 E2 =    -0.8083021241D+00 EUMP2 =    -0.52494607099730D+03
 E2 =    -0.8082645964D+00 EUMP2 =    -0.52494638174977D+03
 E2 =    -0.8082350117D+00 EUMP2 =    -0.52494668306210D+03
 E2 =    -0.8082129812D+00 EUMP2 =    -0.52494697525357D+03
 E2 =    -0.8081980967D+00 EUMP2 =    -0.52494725861827D+03
 E2 =    -0.8081899349D+00 EUMP2 =    -0.52494753342683D+03
 E2 =    -0.8081880614D+00 EUMP2 =    -0.52494779992820D+03
 E2 =    -0.8081920348D+00 EUMP2 =    -0.52494805835153D+03
 E2 =    -0.8082014105D+00 EUMP2 =    -0.52494830890822D+03
 E2 =    -0.8082157436D+00 EUMP2 =    -0.52494855179383D+03
 SCF Done:  E(RHF) =  -524.140552598     A.U. after   10 cycles
 E2 =    -0.8082345917D+00 EUMP2 =    -0.52494878718995D+03
 SCF Done:  E(RHF) =  -524.140757749     A.U. after   10 cycles
 E2 =    -0.8082575171D+00 EUMP2 =    -0.52494901526607D+03
 SCF Done:  E(RHF) =  -524.140952092     A.U. after   10 cycles
 E2 =    -0.8082840890D+00 EUMP2 =    -0.52494923618126D+03
 SCF Done:  E(RHF) =  -524.141136201     A.U. after   10 cycles
 E2 =    -0.8083138848D+00 EUMP2 =    -0.52494945008585D+03
 SCF Done:  E(RHF) =  -524.141310631     A.U. after   10 cycles
 E2 =    -0.8083464915D+00 EUMP2 =    -0.52494965712289D+03
 SCF Done:  E(RHF) =  -524.141475923     A.U. after   10 cycles
 E2 =    -0.8083815063D+00 EUMP2 =    -0.52494985742958D+03
 SCF Done:  E(RHF) =  -524.141632601     A.U. after   10 cycles
 E2 =    -0.8084185373D+00 EUMP2 =    -0.52495005113846D+03
 SCF Done:  E(RHF) =  -524.141781174     A.U. after   10 cycles
 E2 =    -0.8084572043D+00 EUMP2 =    -0.52495023837861D+03
 SCF Done:  E(RHF) =  -524.141922138     A.U. after   10 cycles
 E2 =    -0.8084971385D+00 EUMP2 =    -0.52495041927660D+03
 SCF Done:  E(RHF) =  -524.142055974     A.U. after   10 cycles
 E2 =    -0.8085379832D+00 EUMP2 =    -0.52495059395746D+03

                          Input orientation:
 ---------------------------------------------------------------------
 Center     Atomic      Atomic             Coordinates (Angstroms)
 Number     Number       Type             X           Y           Z
 ---------------------------------------------------------------------
      1          6           0        0.967804    0.195132    0.044543
      2          8           0        1.797114   -0.806506   -0.391874
      3          6           0       -0.550972   -0.086312    0.006376
      4          9           0       -1.179428    0.671176    0.998298
      5          9           0       -1.083520    0.305238   -1.231164
      6          9           0       -0.877488   -1.424530    0.213735
      7          8           0        1.448864    1.286115    0.397970
      8          1           0        2.720848   -0.460069   -0.342413
 ---------------------------------------------------------------------

 Normal termination of Gaussian 16 at Sun May 25 03:45:58 2025.
