 Gaussian 16, Revision C.01,
 Gaussian 16:  ES64L-G16RevC.01  3-Jul-2019

 ----------------------------------------------------------------------
 #P M062X/Def2TZVPP Symm(None) scf(xqc) pop(None) geom(AllCheck,NoKeepC
 onstants) guess(Read) irc(RCFC,reverse,MaxPoints=100,StepSize=2)
 ----------------------------------------------------------------------

 Structure from the checkpoint file:  "1141903082400600000001_ketoenol_2_1_3_4_IRC_R.chk"
 ------------------------------
 Gaussian input prepared by ASE
 ------------------------------
 Charge =  0 Multiplicity = 1

 SCF Done:  E(RM062X) =  -526.643562803     A.U. after   12 cycles
 SCF Done:  E(RM062X) =  -526.643582162     A.U. after   14 cycles
 SCF Done:  E(RM062X) =  -526.643614368     A.U. after   14 cycles
 SCF Done:  E(RM062X) =  -526.643659494     A.U. after   14 cycles
 SCF Done:  E(RM062X) =  -526.643717650     A.U. after   14 cycles
 SCF Done:  E(RM062X) =  -526.643788984     A.U. after   14 cycles
 SCF Done:  E(RM062X) =  -526.643873655     A.U. after   14 cycles
 SCF Done:  E(RM062X) =  -526.643971822     A.U. after   14 cycles
 SCF Done:  E(RM062X) =  -526.644083644     A.U. after   14 cycles
 SCF Done:  E(RM062X) =  -526.644209297     A.U. after   15 cycles
 SCF Done:  E(RM062X) =  -526.733778505     A.U. after   10 cycles
 SCF Done:  E(RM062X) =  -526.734090049     A.U. after   10 cycles
 SCF Done:  E(RM062X) =  -526.734394866     A.U. after   10 cycles
 SCF Done:  E(RM062X) =  -526.734693188     A.U. after   10 cycles
 SCF Done:  E(RM062X) =  -526.734985246     A.U. after   10 cycles
 SCF Done:  E(RM062X) =  -526.735271271     A.U. after   10 cycles
 SCF Done:  E(RM062X) =  -526.735551493     A.U. after   10 cycles
 SCF Done:  E(RM062X) =  -526.735826159     A.U. after   10 cycles
 SCF Done:  E(RM062X) =  -526.736095537     A.U. after   10 cycles
 SCF Done:  E(RM062X) =  -526.736359924     A.U. after   10 cycles

                          Input orientation:
 ---------------------------------------------------------------------
 Center     Atomic      Atomic             Coordinates (Angstroms)
 Number     Number       Type             X           Y           Z
 ---------------------------------------------------------------------
      1          6           0       -0.339918   -0.383003    0.479876
      2          8           0       -1.368916   -0.641443   -0.076907
      3          6           0        0.140211    1.088738   -0.114894
      4          9           0        0.301815   -2.583156   -0.594629
      5          9           0        0.892571    1.887849    0.489170
      6          9           0       -0.333619    1.569071   -1.167789
      7          8           0        0.467587   -0.773532    1.296327
      8          1           0        0.455997   -2.415132    0.304115
 ---------------------------------------------------------------------

 Normal termination of Gaussian 16 at Sun May 25 04:23:26 2025.
