 Gaussian 16, Revision C.01,
 Gaussian 16:  ES64L-G16RevC.01  3-Jul-2019

 ----------------------------------------------------------------------
 #P mp2/6-31G Symm(None) scf(xqc) pop(None) guess(Mix,Always) freq opt(
 CalcFC)
 ----------------------------------------------------------------------

 ------------------------------
 Gaussian input prepared by ASE
 ------------------------------
 Symbolic Z-matrix:
 Charge =  0 Multiplicity = 1

 SCF Done:  E(RHF) =  -524.142055975     A.U. after   17 cycles
 E2 =    -0.8085379838D+00 EUMP2 =    -0.52495059395921D+03
 E2 =    -0.8085379838D+00 EUMP2 =    -0.52495059395921D+03
 SCF Done:  E(RHF) =  -524.146290701     A.U. after   17 cycles
 E2 =    -0.8081027947D+00 EUMP2 =    -0.52495439349533D+03
 SCF Done:  E(RHF) =  -524.146834302     A.U. after   17 cycles
 E2 =    -0.8081403921D+00 EUMP2 =    -0.52495497469387D+03
 SCF Done:  E(RHF) =  -524.147011445     A.U. after   17 cycles
 E2 =    -0.8080817929D+00 EUMP2 =    -0.52495509323746D+03
 SCF Done:  E(RHF) =  -524.147044926     A.U. after   17 cycles
 E2 =    -0.8080620959D+00 EUMP2 =    -0.52495510702216D+03
 SCF Done:  E(RHF) =  -524.147059014     A.U. after   17 cycles
 E2 =    -0.8080487277D+00 EUMP2 =    -0.52495510774145D+03
 SCF Done:  E(RHF) =  -524.147068444     A.U. after   17 cycles
 E2 =    -0.8080394720D+00 EUMP2 =    -0.52495510791584D+03
 Optimization completed.
    -- Stationary point found.
 Normal termination of Gaussian 16 at Sun May 25 03:46:17 2025.

 -------------------------------------------------------------------
 #P Geom=AllCheck Guess=TCheck SCRF=Check GenChk RMP2(FC)/6-31G Freq
 -------------------------------------------------------------------

 Structure from the checkpoint file:  "1141903082400600000001_R_Addition_MultipleBond_1_7_8_IRC_F_prod.chk"
 ------------------------------
 Gaussian input prepared by ASE
 ------------------------------
 Charge =  0 Multiplicity = 1

                          Input orientation:
 ---------------------------------------------------------------------
 Center     Atomic      Atomic             Coordinates (Angstroms)
 Number     Number       Type             X           Y           Z
 ---------------------------------------------------------------------
      1          6           0        0.975961    0.238487    0.136129
      2          8           0        1.684126   -0.662141   -0.627235
      3          6           0       -0.520605   -0.066132    0.013866
      4          9           0       -1.259613    0.831037    0.777393
      5          9           0       -0.942939    0.037252   -1.315524
      6          9           0       -0.803558   -1.360575    0.461845
      7          8           0        1.456550    1.157871    0.821171
      8          1           0        2.653299   -0.495555   -0.572174
 ---------------------------------------------------------------------

 SCF Done:  E(RHF) =  -524.147068444     A.U. after    1 cycles
 E2 =    -0.8080394707D+00 EUMP2 =    -0.52495510791457D+03
 E2 =    -0.8080394707D+00 EUMP2 =    -0.52495510791457D+03

                      1                      2                      3
                      A                      A                      A
 Frequencies --     40.7931               240.8448               241.1425
 Red. masses --     13.9489                10.2203                11.4231
 Frc consts  --      0.0137                 0.3493                 0.3914
 IR Inten    --      1.0454                 0.0894                 0.9718

                      4                      5                      6
                      A                      A                      A
 Frequencies --    386.8776               405.1925               465.8363
 Red. masses --     11.8687                15.8750                 9.2198
 Frc consts  --      1.0466                 1.5356                 1.1788
 IR Inten    --      2.7154                 0.8086                 0.0358

                      7                      8                      9
                      A                      A                      A
 Frequencies --    557.9878               598.1323               629.8953
 Red. masses --     13.3566                 1.2102                 6.4329
 Frc consts  --      2.4502                 0.2551                 1.5038
 IR Inten    --     14.9549               183.0932                65.3901

                     10                     11                     12
                      A                      A                      A
 Frequencies --    738.3899               747.6016              1081.9908
 Red. masses --     10.9757                 8.3101                 4.4292
 Frc consts  --      3.5258                 2.7365                 3.0551
 IR Inten    --     29.9923                 7.2778               324.2107

                     13                     14                     15
                      A                      A                      A
 Frequencies --   1172.2990              1192.1292              1239.3823
 Red. masses --     12.8461                 4.7964                 3.6421
 Frc consts  --     10.4016                 4.0162                 3.2962
 IR Inten    --    256.5600               244.8923                53.8593

                     16                     17                     18
                      A                      A                      A
 Frequencies --   1424.7138              1701.1069              3608.5119
 Red. masses --      3.6543                10.4193                 1.0645
 Frc consts  --      4.3702                17.7645                 8.1668
 IR Inten    --     32.4369               147.1477                88.1809

 - Thermochemistry -
 -------------------
 Temperature   298.150 Kelvin.  Pressure   1.00000 Atm.
 Atom     1 has atomic number  6 and mass  12.00000

 Molecular mass:   113.99286 amu.
 Principal axes and moments of inertia in atomic units:
                           1         2         3
     Eigenvalues --   507.55000 752.49288 911.83844
           X            0.98951  -0.13074   0.06143
           Y            0.14062   0.77445  -0.61681
           Z            0.03307   0.61897   0.78471
 This molecule is an asymmetric top.
 Rotational symmetry number  1.
 Warning -- assumption of classical behavior for rotation
           may cause significant error
 Rotational temperatures (Kelvin)      0.17065     0.11510     0.09499
 Rotational constants (GHZ):           3.55579     2.39835     1.97923
 Zero-point vibrational energy      98529.4 (Joules/Mol)
                                   23.54909 (Kcal/Mol)
 Warning -- explicit consideration of   8 degrees of freedom as
           vibrations may cause significant error
 Vibrational temperatures:     58.69   346.52   346.95   556.63   582.98
          (Kelvin)            670.23   802.82   860.58   906.28  1062.38
                             1075.63  1556.74  1686.68  1715.21  1783.19
                             2049.85  2447.51  5191.84

 Zero-point correction=                           0.037528 (Hartree/Particle)
 Thermal correction to Energy=                    0.043859
 Thermal correction to Enthalpy=                  0.044804
 Thermal correction to Gibbs Free Energy=         0.006279
 Sum of electronic and zero-point Energies=           -524.917580
 Sum of electronic and thermal Energies=              -524.911249
 Sum of electronic and thermal Enthalpies=            -524.910304
 Sum of electronic and thermal Free Energies=         -524.948829

                     E (Thermal)             CV                S
                      KCal/Mol        Cal/Mol-Kelvin    Cal/Mol-Kelvin
 Total                   27.522             21.450             81.083
 Electronic               0.000              0.000              0.000
 Translational            0.889              2.981             40.108
 Rotational               0.889              2.981             27.346
 Vibrational             25.745             15.488             13.629
 Vibration     1          0.594              1.981              5.220
 Vibration     2          0.658              1.778              1.797
 Vibration     3          0.658              1.777              1.794
 Vibration     4          0.755              1.498              1.012
 Vibration     5          0.770              1.459              0.944
 Vibration     6          0.823              1.326              0.749
 Vibration     7          0.914              1.122              0.528
 Vibration     8          0.956              1.036              0.453

 Optimization completed.
    -- Stationary point found.
 Normal termination of Gaussian 16 at Sun May 25 03:46:26 2025.
