 Gaussian 16, Revision C.01,
 Gaussian 16:  ES64L-G16RevC.01  3-Jul-2019

 -----------------------------------------------------------------
 #P M062X/Def2TZVPP Symm(None) scf(xqc) pop(None) freq opt(CalcFC)
 -----------------------------------------------------------------

 ------------------------------
 Gaussian input prepared by ASE
 ------------------------------
 Symbolic Z-matrix:
 Charge =  0 Multiplicity = 1

 SCF Done:  E(RM062X) =  -526.838261426     A.U. after   13 cycles
 SCF Done:  E(RM062X) =  -526.851180499     A.U. after   13 cycles
 SCF Done:  E(RM062X) =  -526.852318151     A.U. after   13 cycles
 SCF Done:  E(RM062X) =  -526.852563822     A.U. after   15 cycles
 SCF Done:  E(RM062X) =  -526.852710338     A.U. after   11 cycles
 SCF Done:  E(RM062X) =  -526.852756189     A.U. after   12 cycles
 SCF Done:  E(RM062X) =  -526.852766542     A.U. after   12 cycles
 SCF Done:  E(RM062X) =  -526.852766688     A.U. after    8 cycles
 Optimization completed.
    -- Stationary point found.
 Normal termination of Gaussian 16 at Sun May 25 04:31:59 2025.

 ---------------------------------------------------------------------
 #P Geom=AllCheck Guess=TCheck SCRF=Check GenChk RM062X/def2TZVPP Freq
 ---------------------------------------------------------------------

 Structure from the checkpoint file:  "1141903082400600000001_r12_insertion_R_3_1_2_IRC_R_prod.chk"
 ------------------------------
 Gaussian input prepared by ASE
 ------------------------------
 Charge =  0 Multiplicity = 1

                          Input orientation:
 ---------------------------------------------------------------------
 Center     Atomic      Atomic             Coordinates (Angstroms)
 Number     Number       Type             X           Y           Z
 ---------------------------------------------------------------------
      1          6           0        0.987242    0.204815   -0.194958
      2          8           0        1.569272    0.011241   -1.212357
      3          6           0       -0.511803   -0.108772    0.000694
      4          9           0       -1.176550    0.999676    0.316827
      5          9           0       -1.023486   -0.610388   -1.107172
      6          9           0       -0.673797   -0.989295    0.985015
      7          8           0        1.492956    0.708427    0.925914
      8          1           0        2.430169    0.897442    0.780434
 ---------------------------------------------------------------------

 SCF Done:  E(RM062X) =  -526.852766688     A.U. after    1 cycles

 Isotropic polarizability for W=    0.000000       31.74 Bohr**3.
 End of Minotr F.D. properties file   721 does not exist.

                      1                      2                      3
                      A                      A                      A
 Frequencies --     35.7013               239.3207               245.5852
 Red. masses --     14.4107                11.5419                 9.3747
 Frc consts  --      0.0108                 0.3895                 0.3331
 IR Inten    --      1.7191                 1.3422                 0.0771

                      4                      5                      6
                      A                      A                      A
 Frequencies --    394.7350               432.6854               513.0083
 Red. masses --     12.0915                15.4419                 4.4316
 Frc consts  --      1.1100                 1.7033                 0.6872
 IR Inten    --      2.1961                 0.0427                 4.7059

                      7                      8                      9
                      A                      A                      A
 Frequencies --    592.9424               600.7835               681.5955
 Red. masses --      1.4438                13.7716                 4.8885
 Frc consts  --      0.2991                 2.9287                 1.3381
 IR Inten    --    103.1058                 9.7044                79.4100

                     10                     11                     12
                      A                      A                      A
 Frequencies --    807.2572               824.6980              1179.0141
 Red. masses --      9.9944                 8.7222                 4.1295
 Frc consts  --      3.8373                 3.4952                 3.3821
 IR Inten    --     36.6964                 2.8124               311.5230

                     13                     14                     15
                      A                      A                      A
 Frequencies --   1244.7515              1248.1083              1312.5216
 Red. masses --      2.5797                12.8790                 7.0878
 Frc consts  --      2.3550                11.8206                 7.1940
 IR Inten    --    190.3023               297.1041               193.4746

                     16                     17                     18
                      A                      A                      A
 Frequencies --   1457.8222              1926.2627              3812.8676
 Red. masses --      5.4705                11.6985                 1.0647
 Frc consts  --      6.8500                25.5748                 9.1194
 IR Inten    --     55.2937               320.1895               123.9970

 - Thermochemistry -
 -------------------
 Temperature   298.150 Kelvin.  Pressure   1.00000 Atm.
 Atom     1 has atomic number  6 and mass  12.00000

 Molecular mass:   113.99286 amu.
 Principal axes and moments of inertia in atomic units:
                           1         2         3
     Eigenvalues --   463.60074 717.68904 865.45684
           X            0.97222  -0.01897  -0.23332
           Y            0.22738   0.31339   0.92200
           Z           -0.05563   0.94943  -0.30900
 This molecule is an asymmetric top.
 Rotational symmetry number  1.
 Warning -- assumption of classical behavior for rotation
           may cause significant error
 Rotational temperatures (Kelvin)      0.18683     0.12068     0.10008
 Rotational constants (GHZ):           3.89288     2.51466     2.08530
 Zero-point vibrational energy     104970.3 (Joules/Mol)
                                   25.08850 (Kcal/Mol)
 Warning -- explicit consideration of   8 degrees of freedom as
           vibrations may cause significant error
 Vibrational temperatures:     51.37   344.33   353.34   567.94   622.54
          (Kelvin)            738.10   853.11   864.39   980.66  1161.46
                             1186.56  1696.34  1790.92  1795.75  1888.43
                             2097.48  2771.46  5485.87

 Zero-point correction=                           0.039981 (Hartree/Particle)
 Thermal correction to Energy=                    0.046136
 Thermal correction to Enthalpy=                  0.047080
 Thermal correction to Gibbs Free Energy=         0.008803
 Sum of electronic and zero-point Energies=           -526.812786
 Sum of electronic and thermal Energies=              -526.806631
 Sum of electronic and thermal Enthalpies=            -526.805686
 Sum of electronic and thermal Free Energies=         -526.843964

                     E (Thermal)             CV                S
                      KCal/Mol        Cal/Mol-Kelvin    Cal/Mol-Kelvin
 Total                   28.951             20.604             80.562
 Electronic               0.000              0.000              0.000
 Translational            0.889              2.981             40.108
 Rotational               0.889              2.981             27.157
 Vibrational             27.173             14.642             13.297
 Vibration     1          0.594              1.982              5.484
 Vibration     2          0.657              1.780              1.808
 Vibration     3          0.660              1.770              1.762
 Vibration     4          0.762              1.481              0.982
 Vibration     5          0.794              1.399              0.850
 Vibration     6          0.868              1.221              0.626
 Vibration     7          0.950              1.047              0.462
 Vibration     8          0.959              1.030              0.448

 Optimization completed.
    -- Stationary point found.
 Normal termination of Gaussian 16 at Sun May 25 04:33:00 2025.
