 Gaussian 16, Revision C.01,
 Gaussian 16:  ES64L-G16RevC.01  3-Jul-2019

 -----------------------------------------------------------------
 #P M062X/Def2TZVPP Symm(None) scf(xqc) pop(None) freq opt(CalcFC)
 -----------------------------------------------------------------

 ------------------------------
 Gaussian input prepared by ASE
 ------------------------------
 Symbolic Z-matrix:
 Charge =  0 Multiplicity = 1

 SCF Done:  E(RM062X) =  -526.799183350     A.U. after   13 cycles
 SCF Done:  E(RM062X) =  -526.800847290     A.U. after   11 cycles
 SCF Done:  E(RM062X) =  -526.800960240     A.U. after   11 cycles
 SCF Done:  E(RM062X) =  -526.800969516     A.U. after   10 cycles
 Optimization completed.
    -- Stationary point found.
 Normal termination of Gaussian 16 at Sun May 25 04:27:46 2025.

 ---------------------------------------------------------------------
 #P Geom=AllCheck Guess=TCheck SCRF=Check GenChk RM062X/def2TZVPP Freq
 ---------------------------------------------------------------------

 Structure from the checkpoint file:  "1141903082400600000001_r13_insertion_ROR_4_3_1_2_IRC_F_prod.chk"
 ------------------------------
 Gaussian input prepared by ASE
 ------------------------------
 Charge =  0 Multiplicity = 1

                          Input orientation:
 ---------------------------------------------------------------------
 Center     Atomic      Atomic             Coordinates (Angstroms)
 Number     Number       Type             X           Y           Z
 ---------------------------------------------------------------------
      1          6           0        0.235250    0.670576    0.261650
      2          8           0       -0.279846    0.461079   -1.042712
      3          6           0       -0.166505   -0.633295   -0.219386
      4          9           0       -0.593608    1.379030    1.034719
      5          9           0       -1.297586   -1.205064    0.155283
      6          9           0        0.698027   -1.561312   -0.586669
      7          8           0        1.518795    1.017447    0.406174
      8          1           0        1.621592    1.963253    0.243017
 ---------------------------------------------------------------------

 SCF Done:  E(RM062X) =  -526.800969516     A.U. after    1 cycles

 Isotropic polarizability for W=    0.000000       31.20 Bohr**3.
 End of Minotr F.D. properties file   721 does not exist.

                      1                      2                      3
                      A                      A                      A
 Frequencies --    189.1744               220.7809               247.2513
 Red. masses --     12.3432                 1.8294                 2.2153
 Frc consts  --      0.2603                 0.0525                 0.0798
 IR Inten    --      0.2772                62.9836                64.6906

                      4                      5                      6
                      A                      A                      A
 Frequencies --    324.1098               517.3934               529.4469
 Red. masses --     11.3249                15.3340                15.4575
 Frc consts  --      0.7009                 2.4185                 2.5529
 IR Inten    --      3.2979                 7.0076                 3.5630

                      7                      8                      9
                      A                      A                      A
 Frequencies --    540.6354               582.0397               707.3290
 Red. masses --     12.5103                15.3429                 6.8788
 Frc consts  --      2.1544                 3.0624                 2.0277
 IR Inten    --     10.5409                 8.4679                60.7222

                     10                     11                     12
                      A                      A                      A
 Frequencies --    789.2733               824.8918              1118.5167
 Red. masses --      9.1245                13.1504                 4.4442
 Frc consts  --      3.3490                 5.2721                 3.2759
 IR Inten    --     16.1942                10.6322               407.0179

                     13                     14                     15
                      A                      A                      A
 Frequencies --   1173.6144              1305.3207              1324.9710
 Red. masses --      5.3655                10.7149                 4.9226
 Frc consts  --      4.3542                10.7566                 5.0916
 IR Inten    --    143.8315                85.4380               472.2175

                     16                     17                     18
                      A                      A                      A
 Frequencies --   1335.3420              1682.1075              3829.7982
 Red. masses --      2.8880                 8.5261                 1.0653
 Frc consts  --      3.0341                14.2138                 9.2062
 IR Inten    --    185.4898                57.1377               105.7303

 - Thermochemistry -
 -------------------
 Temperature   298.150 Kelvin.  Pressure   1.00000 Atm.
 Atom     1 has atomic number  6 and mass  12.00000

 Molecular mass:   113.99286 amu.
 Principal axes and moments of inertia in atomic units:
                           1         2         3
     Eigenvalues --   416.83234 691.54041 910.02788
           X            0.23853   0.94038   0.24246
           Y            0.91345  -0.13249  -0.38478
           Z            0.32972  -0.31326   0.89059
 This molecule is an asymmetric top.
 Rotational symmetry number  1.
 Rotational temperatures (Kelvin)      0.20779     0.12525     0.09518
 Rotational constants (GHZ):           4.32966     2.60974     1.98317
 Zero-point vibrational energy     103130.0 (Joules/Mol)
                                   24.64867 (Kcal/Mol)
 Warning -- explicit consideration of   8 degrees of freedom as
           vibrations may cause significant error
 Vibrational temperatures:    272.18   317.65   355.74   466.32   744.41
          (Kelvin)            761.76   777.85   837.43  1017.69  1135.59
                             1186.84  1609.30  1688.57  1878.07  1906.34
                             1921.26  2420.18  5510.23

 Zero-point correction=                           0.039280 (Hartree/Particle)
 Thermal correction to Energy=                    0.045219
 Thermal correction to Enthalpy=                  0.046163
 Thermal correction to Gibbs Free Energy=         0.009323
 Sum of electronic and zero-point Energies=           -526.761689
 Sum of electronic and thermal Energies=              -526.755751
 Sum of electronic and thermal Enthalpies=            -526.754806
 Sum of electronic and thermal Free Energies=         -526.791646

                     E (Thermal)             CV                S
                      KCal/Mol        Cal/Mol-Kelvin    Cal/Mol-Kelvin
 Total                   28.375             20.681             77.536
 Electronic               0.000              0.000              0.000
 Translational            0.889              2.981             40.108
 Rotational               0.889              2.981             27.064
 Vibrational             26.598             14.720             10.364
 Vibration     1          0.633              1.855              2.236
 Vibration     2          0.647              1.809              1.953
 Vibration     3          0.661              1.767              1.750
 Vibration     4          0.709              1.627              1.289
 Vibration     5          0.872              1.211              0.616
 Vibration     6          0.884              1.185              0.588
 Vibration     7          0.896              1.160              0.564
 Vibration     8          0.939              1.070              0.482

 Optimization completed.
    -- Stationary point found.
 Normal termination of Gaussian 16 at Sun May 25 04:28:50 2025.
