 Gaussian 16, Revision C.01,
 Gaussian 16:  ES64L-G16RevC.01  3-Jul-2019

 -----------------------------------------------------------------
 #P M062X/Def2TZVPP Symm(None) scf(xqc) pop(None) freq opt(CalcFC)
 -----------------------------------------------------------------

 ------------------------------
 Gaussian input prepared by ASE
 ------------------------------
 Symbolic Z-matrix:
 Charge =  0 Multiplicity = 1

 SCF Done:  E(RM062X) =  -526.823628473     A.U. after   14 cycles
 SCF Done:  E(RM062X) =  -526.846040902     A.U. after   12 cycles
 SCF Done:  E(RM062X) =  -526.852187939     A.U. after   12 cycles
 SCF Done:  E(RM062X) =  -526.852601104     A.U. after   12 cycles
 SCF Done:  E(RM062X) =  -526.852693330     A.U. after   12 cycles
 SCF Done:  E(RM062X) =  -526.852740170     A.U. after   12 cycles
 SCF Done:  E(RM062X) =  -526.852762448     A.U. after   12 cycles
 SCF Done:  E(RM062X) =  -526.852766104     A.U. after   11 cycles
 SCF Done:  E(RM062X) =  -526.852766217     A.U. after    8 cycles
 SCF Done:  E(RM062X) =  -526.852766229     A.U. after    7 cycles
 Optimization completed.
    -- Stationary point found.
 Normal termination of Gaussian 16 at Sun May 25 04:18:24 2025.

 ---------------------------------------------------------------------
 #P Geom=AllCheck Guess=TCheck SCRF=Check GenChk RM062X/def2TZVPP Freq
 ---------------------------------------------------------------------

 Structure from the checkpoint file:  "1141903082400600000001_r12_insertion_R_7_1_3_IRC_R_prod.chk"
 ------------------------------
 Gaussian input prepared by ASE
 ------------------------------
 Charge =  0 Multiplicity = 1

                          Input orientation:
 ---------------------------------------------------------------------
 Center     Atomic      Atomic             Coordinates (Angstroms)
 Number     Number       Type             X           Y           Z
 ---------------------------------------------------------------------
      1          6           0        0.963756   -0.124497    0.044136
      2          8           0        1.536478   -1.153061    0.203344
      3          6           0       -0.575103    0.000076    0.034646
      4          9           0       -0.976324    0.824778    0.998692
      5          9           0       -0.990574    0.486341   -1.132174
      6          9           0       -1.131873   -1.180670    0.225842
      7          8           0        1.514164    1.069485   -0.148734
      8          1           0        2.475871    0.967963   -0.139146
 ---------------------------------------------------------------------

 SCF Done:  E(RM062X) =  -526.852766229     A.U. after    1 cycles

 Isotropic polarizability for W=    0.000000       31.73 Bohr**3.
 End of Minotr F.D. properties file   721 does not exist.

                      1                      2                      3
                      A                      A                      A
 Frequencies --     35.6804               238.8679               246.0377
 Red. masses --     14.3877                11.5726                 9.4752
 Frc consts  --      0.0108                 0.3890                 0.3379
 IR Inten    --      1.7238                 1.3671                 0.0911

                      4                      5                      6
                      A                      A                      A
 Frequencies --    394.6528               432.7251               513.4465
 Red. masses --     12.1010                15.4492                 4.6537
 Frc consts  --      1.1105                 1.7044                 0.7228
 IR Inten    --      2.1665                 0.0416                 3.9310

                      7                      8                      9
                      A                      A                      A
 Frequencies --    595.3071               600.7491               681.8395
 Red. masses --      1.4158                14.2909                 4.9055
 Frc consts  --      0.2956                 3.0388                 1.3437
 IR Inten    --    103.9802                 9.2552                79.1588

                     10                     11                     12
                      A                      A                      A
 Frequencies --    807.2343               824.8458              1179.3474
 Red. masses --      9.9317                 8.7392                 4.2116
 Frc consts  --      3.8130                 3.5032                 3.4513
 IR Inten    --     36.9377                 2.7550               312.1103

                     13                     14                     15
                      A                      A                      A
 Frequencies --   1245.3517              1248.3422              1313.0529
 Red. masses --      2.5559                12.8172                 7.0673
 Frc consts  --      2.3355                11.7682                 7.1791
 IR Inten    --    190.9221               297.0151               191.8962

                     16                     17                     18
                      A                      A                      A
 Frequencies --   1457.5715              1926.3887              3812.2178
 Red. masses --      5.4228                11.6950                 1.0647
 Frc consts  --      6.7879                25.5705                 9.1162
 IR Inten    --     55.0441               320.3481               123.9581

 - Thermochemistry -
 -------------------
 Temperature   298.150 Kelvin.  Pressure   1.00000 Atm.
 Atom     1 has atomic number  6 and mass  12.00000

 Molecular mass:   113.99286 amu.
 Principal axes and moments of inertia in atomic units:
                           1         2         3
     Eigenvalues --   463.59928 717.67535 865.43580
           X            0.99996   0.00557   0.00656
           Y           -0.00653   0.98766   0.15650
           Z           -0.00561  -0.15653   0.98766
 This molecule is an asymmetric top.
 Rotational symmetry number  1.
 Warning -- assumption of classical behavior for rotation
           may cause significant error
 Rotational temperatures (Kelvin)      0.18683     0.12069     0.10008
 Rotational constants (GHZ):           3.89289     2.51470     2.08536
 Zero-point vibrational energy     104994.2 (Joules/Mol)
                                   25.09421 (Kcal/Mol)
 Warning -- explicit consideration of   8 degrees of freedom as
           vibrations may cause significant error
 Vibrational temperatures:     51.34   343.68   353.99   567.82   622.59
          (Kelvin)            738.73   856.51   864.34   981.01  1161.43
                             1186.77  1696.82  1791.78  1796.09  1889.19
                             2097.12  2771.64  5484.93

 Zero-point correction=                           0.039990 (Hartree/Particle)
 Thermal correction to Energy=                    0.046144
 Thermal correction to Enthalpy=                  0.047088
 Thermal correction to Gibbs Free Energy=         0.008812
 Sum of electronic and zero-point Energies=           -526.812776
 Sum of electronic and thermal Energies=              -526.806623
 Sum of electronic and thermal Enthalpies=            -526.805679
 Sum of electronic and thermal Free Energies=         -526.843954

                     E (Thermal)             CV                S
                      KCal/Mol        Cal/Mol-Kelvin    Cal/Mol-Kelvin
 Total                   28.955             20.596             80.557
 Electronic               0.000              0.000              0.000
 Translational            0.889              2.981             40.108
 Rotational               0.889              2.981             27.157
 Vibrational             27.178             14.635             13.292
 Vibration     1          0.594              1.982              5.486
 Vibration     2          0.657              1.781              1.811
 Vibration     3          0.661              1.769              1.759
 Vibration     4          0.762              1.482              0.983
 Vibration     5          0.794              1.399              0.850
 Vibration     6          0.869              1.220              0.625
 Vibration     7          0.953              1.042              0.458
 Vibration     8          0.959              1.030              0.448

 Optimization completed.
    -- Stationary point found.
 Normal termination of Gaussian 16 at Sun May 25 04:19:27 2025.
