 Gaussian 16, Revision C.01,
 Gaussian 16:  ES64L-G16RevC.01  3-Jul-2019

 -----------------------------------------------------------------
 #P M062X/Def2TZVPP Symm(None) scf(xqc) pop(None) freq opt(CalcFC)
 -----------------------------------------------------------------

 ------------------------------
 Gaussian input prepared by ASE
 ------------------------------
 Symbolic Z-matrix:
 Charge =  0 Multiplicity = 1

 SCF Done:  E(RM062X) =  -526.849842618     A.U. after   13 cycles
 SCF Done:  E(RM062X) =  -526.852287109     A.U. after   13 cycles
 SCF Done:  E(RM062X) =  -526.852656605     A.U. after   15 cycles
 SCF Done:  E(RM062X) =  -526.805965994     A.U. after   16 cycles
 SCF Done:  E(RM062X) =  -526.852760072     A.U. after   11 cycles
 SCF Done:  E(RM062X) =  -526.852769377     A.U. after   12 cycles
 SCF Done:  E(RM062X) =  -526.852769652     A.U. after    8 cycles
 Optimization completed.
    -- Stationary point found.
 Normal termination of Gaussian 16 at Sun May 25 04:25:00 2025.

 ---------------------------------------------------------------------
 #P Geom=AllCheck Guess=TCheck SCRF=Check GenChk RM062X/def2TZVPP Freq
 ---------------------------------------------------------------------

 Structure from the checkpoint file:  "1141903082400600000001_intra_H_migration_1_8_IRC_F_prod.chk"
 ------------------------------
 Gaussian input prepared by ASE
 ------------------------------
 Charge =  0 Multiplicity = 1

                          Input orientation:
 ---------------------------------------------------------------------
 Center     Atomic      Atomic             Coordinates (Angstroms)
 Number     Number       Type             X           Y           Z
 ---------------------------------------------------------------------
      1          6           0        0.966898    0.264294    0.119018
      2          8           0        1.679563   -0.579825   -0.619579
      3          6           0       -0.533287   -0.085827    0.014910
      4          9           0       -1.250146    0.745998    0.746275
      5          9           0       -0.938726   -0.003666   -1.249710
      6          9           0       -0.747150   -1.327250    0.443440
      7          8           0        1.385577    1.163297    0.773100
      8          1           0        2.613665   -0.342439   -0.539756
 ---------------------------------------------------------------------

 SCF Done:  E(RM062X) =  -526.852769652     A.U. after    1 cycles

 Isotropic polarizability for W=    0.000000       31.74 Bohr**3.
 End of Minotr F.D. properties file   721 does not exist.

                      1                      2                      3
                      A                      A                      A
 Frequencies --     37.5883               238.8332               246.4627
 Red. masses --     14.3996                11.5711                 9.4530
 Frc consts  --      0.0120                 0.3889                 0.3383
 IR Inten    --      1.7199                 1.3536                 0.0873

                      4                      5                      6
                      A                      A                      A
 Frequencies --    394.5772               432.6176               513.5703
 Red. masses --     12.0924                15.4559                 4.5896
 Frc consts  --      1.1092                 1.7043                 0.7132
 IR Inten    --      2.1765                 0.0423                 4.1463

                      7                      8                      9
                      A                      A                      A
 Frequencies --    594.8203               600.7586               681.5873
 Red. masses --      1.4226                14.2013                 4.8963
 Frc consts  --      0.2966                 3.0198                 1.3402
 IR Inten    --    103.7669                 9.3330                79.2506

                     10                     11                     12
                      A                      A                      A
 Frequencies --    807.3762               824.6388              1179.2278
 Red. masses --      9.9561                 8.7358                 4.1796
 Frc consts  --      3.8238                 3.5001                 3.4244
 IR Inten    --     36.8376                 2.7647               312.0991

                     13                     14                     15
                      A                      A                      A
 Frequencies --   1245.1935              1248.1717              1313.0947
 Red. masses --      2.5508                13.0973                 7.1082
 Frc consts  --      2.3302                12.0221                 7.2211
 IR Inten    --    189.5493               297.7400               193.0828

                     16                     17                     18
                      A                      A                      A
 Frequencies --   1457.3265              1926.6981              3810.9886
 Red. masses --      5.4391                11.6989                 1.0647
 Frc consts  --      6.8060                25.5871                 9.1104
 IR Inten    --     54.9286               320.5360               124.0229

 - Thermochemistry -
 -------------------
 Temperature   298.150 Kelvin.  Pressure   1.00000 Atm.
 Atom     1 has atomic number  6 and mass  12.00000

 Molecular mass:   113.99286 amu.
 Principal axes and moments of inertia in atomic units:
                           1         2         3
     Eigenvalues --   463.59751 717.73654 865.49494
           X            0.98536  -0.14575   0.08844
           Y            0.16918   0.77208  -0.61259
           Z            0.02100   0.61859   0.78543
 This molecule is an asymmetric top.
 Rotational symmetry number  1.
 Warning -- assumption of classical behavior for rotation
           may cause significant error
 Rotational temperatures (Kelvin)      0.18683     0.12068     0.10007
 Rotational constants (GHZ):           3.89291     2.51449     2.08521
 Zero-point vibrational energy     104993.4 (Joules/Mol)
                                   25.09403 (Kcal/Mol)
 Warning -- explicit consideration of   8 degrees of freedom as
           vibrations may cause significant error
 Vibrational temperatures:     54.08   343.63   354.60   567.71   622.44
          (Kelvin)            738.91   855.81   864.36   980.65  1161.63
                             1186.47  1696.65  1791.56  1795.84  1889.25
                             2096.77  2772.09  5483.16

 Zero-point correction=                           0.039990 (Hartree/Particle)
 Thermal correction to Energy=                    0.046139
 Thermal correction to Enthalpy=                  0.047083
 Thermal correction to Gibbs Free Energy=         0.008857
 Sum of electronic and zero-point Energies=           -526.812780
 Sum of electronic and thermal Energies=              -526.806631
 Sum of electronic and thermal Enthalpies=            -526.805686
 Sum of electronic and thermal Free Energies=         -526.843912

                     E (Thermal)             CV                S
                      KCal/Mol        Cal/Mol-Kelvin    Cal/Mol-Kelvin
 Total                   28.953             20.597             80.453
 Electronic               0.000              0.000              0.000
 Translational            0.889              2.981             40.108
 Rotational               0.889              2.981             27.157
 Vibrational             27.175             14.636             13.188
 Vibration     1          0.594              1.982              5.382
 Vibration     2          0.657              1.781              1.812
 Vibration     3          0.661              1.769              1.756
 Vibration     4          0.762              1.482              0.983
 Vibration     5          0.794              1.399              0.850
 Vibration     6          0.869              1.220              0.625
 Vibration     7          0.953              1.043              0.459
 Vibration     8          0.959              1.030              0.448

 Optimization completed.
    -- Stationary point found.
 Normal termination of Gaussian 16 at Sun May 25 04:26:14 2025.
