 Gaussian 16, Revision C.01,
 Gaussian 16:  ES64L-G16RevC.01  3-Jul-2019

 -----------------------------------------------------------------
 #P M062X/Def2TZVPP Symm(None) scf(xqc) pop(None) freq opt(CalcFC)
 -----------------------------------------------------------------

 ------------------------------
 Gaussian input prepared by ASE
 ------------------------------
 Symbolic Z-matrix:
 Charge =  0 Multiplicity = 1

 SCF Done:  E(RM062X) =  -526.620203979     A.U. after   22 cycles
 SCF Done:  E(RM062X) =  -526.627443450     A.U. after   18 cycles
 SCF Done:  E(RM062X) =  -526.634615266     A.U. after   16 cycles
 SCF Done:  E(RM062X) =  -526.638322433     A.U. after   14 cycles
 SCF Done:  E(RM062X) =  -526.642326568     A.U. after   14 cycles
 SCF Done:  E(RM062X) =  -526.646273594     A.U. after   14 cycles
 SCF Done:  E(RM062X) =  -526.641388682     A.U. after   15 cycles
 SCF Done:  E(RM062X) =  -526.647340682     A.U. after   16 cycles
 SCF Done:  E(RM062X) =  -526.647343457     A.U. after   15 cycles
 SCF Done:  E(RM062X) =  -526.647524899     A.U. after   14 cycles
 SCF Done:  E(RM062X) =  -526.647477135     A.U. after   12 cycles
 SCF Done:  E(RM062X) =  -526.647542912     A.U. after   12 cycles
 SCF Done:  E(RM062X) =  -526.647543513     A.U. after    9 cycles
 SCF Done:  E(RM062X) =  -526.647543904     A.U. after    9 cycles
 SCF Done:  E(RM062X) =  -526.647544256     A.U. after   12 cycles
 SCF Done:  E(RM062X) =  -526.647544314     A.U. after   10 cycles
 Optimization completed.
    -- Stationary point found.
 Normal termination of Gaussian 16 at Sun May 25 04:41:46 2025.

 ---------------------------------------------------------------------
 #P Geom=AllCheck Guess=TCheck SCRF=Check GenChk RM062X/def2TZVPP Freq
 ---------------------------------------------------------------------

 Structure from the checkpoint file:  "1141903082400600000001_r13_insertion_ROR_8_7_1_2_IRC_F_prod.chk"
 ------------------------------
 Gaussian input prepared by ASE
 ------------------------------
 Charge =  0 Multiplicity = 1

                          Input orientation:
 ---------------------------------------------------------------------
 Center     Atomic      Atomic             Coordinates (Angstroms)
 Number     Number       Type             X           Y           Z
 ---------------------------------------------------------------------
      1          6           0       -0.521954    0.461036    0.756874
      2          8           0       -2.673870    0.002571    1.116518
      3          6           0        0.661995    0.103447   -0.165147
      4          9           0        1.630413   -0.401072    0.593324
      5          9           0        0.414629   -0.773604   -1.141718
      6          9           0        1.093696    1.225207   -0.732328
      7          8           0       -1.481200   -0.225574    0.340113
      8          1           0       -3.281298   -0.595741    0.657703
 ---------------------------------------------------------------------

 SCF Done:  E(RM062X) =  -526.647544314     A.U. after    1 cycles

 Isotropic polarizability for W=    0.000000       38.24 Bohr**3.
 End of Minotr F.D. properties file   721 does not exist.

                      1                      2                      3
                      A                      A                      A
 Frequencies --     10.1242               200.2625               206.3754
 Red. masses --      7.9578                 1.6582                 9.6185
 Frc consts  --      0.0005                 0.0392                 0.2414
 IR Inten    --      9.2167               115.6547                 1.4129

                      4                      5                      6
                      A                      A                      A
 Frequencies --    255.8900               380.3410               425.1830
 Red. masses --      2.9148                14.6419                11.2756
 Frc consts  --      0.1125                 1.2479                 1.2010
 IR Inten    --     10.6887                 0.3640                 0.0107

                      7                      8                      9
                      A                      A                      A
 Frequencies --    442.1027               580.5345               581.6602
 Red. masses --     15.2449                14.8260                16.3438
 Frc consts  --      1.7556                 2.9440                 3.2579
 IR Inten    --      0.0617                 2.9859                 5.3070

                     10                     11                     12
                      A                      A                      A
 Frequencies --    706.8355               855.7890               949.5179
 Red. masses --     14.5406                15.9812                10.2289
 Frc consts  --      4.2803                 6.8959                 5.4336
 IR Inten    --     62.6460                56.0419                48.3798

                     13                     14                     15
                      A                      A                      A
 Frequencies --   1245.8692              1252.4478              1278.9427
 Red. masses --     10.3901                12.9953                10.4299
 Frc consts  --      9.5020                12.0104                10.0516
 IR Inten    --    226.1051               302.4869               205.3687

                     16                     17                     18
                      A                      A                      A
 Frequencies --   1397.9902              1514.5797              3805.7559
 Red. masses --      1.7947                 2.8260                 1.0677
 Frc consts  --      2.0666                 3.8195                 9.1114
 IR Inten    --    115.2384                12.9016               108.7662

 - Thermochemistry -
 -------------------
 Temperature   298.150 Kelvin.  Pressure   1.00000 Atm.
 Atom     1 has atomic number  6 and mass  12.00000

 Molecular mass:   113.99286 amu.
 Principal axes and moments of inertia in atomic units:
                           1         2         3
     Eigenvalues --   329.916701122.088831133.80797
           X            0.94256   0.21283  -0.25746
           Y            0.05601   0.65916   0.74992
           Z           -0.32931   0.72126  -0.60937
 This molecule is an asymmetric top.
 Rotational symmetry number  1.
 Rotational temperatures (Kelvin)      0.26253     0.07719     0.07639
 Rotational constants (GHZ):           5.47029     1.60838     1.59175
 Zero-point vibrational energy      96240.8 (Joules/Mol)
                                   23.00210 (Kcal/Mol)
 Warning -- explicit consideration of   9 degrees of freedom as
           vibrations may cause significant error
 Vibrational temperatures:     14.57   288.13   296.93   368.17   547.23
          (Kelvin)            611.74   636.09   835.26   836.88  1016.98
                             1231.29  1366.14  1792.53  1801.99  1840.11
                             2011.40  2179.14  5475.63

 Zero-point correction=                           0.036656 (Hartree/Particle)
 Thermal correction to Energy=                    0.043496
 Thermal correction to Enthalpy=                  0.044440
 Thermal correction to Gibbs Free Energy=         0.003614
 Sum of electronic and zero-point Energies=           -526.610888
 Sum of electronic and thermal Energies=              -526.604048
 Sum of electronic and thermal Enthalpies=            -526.603104
 Sum of electronic and thermal Free Energies=         -526.643930

                     E (Thermal)             CV                S
                      KCal/Mol        Cal/Mol-Kelvin    Cal/Mol-Kelvin
 Total                   27.294             22.323             85.926
 Electronic               0.000              0.000              0.000
 Translational            0.889              2.981             40.108
 Rotational               0.889              2.981             27.531
 Vibrational             25.517             16.362             18.287
 Vibration     1          0.593              1.987              7.987
 Vibration     2          0.638              1.840              2.131
 Vibration     3          0.641              1.831              2.076
 Vibration     4          0.666              1.753              1.690
 Vibration     5          0.750              1.512              1.038
 Vibration     6          0.787              1.415              0.875
 Vibration     7          0.802              1.378              0.820
 Vibration     8          0.937              1.073              0.484
 Vibration     9          0.938              1.071              0.482

                           ! Non-Optimized Parameters !
 Normal termination of Gaussian 16 at Sun May 25 04:42:51 2025.
