 Gaussian 16, Revision C.01,
 Gaussian 16:  ES64L-G16RevC.01  3-Jul-2019

 ----------------------------------------------------------------------
 #P M062X/Def2TZVPP Symm(None) scf(xqc) pop(None) geom(AllCheck,NoKeepC
 onstants) guess(Read) irc(RCFC,forward,MaxPoints=100,StepSize=2)
 ----------------------------------------------------------------------

 Structure from the checkpoint file:  "1141903082400600000001_intra_H_migration_suprafacial_2_8_IRC_F.chk"
 ------------------------------
 Gaussian input prepared by ASE
 ------------------------------
 Charge =  0 Multiplicity = 1

 SCF Done:  E(RM062X) =  -526.789187993     A.U. after    9 cycles
 SCF Done:  E(RM062X) =  -526.789286735     A.U. after   11 cycles
 SCF Done:  E(RM062X) =  -526.789450712     A.U. after   10 cycles
 SCF Done:  E(RM062X) =  -526.789679117     A.U. after   10 cycles
 SCF Done:  E(RM062X) =  -526.789970818     A.U. after   10 cycles
 SCF Done:  E(RM062X) =  -526.790324313     A.U. after   10 cycles
 SCF Done:  E(RM062X) =  -526.790737734     A.U. after   10 cycles
 SCF Done:  E(RM062X) =  -526.791208940     A.U. after   10 cycles
 SCF Done:  E(RM062X) =  -526.791735663     A.U. after   10 cycles
 SCF Done:  E(RM062X) =  -526.792315650     A.U. after   10 cycles
 SCF Done:  E(RM062X) =  -526.848350679     A.U. after    8 cycles
 SCF Done:  E(RM062X) =  -526.848540087     A.U. after    8 cycles
 SCF Done:  E(RM062X) =  -526.848722080     A.U. after    8 cycles
 SCF Done:  E(RM062X) =  -526.848896806     A.U. after    8 cycles
 SCF Done:  E(RM062X) =  -526.849064420     A.U. after    8 cycles
 SCF Done:  E(RM062X) =  -526.849225075     A.U. after    8 cycles
 SCF Done:  E(RM062X) =  -526.849378929     A.U. after    8 cycles
 SCF Done:  E(RM062X) =  -526.849526142     A.U. after    8 cycles
 SCF Done:  E(RM062X) =  -526.849666882     A.U. after    8 cycles
 SCF Done:  E(RM062X) =  -526.849801319     A.U. after    8 cycles

                          Input orientation:
 ---------------------------------------------------------------------
 Center     Atomic      Atomic             Coordinates (Angstroms)
 Number     Number       Type             X           Y           Z
 ---------------------------------------------------------------------
      1          6           0       -0.130645    0.563982   -0.810649
      2          8           0       -0.836224   -0.010810   -1.773989
      3          6           0        0.079220   -0.284806    0.485306
      4          9           0        1.200872   -0.994234    0.366853
      5          9           0        0.210154    0.530018    1.520692
      6          9           0       -0.918860   -1.122859    0.732511
      7          8           0        0.342695    1.646599   -0.936527
      8          1           0       -0.837145    0.627463   -2.503107
 ---------------------------------------------------------------------

 Normal termination of Gaussian 16 at Sun May 25 04:08:19 2025.
