 Gaussian 16, Revision C.01,
 Gaussian 16:  ES64L-G16RevC.01  3-Jul-2019

 ----------------------------------------------------------------------
 #P M062X/Def2TZVPP Symm(None) scf(xqc) pop(None) opt(NoFreeze,TS,CalcA
 ll,NoEigentest,MaxCycle=999)
 ----------------------------------------------------------------------

 ------------------------------
 Gaussian input prepared by ASE
 ------------------------------
 Symbolic Z-matrix:
 Charge =  0 Multiplicity = 1

 SCF Done:  E(RM062X) =  -526.677247807     A.U. after   15 cycles
 SCF Done:  E(RM062X) =  -526.731235238     A.U. after   14 cycles
 SCF Done:  E(RM062X) =  -526.768788727     A.U. after   14 cycles
 SCF Done:  E(RM062X) =  -526.786429481     A.U. after   15 cycles
 SCF Done:  E(RM062X) =  -526.789124679     A.U. after   11 cycles
 SCF Done:  E(RM062X) =  -526.789154981     A.U. after    9 cycles
 SCF Done:  E(RM062X) =  -526.789154993     A.U. after   11 cycles

 Isotropic polarizability for W=    0.000000       32.21 Bohr**3.
 End of Minotr F.D. properties file   721 does not exist.

 Optimization completed on the basis of negligible forces.
    -- Stationary point found.

                          Input orientation:
 ---------------------------------------------------------------------
 Center     Atomic      Atomic             Coordinates (Angstroms)
 Number     Number       Type             X           Y           Z
 ---------------------------------------------------------------------
      1          6           0        1.366709   -0.128847   -0.503434
      2          8           0        0.715921   -0.582317   -1.474465
      3          6           0        1.609541   -0.908074    0.790620
      4          9           0        2.730695   -1.609086    0.659152
      5          9           0        1.738226   -0.081781    1.814582
      6          9           0        0.609702   -1.739398    1.028933
      7          8           0        1.830431    1.015759   -0.720189
      8          1           0        1.169425    0.605371   -1.767593
 ---------------------------------------------------------------------

 ******    1 imaginary frequencies (negative Signs) ******

                      1                      2                      3
                      A                      A                      A
 Frequencies --  -1994.3747                 5.6631               224.7600
 Red. masses --      1.0988                16.7433                14.7181
 Frc consts  --      2.5750                 0.0003                 0.4381
 IR Inten    --    380.2821                 0.0676                 0.8532

                      4                      5                      6
                      A                      A                      A
 Frequencies --    231.5940               415.4410               427.8295
 Red. masses --     10.7848                14.4761                16.8769
 Frc consts  --      0.3408                 1.4720                 1.8201
 IR Inten    --      1.8434                 0.4716                 0.1309

                      7                      8                      9
                      A                      A                      A
 Frequencies --    516.9076               600.6408               746.4384
 Red. masses --     13.4008                17.2283                 5.8974
 Frc consts  --      2.1096                 3.6620                 1.9360
 IR Inten    --      3.5447                 3.4493                 0.4512

                     10                     11                     12
                      A                      A                      A
 Frequencies --    780.4697               973.5063              1175.9786
 Red. masses --     16.9029                14.3588                 1.2477
 Frc consts  --      6.0663                 8.0176                 1.0166
 IR Inten    --     35.9218                73.5449                70.6140

                     13                     14                     15
                      A                      A                      A
 Frequencies --   1257.7583              1275.4009              1300.9832
 Red. masses --     12.4810                12.5655                13.1128
 Frc consts  --     11.6330                12.0427                13.0765
 IR Inten    --    275.5537               304.7515               293.1238

                     16                     17                     18
                      A                      A                      A
 Frequencies --   1604.2286              1732.4266              2240.2890
 Red. masses --      7.4041                 8.4492                 1.0963
 Frc consts  --     11.2268                14.9409                 3.2417
 IR Inten    --     35.8448               506.7546                76.8380

 - Thermochemistry -
 -------------------
 Temperature   298.150 Kelvin.  Pressure   1.00000 Atm.
 Atom     1 has atomic number  6 and mass  12.00000

 Molecular mass:   113.99286 amu.
 Principal axes and moments of inertia in atomic units:
                           1         2         3
     Eigenvalues --   439.88193 757.38823 881.52207
           X            0.14980   0.53339   0.83250
           Y           -0.50516   0.76510  -0.39930
           Z            0.84993   0.36073  -0.38405
 This molecule is an asymmetric top.
 Rotational symmetry number  1.
 Warning -- assumption of classical behavior for rotation
           may cause significant error
 Rotational temperatures (Kelvin)      0.19690     0.11436     0.09825
 Rotational constants (GHZ):           4.10279     2.38285     2.04730
    1 imaginary frequencies ignored.
 Zero-point vibrational energy      92772.3 (Joules/Mol)
                                   22.17311 (Kcal/Mol)
 Warning -- explicit consideration of   7 degrees of freedom as
           vibrations may cause significant error
 Vibrational temperatures:      8.15   323.38   333.21   597.73   615.55
          (Kelvin)            743.71   864.19  1073.96  1122.92  1400.66
                             1691.97  1809.63  1835.02  1871.82  2308.13
                             2492.58  3223.28

 Zero-point correction=                           0.035335 (Hartree/Particle)
 Thermal correction to Energy=                    0.041365
 Thermal correction to Enthalpy=                  0.042309
 Thermal correction to Gibbs Free Energy=         0.002501
 Sum of electronic and zero-point Energies=           -526.753820
 Sum of electronic and thermal Energies=              -526.747790
 Sum of electronic and thermal Enthalpies=            -526.746846
 Sum of electronic and thermal Free Energies=         -526.786654

                     E (Thermal)             CV                S
                      KCal/Mol        Cal/Mol-Kelvin    Cal/Mol-Kelvin
 Total                   25.957             19.256             83.783
 Electronic               0.000              0.000              0.000
 Translational            0.889              2.981             40.108
 Rotational               0.889              2.981             27.176
 Vibrational             24.179             13.294             16.498
 Vibration     1          0.593              1.987              9.141
 Vibration     2          0.649              1.803              1.920
 Vibration     3          0.653              1.793              1.867
 Vibration     4          0.779              1.437              0.908
 Vibration     5          0.789              1.410              0.866
 Vibration     6          0.872              1.213              0.617
 Vibration     7          0.959              1.030              0.449

 Normal termination of Gaussian 16 at Sun May 25 03:49:19 2025.
