 Gaussian 16, Revision C.01,
 Gaussian 16:  ES64L-G16RevC.01  3-Jul-2019

 ----------------------------------------------------------------------
 #P mp2/6-31G Symm(None) scf(xqc) pop(None) guess(Mix,Always) opt(NoFre
 eze,TS,CalcAll,NoEigentest,MaxCycle=999)
 ----------------------------------------------------------------------

 ------------------------------
 Gaussian input prepared by ASE
 ------------------------------
 Symbolic Z-matrix:
 Charge =  0 Multiplicity = 1

 SCF Done:  E(RHF) =  -524.136593558     A.U. after   16 cycles
 E2 =    -0.7854597579D+00 EUMP2 =    -0.52492205331607D+03
 E2 =    -0.7854597579D+00 EUMP2 =    -0.52492205331607D+03
 SCF Done:  E(RHF) =  -524.147936319     A.U. after   17 cycles
 E2 =    -0.8029207419D+00 EUMP2 =    -0.52495085706063D+03
 E2 =    -0.8029207419D+00 EUMP2 =    -0.52495085706063D+03
 SCF Done:  E(RHF) =  -524.145745218     A.U. after   17 cycles
 E2 =    -0.8081362719D+00 EUMP2 =    -0.52495388149040D+03
 E2 =    -0.8081362719D+00 EUMP2 =    -0.52495388149040D+03
 SCF Done:  E(RHF) =  -524.144767873     A.U. after   17 cycles
 E2 =    -0.8088134672D+00 EUMP2 =    -0.52495358134067D+03
 E2 =    -0.8088134672D+00 EUMP2 =    -0.52495358134067D+03
 SCF Done:  E(RHF) =  -524.144779553     A.U. after   17 cycles
 E2 =    -0.8088135597D+00 EUMP2 =    -0.52495359311294D+03
 E2 =    -0.8088135597D+00 EUMP2 =    -0.52495359311294D+03
 SCF Done:  E(RHF) =  -524.144776829     A.U. after   17 cycles
 E2 =    -0.8088161922D+00 EUMP2 =    -0.52495359302145D+03
 E2 =    -0.8088161922D+00 EUMP2 =    -0.52495359302145D+03
 Optimization completed.
    -- Stationary point found.

                          Input orientation:
 ---------------------------------------------------------------------
 Center     Atomic      Atomic             Coordinates (Angstroms)
 Number     Number       Type             X           Y           Z
 ---------------------------------------------------------------------
      1          6           0        1.587781    0.065588    0.138996
      2          8           0        2.240757   -0.788033    0.766181
      3          6           0        0.057254    0.024850    0.058917
      4          9           0       -0.477416    0.086705    1.351259
      5          9           0       -0.487615    1.063240   -0.686471
      6          9           0       -0.345779   -1.185621   -0.517425
      7          8           0        2.108561    1.134757   -0.552258
      8          1           0        3.092180    1.144318   -0.489475
 ---------------------------------------------------------------------

 ******    1 imaginary frequencies (negative Signs) ******

                      1                      2                      3
                      A                      A                      A
 Frequencies --    -40.0873               244.6890               251.3612
 Red. masses --     11.9251                10.9001                13.1905
 Frc consts  --      0.0113                 0.3845                 0.4910
 IR Inten    --      0.8192                 0.1808                 1.1533

                      4                      5                      6
                      A                      A                      A
 Frequencies --    382.1937               401.0964               467.0655
 Red. masses --     10.3018                17.0496                11.3315
 Frc consts  --      0.8866                 1.6161                 1.4564
 IR Inten    --      2.2859                 2.3454                 0.9121

                      7                      8                      9
                      A                      A                      A
 Frequencies --    554.4646               629.9523               632.0748
 Red. masses --     14.4434                 6.2462                 1.2034
 Frc consts  --      2.6162                 1.4604                 0.2833
 IR Inten    --     11.2222                70.9255               173.1282

                     10                     11                     12
                      A                      A                      A
 Frequencies --    735.3805               746.1406              1078.4229
 Red. masses --     10.0646                 8.1771                 4.7342
 Frc consts  --      3.2068                 2.6822                 3.2439
 IR Inten    --     34.0645                 7.5248               360.2707

                     13                     14                     15
                      A                      A                      A
 Frequencies --   1165.8480              1209.4206              1223.8148
 Red. masses --     12.6738                 6.9425                 2.8560
 Frc consts  --     10.1494                 5.9831                 2.5202
 IR Inten    --    258.5474               229.1582                32.5945

                     16                     17                     18
                      A                      A                      A
 Frequencies --   1434.3547              1694.7746              3599.8382
 Red. masses --      3.6025                10.2916                 1.0643
 Frc consts  --      4.3668                17.4163                 8.1263
 IR Inten    --     34.8302               149.3312                86.6806

 - Thermochemistry -
 -------------------
 Temperature   298.150 Kelvin.  Pressure   1.00000 Atm.
 Atom     1 has atomic number  6 and mass  12.00000

 Molecular mass:   113.99286 amu.
 Principal axes and moments of inertia in atomic units:
                           1         2         3
     Eigenvalues --   507.05517 756.80461 915.94459
           X            0.99580  -0.07067  -0.05813
           Y            0.09115   0.82221   0.56184
           Z            0.00809  -0.56478   0.82520
 This molecule is an asymmetric top.
 Rotational symmetry number  1.
 Warning -- assumption of classical behavior for rotation
           may cause significant error
 Rotational temperatures (Kelvin)      0.17082     0.11445     0.09456
 Rotational constants (GHZ):           3.55926     2.38469     1.97036
    1 imaginary frequencies ignored.
 Zero-point vibrational energy      98398.2 (Joules/Mol)
                                   23.51773 (Kcal/Mol)
 Warning -- explicit consideration of   6 degrees of freedom as
           vibrations may cause significant error
 Vibrational temperatures:    352.05   361.65   549.89   577.09   672.00
          (Kelvin)            797.75   906.36   909.41  1058.05  1073.53
                             1551.61  1677.40  1740.09  1760.80  2063.72
                             2438.40  5179.36

 Zero-point correction=                           0.037478 (Hartree/Particle)
 Thermal correction to Energy=                    0.042929
 Thermal correction to Enthalpy=                  0.043873
 Thermal correction to Gibbs Free Energy=         0.007879
 Sum of electronic and zero-point Energies=           -524.916115
 Sum of electronic and thermal Energies=              -524.910664
 Sum of electronic and thermal Enthalpies=            -524.909720
 Sum of electronic and thermal Free Energies=         -524.945714

                     E (Thermal)             CV                S
                      KCal/Mol        Cal/Mol-Kelvin    Cal/Mol-Kelvin
 Total                   26.938             19.410             75.757
 Electronic               0.000              0.000              0.000
 Translational            0.889              2.981             40.108
 Rotational               0.889              2.981             27.355
 Vibrational             25.161             13.448              8.294
 Vibration     1          0.660              1.772              1.769
 Vibration     2          0.663              1.760              1.721
 Vibration     3          0.752              1.508              1.030
 Vibration     4          0.767              1.468              0.959
 Vibration     5          0.824              1.323              0.746
 Vibration     6          0.910              1.130              0.535

 Normal termination of Gaussian 16 at Sun May 25 03:41:29 2025.
