 Gaussian 16, Revision C.01,
 Gaussian 16:  ES64L-G16RevC.01  3-Jul-2019

 ----------------------------------------------------------------------
 #P M062X/Def2TZVPP Symm(None) scf(xqc) pop(None) geom(AllCheck,NoKeepC
 onstants) guess(Read) irc(RCFC,reverse,MaxPoints=100,StepSize=2)
 ----------------------------------------------------------------------

 Structure from the checkpoint file:  "1141903082400600000001_intra_H_migration_2_8_IRC_R.chk"
 ------------------------------
 Gaussian input prepared by ASE
 ------------------------------
 Charge =  0 Multiplicity = 1

 SCF Done:  E(RM062X) =  -526.789189410     A.U. after    9 cycles
 SCF Done:  E(RM062X) =  -526.789288078     A.U. after   10 cycles
 SCF Done:  E(RM062X) =  -526.789451995     A.U. after   10 cycles
 SCF Done:  E(RM062X) =  -526.789680337     A.U. after   10 cycles
 SCF Done:  E(RM062X) =  -526.789971901     A.U. after   10 cycles
 SCF Done:  E(RM062X) =  -526.790325109     A.U. after   10 cycles
 SCF Done:  E(RM062X) =  -526.790738069     A.U. after   10 cycles
 SCF Done:  E(RM062X) =  -526.791208686     A.U. after   10 cycles
 SCF Done:  E(RM062X) =  -526.791734771     A.U. after   10 cycles
 SCF Done:  E(RM062X) =  -526.792314112     A.U. after   10 cycles
 SCF Done:  E(RM062X) =  -526.848184739     A.U. after    8 cycles
 SCF Done:  E(RM062X) =  -526.848372998     A.U. after    8 cycles
 SCF Done:  E(RM062X) =  -526.848553830     A.U. after    8 cycles
 SCF Done:  E(RM062X) =  -526.848727387     A.U. after    8 cycles
 SCF Done:  E(RM062X) =  -526.848893822     A.U. after    8 cycles
 SCF Done:  E(RM062X) =  -526.849053291     A.U. after    8 cycles
 SCF Done:  E(RM062X) =  -526.849205953     A.U. after    8 cycles
 SCF Done:  E(RM062X) =  -526.849351972     A.U. after    8 cycles
 SCF Done:  E(RM062X) =  -526.849491515     A.U. after    8 cycles
 SCF Done:  E(RM062X) =  -526.849624755     A.U. after    8 cycles

                          Input orientation:
 ---------------------------------------------------------------------
 Center     Atomic      Atomic             Coordinates (Angstroms)
 Number     Number       Type             X           Y           Z
 ---------------------------------------------------------------------
      1          6           0       -0.420139    0.392233   -0.813384
      2          8           0        0.132752    0.030955   -1.961665
      3          6           0        0.206772   -0.219778    0.481318
      4          9           0        0.897145   -1.330833    0.265295
      5          9           0        1.021434    0.678235    1.032679
      6          9           0       -0.761604   -0.487951    1.345659
      7          8           0       -1.324679    1.161560   -0.762796
      8          1           0       -0.352734    0.520895   -2.641827
 ---------------------------------------------------------------------

 Normal termination of Gaussian 16 at Sun May 25 04:14:34 2025.
