 Gaussian 16, Revision C.01,
 Gaussian 16:  ES64L-G16RevC.01  3-Jul-2019

 -----------------------------------------------------------------
 #P M062X/Def2TZVPP Symm(None) scf(xqc) pop(None) freq opt(CalcFC)
 -----------------------------------------------------------------

 ------------------------------
 Gaussian input prepared by ASE
 ------------------------------
 Symbolic Z-matrix:
 Charge =  0 Multiplicity = 1

 SCF Done:  E(RM062X) =  -526.849954873     A.U. after   13 cycles
 SCF Done:  E(RM062X) =  -526.852438452     A.U. after   13 cycles
 SCF Done:  E(RM062X) =  -526.852679250     A.U. after   15 cycles
 SCF Done:  E(RM062X) =  -526.852750502     A.U. after   12 cycles
 SCF Done:  E(RM062X) =  -526.852756256     A.U. after   12 cycles
 SCF Done:  E(RM062X) =  -526.852771024     A.U. after    9 cycles
 Optimization completed.
    -- Stationary point found.
 Normal termination of Gaussian 16 at Sun May 25 04:16:04 2025.

 ---------------------------------------------------------------------
 #P Geom=AllCheck Guess=TCheck SCRF=Check GenChk RM062X/def2TZVPP Freq
 ---------------------------------------------------------------------

 Structure from the checkpoint file:  "1141903082400600000001_r12_insertion_R_8_7_1_IRC_R_prod.chk"
 ------------------------------
 Gaussian input prepared by ASE
 ------------------------------
 Charge =  0 Multiplicity = 1

                          Input orientation:
 ---------------------------------------------------------------------
 Center     Atomic      Atomic             Coordinates (Angstroms)
 Number     Number       Type             X           Y           Z
 ---------------------------------------------------------------------
      1          6           0        0.978062    0.194339   -0.153174
      2          8           0        1.567883    0.119261   -1.181632
      3          6           0       -0.530694   -0.101564   -0.013047
      4          9           0       -1.170775    0.973029    0.440807
      5          9           0       -1.042381   -0.439631   -1.181139
      6          9           0       -0.726003   -1.099093    0.845607
      7          8           0        1.482203    0.533273    1.028658
      8          1           0        2.426057    0.712831    0.918486
 ---------------------------------------------------------------------

 SCF Done:  E(RM062X) =  -526.852771024     A.U. after    1 cycles

 Isotropic polarizability for W=    0.000000       31.73 Bohr**3.
 End of Minotr F.D. properties file   721 does not exist.

                      1                      2                      3
                      A                      A                      A
 Frequencies --     37.2722               239.5858               245.7962
 Red. masses --     14.4421                11.5496                 9.3725
 Frc consts  --      0.0118                 0.3906                 0.3336
 IR Inten    --      1.7058                 1.3682                 0.0717

                      4                      5                      6
                      A                      A                      A
 Frequencies --    394.6368               432.7382               512.7742
 Red. masses --     12.0806                15.4538                 4.4238
 Frc consts  --      1.1085                 1.7050                 0.6853
 IR Inten    --      2.1925                 0.0420                 4.7205

                      7                      8                      9
                      A                      A                      A
 Frequencies --    592.6494               600.9604               681.6046
 Red. masses --      1.4395                14.1654                 4.8941
 Frc consts  --      0.2979                 3.0142                 1.3396
 IR Inten    --    103.5130                 9.5134                79.3655

                     10                     11                     12
                      A                      A                      A
 Frequencies --    807.3229               824.9923              1179.0049
 Red. masses --     10.0181                 8.7253                 4.1225
 Frc consts  --      3.8471                 3.4989                 3.3763
 IR Inten    --     36.5616                 2.7930               311.2805

                     13                     14                     15
                      A                      A                      A
 Frequencies --   1245.2237              1248.8892              1313.8588
 Red. masses --      2.5646                12.9530                 7.1923
 Frc consts  --      2.3430                11.9034                 7.3151
 IR Inten    --    188.5109               297.4441               194.9258

                     16                     17                     18
                      A                      A                      A
 Frequencies --   1457.8200              1926.6295              3813.8778
 Red. masses --      5.4701                11.7001                 1.0647
 Frc consts  --      6.8494                25.5879                 9.1243
 IR Inten    --     55.4044               320.4971               123.9470

 - Thermochemistry -
 -------------------
 Temperature   298.150 Kelvin.  Pressure   1.00000 Atm.
 Atom     1 has atomic number  6 and mass  12.00000

 Molecular mass:   113.99286 amu.
 Principal axes and moments of inertia in atomic units:
                           1         2         3
     Eigenvalues --   463.57577 717.63231 865.36632
           X            0.97838  -0.02239  -0.20561
           Y            0.20613   0.18732   0.96043
           Z           -0.01701   0.98204  -0.18788
 This molecule is an asymmetric top.
 Rotational symmetry number  1.
 Warning -- assumption of classical behavior for rotation
           may cause significant error
 Rotational temperatures (Kelvin)      0.18684     0.12069     0.10009
 Rotational constants (GHZ):           3.89309     2.51486     2.08552
 Zero-point vibrational energy     105006.0 (Joules/Mol)
                                   25.09704 (Kcal/Mol)
 Warning -- explicit consideration of   8 degrees of freedom as
           vibrations may cause significant error
 Vibrational temperatures:     53.63   344.71   353.65   567.79   622.61
          (Kelvin)            737.77   852.69   864.65   980.68  1161.56
                             1186.98  1696.33  1791.60  1796.87  1890.35
                             2097.48  2771.99  5487.32

 Zero-point correction=                           0.039995 (Hartree/Particle)
 Thermal correction to Energy=                    0.046146
 Thermal correction to Enthalpy=                  0.047090
 Thermal correction to Gibbs Free Energy=         0.008855
 Sum of electronic and zero-point Energies=           -526.812776
 Sum of electronic and thermal Energies=              -526.806625
 Sum of electronic and thermal Enthalpies=            -526.805681
 Sum of electronic and thermal Free Energies=         -526.843916

                     E (Thermal)             CV                S
                      KCal/Mol        Cal/Mol-Kelvin    Cal/Mol-Kelvin
 Total                   28.957             20.602             80.473
 Electronic               0.000              0.000              0.000
 Translational            0.889              2.981             40.108
 Rotational               0.889              2.981             27.156
 Vibrational             27.179             14.640             13.208
 Vibration     1          0.594              1.982              5.399
 Vibration     2          0.657              1.780              1.806
 Vibration     3          0.660              1.770              1.761
 Vibration     4          0.762              1.482              0.983
 Vibration     5          0.794              1.399              0.850
 Vibration     6          0.868              1.222              0.627
 Vibration     7          0.950              1.047              0.462
 Vibration     8          0.959              1.030              0.448

 Optimization completed.
    -- Stationary point found.
 Normal termination of Gaussian 16 at Sun May 25 04:17:20 2025.
