 Gaussian 16, Revision C.01,
 Gaussian 16:  ES64L-G16RevC.01  3-Jul-2019

 -----------------------------------------------------------
 #P mp2/6-31G Symm(None) scf(xqc) pop(None) freq opt(CalcFC)
 -----------------------------------------------------------

 ------------------------------
 Gaussian input prepared by ASE
 ------------------------------
 Symbolic Z-matrix:
 Charge =  0 Multiplicity = 1

 SCF Done:  E(RHF) =  -524.154396647     A.U. after   13 cycles
 E2 =    -0.7800494735D+00 EUMP2 =    -0.52493444612062D+03
 E2 =    -0.7800494735D+00 EUMP2 =    -0.52493444612062D+03
 SCF Done:  E(RHF) =  -524.151932219     A.U. after   13 cycles
 E2 =    -0.8023846468D+00 EUMP2 =    -0.52495431686596D+03
 SCF Done:  E(RHF) =  -524.147159522     A.U. after   13 cycles
 E2 =    -0.8079421443D+00 EUMP2 =    -0.52495510166616D+03
 SCF Done:  E(RHF) =  -524.147075600     A.U. after   12 cycles
 E2 =    -0.8080321379D+00 EUMP2 =    -0.52495510773804D+03
 Optimization completed.
    -- Stationary point found.
 Normal termination of Gaussian 16 at Sun May 25 03:18:21 2025.

 -------------------------------------------------------------------
 #P Geom=AllCheck Guess=TCheck SCRF=Check GenChk RMP2(FC)/6-31G Freq
 -------------------------------------------------------------------

 Structure from the checkpoint file:  "1141903082400600000001_well_mp2.chk"
 ------------------------------
 Gaussian input prepared by ASE
 ------------------------------
 Charge =  0 Multiplicity = 1

                          Input orientation:
 ---------------------------------------------------------------------
 Center     Atomic      Atomic             Coordinates (Angstroms)
 Number     Number       Type             X           Y           Z
 ---------------------------------------------------------------------
      1          6           0        0.567961    0.331932    0.029651
      2          8           0        1.038773    1.468124    0.210594
      3          6           0       -0.926553   -0.005359    0.048761
      4          9           0       -1.332587   -0.539444   -1.178425
      5          9           0       -1.213278   -0.941250    1.047770
      6          9           0       -1.676409    1.139380    0.295565
      7          8           0        1.286853   -0.816279   -0.217270
      8          1           0        2.255239   -0.637105   -0.236644
 ---------------------------------------------------------------------

 SCF Done:  E(RHF) =  -524.147075600     A.U. after    1 cycles
 E2 =    -0.8080321369D+00 EUMP2 =    -0.52495510773700D+03
 E2 =    -0.8080321369D+00 EUMP2 =    -0.52495510773700D+03

                      1                      2                      3
                      A                      A                      A
 Frequencies --     40.9340               240.9161               241.1337
 Red. masses --     13.9612                10.2564                11.4178
 Frc consts  --      0.0138                 0.3507                 0.3912
 IR Inten    --      1.0404                 0.1043                 0.9691

                      4                      5                      6
                      A                      A                      A
 Frequencies --    386.8457               405.2242               466.0080
 Red. masses --     11.8714                15.8608                 9.2678
 Frc consts  --      1.0467                 1.5345                 1.1858
 IR Inten    --      2.7235                 0.8011                 0.0447

                      7                      8                      9
                      A                      A                      A
 Frequencies --    558.0360               598.6813               629.9263
 Red. masses --     13.3637                 1.2088                 6.4271
 Frc consts  --      2.4519                 0.2553                 1.5026
 IR Inten    --     14.9353               183.2516                65.3579

                     10                     11                     12
                      A                      A                      A
 Frequencies --    738.3195               747.6533              1081.5696
 Red. masses --     10.9946                 8.3260                 4.4308
 Frc consts  --      3.5312                 2.7421                 3.0538
 IR Inten    --     29.8863                 7.1297               324.4079

                     13                     14                     15
                      A                      A                      A
 Frequencies --   1172.5328              1192.2514              1239.5409
 Red. masses --     12.8461                 4.7584                 3.6622
 Frc consts  --     10.4057                 3.9851                 3.3152
 IR Inten    --    256.6019               244.8516                54.2485

                     16                     17                     18
                      A                      A                      A
 Frequencies --   1424.0311              1701.2547              3607.4128
 Red. masses --      3.6527                10.4224                 1.0645
 Frc consts  --      4.3642                17.7728                 8.1619
 IR Inten    --     32.3601               147.0898                88.2182

 - Thermochemistry -
 -------------------
 Temperature   298.150 Kelvin.  Pressure   1.00000 Atm.
 Atom     1 has atomic number  6 and mass  12.00000

 Molecular mass:   113.99286 amu.
 Principal axes and moments of inertia in atomic units:
                           1         2         3
     Eigenvalues --   507.50747 752.55478 911.90954
           X            0.98881  -0.13956   0.05276
           Y            0.14684   0.97296  -0.17831
           Z           -0.02645   0.18406   0.98256
 This molecule is an asymmetric top.
 Rotational symmetry number  1.
 Warning -- assumption of classical behavior for rotation
           may cause significant error
 Rotational temperatures (Kelvin)      0.17067     0.11509     0.09498
 Rotational constants (GHZ):           3.55609     2.39815     1.97908
 Zero-point vibrational energy      98526.1 (Joules/Mol)
                                   23.54829 (Kcal/Mol)
 Warning -- explicit consideration of   8 degrees of freedom as
           vibrations may cause significant error
 Vibrational temperatures:     58.89   346.62   346.94   556.58   583.03
          (Kelvin)            670.48   802.89   861.37   906.32  1062.28
                             1075.71  1556.14  1687.01  1715.38  1783.42
                             2048.86  2447.73  5190.26

 Zero-point correction=                           0.037527 (Hartree/Particle)
 Thermal correction to Energy=                    0.043857
 Thermal correction to Enthalpy=                  0.044801
 Thermal correction to Gibbs Free Energy=         0.006281
 Sum of electronic and zero-point Energies=           -524.917581
 Sum of electronic and thermal Energies=              -524.911250
 Sum of electronic and thermal Enthalpies=            -524.910306
 Sum of electronic and thermal Free Energies=         -524.948827

                     E (Thermal)             CV                S
                      KCal/Mol        Cal/Mol-Kelvin    Cal/Mol-Kelvin
 Total                   27.521             21.448             81.074
 Electronic               0.000              0.000              0.000
 Translational            0.889              2.981             40.108
 Rotational               0.889              2.981             27.346
 Vibrational             25.743             15.487             13.620
 Vibration     1          0.594              1.981              5.213
 Vibration     2          0.658              1.778              1.796
 Vibration     3          0.658              1.777              1.794
 Vibration     4          0.755              1.498              1.012
 Vibration     5          0.770              1.459              0.944
 Vibration     6          0.823              1.325              0.749
 Vibration     7          0.914              1.122              0.528
 Vibration     8          0.957              1.035              0.452

 Optimization completed.
    -- Stationary point found.
 Normal termination of Gaussian 16 at Sun May 25 03:18:28 2025.
