 Gaussian 16, Revision C.01,
 Gaussian 16:  ES64L-G16RevC.01  3-Jul-2019

 -----------------------------------------------------------------
 #P M062X/Def2TZVPP Symm(None) scf(xqc) pop(None) freq opt(CalcFC)
 -----------------------------------------------------------------

 ------------------------------
 Gaussian input prepared by ASE
 ------------------------------
 Symbolic Z-matrix:
 Charge =  0 Multiplicity = 1

 SCF Done:  E(RM062X) =  -526.849676759     A.U. after   13 cycles
 SCF Done:  E(RM062X) =  -526.852572917     A.U. after   15 cycles
 SCF Done:  E(RM062X) =  -526.852288378     A.U. after   15 cycles
 SCF Done:  E(RM062X) =  -526.852703304     A.U. after   12 cycles
 SCF Done:  E(RM062X) =  -526.852749969     A.U. after   12 cycles
 SCF Done:  E(RM062X) =  -526.852771268     A.U. after   10 cycles
 SCF Done:  E(RM062X) =  -526.852771806     A.U. after    8 cycles
 Optimization completed.
    -- Stationary point found.
 Normal termination of Gaussian 16 at Sun May 25 04:15:58 2025.

 ---------------------------------------------------------------------
 #P Geom=AllCheck Guess=TCheck SCRF=Check GenChk RM062X/def2TZVPP Freq
 ---------------------------------------------------------------------

 Structure from the checkpoint file:  "1141903082400600000001_r12_insertion_R_8_7_1_IRC_F_prod.chk"
 ------------------------------
 Gaussian input prepared by ASE
 ------------------------------
 Charge =  0 Multiplicity = 1

                          Input orientation:
 ---------------------------------------------------------------------
 Center     Atomic      Atomic             Coordinates (Angstroms)
 Number     Number       Type             X           Y           Z
 ---------------------------------------------------------------------
      1          6           0        0.953638    0.329318    0.052250
      2          8           0        1.653466   -0.420113   -0.792936
      3          6           0       -0.532992   -0.085516    0.012856
      4          9           0       -1.237307    0.652582    0.849413
      5          9           0       -1.022596    0.071519   -1.214399
      6          9           0       -0.663364   -1.364670    0.355180
      7          8           0        1.373662    1.195554    0.748315
      8          1           0        2.579403   -0.144083   -0.751725
 ---------------------------------------------------------------------

 SCF Done:  E(RM062X) =  -526.852771806     A.U. after    1 cycles

 Isotropic polarizability for W=    0.000000       31.73 Bohr**3.
 End of Minotr F.D. properties file   721 does not exist.

                      1                      2                      3
                      A                      A                      A
 Frequencies --     37.1151               238.8294               246.2528
 Red. masses --     14.4183                11.5580                 9.3945
 Frc consts  --      0.0117                 0.3884                 0.3356
 IR Inten    --      1.7169                 1.3421                 0.0811

                      4                      5                      6
                      A                      A                      A
 Frequencies --    394.6297               432.6936               513.0644
 Red. masses --     12.0915                15.4548                 4.4435
 Frc consts  --      1.1095                 1.7048                 0.6892
 IR Inten    --      2.1742                 0.0419                 4.6376

                      7                      8                      9
                      A                      A                      A
 Frequencies --    593.1063               600.8204               681.5930
 Red. masses --      1.4379                14.1430                 4.8979
 Frc consts  --      0.2980                 3.0080                 1.3406
 IR Inten    --    103.5410                 9.4163                79.1091

                     10                     11                     12
                      A                      A                      A
 Frequencies --    807.2750               824.7584              1179.4073
 Red. masses --     10.0021                 8.7205                 4.1519
 Frc consts  --      3.8405                 3.4950                 3.4027
 IR Inten    --     36.6647                 2.7728               311.4351

                     13                     14                     15
                      A                      A                      A
 Frequencies --   1245.0859              1248.0170              1313.2026
 Red. masses --      2.5817                12.5094                 7.1236
 Frc consts  --      2.3581                11.4797                 7.2379
 IR Inten    --    190.5764               296.4577               193.4022

                     16                     17                     18
                      A                      A                      A
 Frequencies --   1457.7696              1926.8057              3812.9000
 Red. masses --      5.4533                11.6997                 1.0647
 Frc consts  --      6.8279                25.5918                 9.1195
 IR Inten    --     55.2612               320.4458               124.0666

 - Thermochemistry -
 -------------------
 Temperature   298.150 Kelvin.  Pressure   1.00000 Atm.
 Atom     1 has atomic number  6 and mass  12.00000

 Molecular mass:   113.99286 amu.
 Principal axes and moments of inertia in atomic units:
                           1         2         3
     Eigenvalues --   463.58824 717.67513 865.42905
           X            0.97614  -0.13960   0.16634
           Y            0.21560   0.71468  -0.66540
           Z           -0.02599   0.68538   0.72772
 This molecule is an asymmetric top.
 Rotational symmetry number  1.
 Warning -- assumption of classical behavior for rotation
           may cause significant error
 Rotational temperatures (Kelvin)      0.18683     0.12069     0.10008
 Rotational constants (GHZ):           3.89298     2.51470     2.08537
 Zero-point vibrational energy     104992.2 (Joules/Mol)
                                   25.09374 (Kcal/Mol)
 Warning -- explicit consideration of   8 degrees of freedom as
           vibrations may cause significant error
 Vibrational temperatures:     53.40   343.62   354.30   567.78   622.55
          (Kelvin)            738.19   853.35   864.45   980.66  1161.49
                             1186.64  1696.90  1791.40  1795.62  1889.41
                             2097.41  2772.24  5485.91

 Zero-point correction=                           0.039989 (Hartree/Particle)
 Thermal correction to Energy=                    0.046141
 Thermal correction to Enthalpy=                  0.047085
 Thermal correction to Gibbs Free Energy=         0.008845
 Sum of electronic and zero-point Energies=           -526.812782
 Sum of electronic and thermal Energies=              -526.806631
 Sum of electronic and thermal Enthalpies=            -526.805687
 Sum of electronic and thermal Free Energies=         -526.843927

                     E (Thermal)             CV                S
                      KCal/Mol        Cal/Mol-Kelvin    Cal/Mol-Kelvin
 Total                   28.954             20.602             80.483
 Electronic               0.000              0.000              0.000
 Translational            0.889              2.981             40.108
 Rotational               0.889              2.981             27.157
 Vibrational             27.177             14.640             13.218
 Vibration     1          0.594              1.982              5.407
 Vibration     2          0.657              1.781              1.812
 Vibration     3          0.661              1.769              1.757
 Vibration     4          0.762              1.482              0.983
 Vibration     5          0.794              1.399              0.850
 Vibration     6          0.868              1.221              0.626
 Vibration     7          0.951              1.046              0.462
 Vibration     8          0.959              1.030              0.448

 Optimization completed.
    -- Stationary point found.
 Normal termination of Gaussian 16 at Sun May 25 04:17:15 2025.
