 Gaussian 16, Revision C.01,
 Gaussian 16:  ES64L-G16RevC.01  3-Jul-2019

 ----------------------------------------------------------------------
 #P M062X/Def2TZVPP Symm(None) scf(xqc) pop(None) geom(AllCheck,NoKeepC
 onstants) guess(Read) irc(RCFC,reverse,MaxPoints=100,StepSize=2)
 ----------------------------------------------------------------------

 Structure from the checkpoint file:  "1141903082400600000001_intra_H_migration_suprafacial_2_8_IRC_R.chk"
 ------------------------------
 Gaussian input prepared by ASE
 ------------------------------
 Charge =  0 Multiplicity = 1

 SCF Done:  E(RM062X) =  -526.789187996     A.U. after    9 cycles
 SCF Done:  E(RM062X) =  -526.789286840     A.U. after   11 cycles
 SCF Done:  E(RM062X) =  -526.789451057     A.U. after   10 cycles
 SCF Done:  E(RM062X) =  -526.789679764     A.U. after   10 cycles
 SCF Done:  E(RM062X) =  -526.789971683     A.U. after   10 cycles
 SCF Done:  E(RM062X) =  -526.790325199     A.U. after   10 cycles
 SCF Done:  E(RM062X) =  -526.790738453     A.U. after   10 cycles
 SCF Done:  E(RM062X) =  -526.791209436     A.U. after   10 cycles
 SCF Done:  E(RM062X) =  -526.791736058     A.U. after   10 cycles
 SCF Done:  E(RM062X) =  -526.792316201     A.U. after   10 cycles
 SCF Done:  E(RM062X) =  -526.848382590     A.U. after    8 cycles
 SCF Done:  E(RM062X) =  -526.848572068     A.U. after    8 cycles
 SCF Done:  E(RM062X) =  -526.848754111     A.U. after    8 cycles
 SCF Done:  E(RM062X) =  -526.848928873     A.U. after    8 cycles
 SCF Done:  E(RM062X) =  -526.849096508     A.U. after    8 cycles
 SCF Done:  E(RM062X) =  -526.849257175     A.U. after    8 cycles
 SCF Done:  E(RM062X) =  -526.849411035     A.U. after    8 cycles
 SCF Done:  E(RM062X) =  -526.849558254     A.U. after    8 cycles
 SCF Done:  E(RM062X) =  -526.849699000     A.U. after    8 cycles
 SCF Done:  E(RM062X) =  -526.849833450     A.U. after    8 cycles

                          Input orientation:
 ---------------------------------------------------------------------
 Center     Atomic      Atomic             Coordinates (Angstroms)
 Number     Number       Type             X           Y           Z
 ---------------------------------------------------------------------
      1          6           0       -0.205053    0.457227   -0.861012
      2          8           0       -0.836204   -0.043681   -1.734518
      3          6           0        0.079615   -0.284249    0.485583
      4          9           0        1.202881   -0.991325    0.368120
      5          9           0        0.211143    0.536823    1.519208
      6          9           0       -0.914286   -1.121668    0.737816
      7          8           0        0.331018    1.662688   -0.983798
      8          1           0        0.090724    1.957785   -1.874501
 ---------------------------------------------------------------------

 Normal termination of Gaussian 16 at Sun May 25 04:09:19 2025.
