 Gaussian 16, Revision C.01,
 Gaussian 16:  ES64L-G16RevC.01  3-Jul-2019

 ----------------------------------------------------------------------
 #P mp2/6-31G Symm(None) scf(xqc) pop(None) guess(Mix,Always) freq opt(
 CalcFC)
 ----------------------------------------------------------------------

 ------------------------------
 Gaussian input prepared by ASE
 ------------------------------
 Symbolic Z-matrix:
 Charge =  0 Multiplicity = 1

 SCF Done:  E(RHF) =  -524.142056243     A.U. after   17 cycles
 E2 =    -0.8085378376D+00 EUMP2 =    -0.52495059408093D+03
 E2 =    -0.8085378376D+00 EUMP2 =    -0.52495059408093D+03
 SCF Done:  E(RHF) =  -524.146291004     A.U. after   17 cycles
 E2 =    -0.8081026842D+00 EUMP2 =    -0.52495439368800D+03
 SCF Done:  E(RHF) =  -524.146834430     A.U. after   17 cycles
 E2 =    -0.8081403279D+00 EUMP2 =    -0.52495497475772D+03
 SCF Done:  E(RHF) =  -524.147011394     A.U. after   17 cycles
 E2 =    -0.8080818614D+00 EUMP2 =    -0.52495509325543D+03
 SCF Done:  E(RHF) =  -524.147045168     A.U. after   17 cycles
 E2 =    -0.8080618714D+00 EUMP2 =    -0.52495510703991D+03
 SCF Done:  E(RHF) =  -524.147059065     A.U. after   17 cycles
 E2 =    -0.8080486775D+00 EUMP2 =    -0.52495510774289D+03
 SCF Done:  E(RHF) =  -524.147068441     A.U. after   17 cycles
 E2 =    -0.8080394747D+00 EUMP2 =    -0.52495510791584D+03
 Optimization completed.
    -- Stationary point found.
 Normal termination of Gaussian 16 at Sun May 25 03:45:35 2025.

 -------------------------------------------------------------------
 #P Geom=AllCheck Guess=TCheck SCRF=Check GenChk RMP2(FC)/6-31G Freq
 -------------------------------------------------------------------

 Structure from the checkpoint file:  "1141903082400600000001_R_Addition_MultipleBond_1_7_8_IRC_R_prod.chk"
 ------------------------------
 Gaussian input prepared by ASE
 ------------------------------
 Charge =  0 Multiplicity = 1

                          Input orientation:
 ---------------------------------------------------------------------
 Center     Atomic      Atomic             Coordinates (Angstroms)
 Number     Number       Type             X           Y           Z
 ---------------------------------------------------------------------
      1          6           0        1.012898   -0.020530    0.039015
      2          8           0        1.765622   -1.009468    0.008626
      3          6           0       -0.517336   -0.089056    0.005271
      4          9           0       -1.067129    0.487736    1.154779
      5          9           0       -1.021925    0.591090   -1.107889
      6          9           0       -0.939709   -1.412262   -0.063619
      7          8           0        1.404674    1.297493    0.107418
      8          1           0        2.385891    1.379626    0.130814
 ---------------------------------------------------------------------

 SCF Done:  E(RHF) =  -524.147068441     A.U. after    1 cycles
 E2 =    -0.8080394734D+00 EUMP2 =    -0.52495510791458D+03
 E2 =    -0.8080394734D+00 EUMP2 =    -0.52495510791458D+03

                      1                      2                      3
                      A                      A                      A
 Frequencies --     40.7930               240.8448               241.1425
 Red. masses --     13.9489                10.2203                11.4232
 Frc consts  --      0.0137                 0.3493                 0.3914
 IR Inten    --      1.0454                 0.0894                 0.9718

                      4                      5                      6
                      A                      A                      A
 Frequencies --    386.8776               405.1925               465.8363
 Red. masses --     11.8687                15.8750                 9.2198
 Frc consts  --      1.0466                 1.5356                 1.1788
 IR Inten    --      2.7154                 0.8086                 0.0358

                      7                      8                      9
                      A                      A                      A
 Frequencies --    557.9878               598.1323               629.8953
 Red. masses --     13.3566                 1.2102                 6.4329
 Frc consts  --      2.4502                 0.2551                 1.5038
 IR Inten    --     14.9549               183.0932                65.3901

                     10                     11                     12
                      A                      A                      A
 Frequencies --    738.3899               747.6016              1081.9907
 Red. masses --     10.9757                 8.3101                 4.4292
 Frc consts  --      3.5258                 2.7365                 3.0551
 IR Inten    --     29.9923                 7.2778               324.2108

                     13                     14                     15
                      A                      A                      A
 Frequencies --   1172.2990              1192.1292              1239.3823
 Red. masses --     12.8461                 4.7964                 3.6421
 Frc consts  --     10.4016                 4.0162                 3.2962
 IR Inten    --    256.5600               244.8923                53.8592

                     16                     17                     18
                      A                      A                      A
 Frequencies --   1424.7138              1701.1068              3608.5119
 Red. masses --      3.6543                10.4193                 1.0645
 Frc consts  --      4.3702                17.7645                 8.1668
 IR Inten    --     32.4368               147.1477                88.1809

 - Thermochemistry -
 -------------------
 Temperature   298.150 Kelvin.  Pressure   1.00000 Atm.
 Atom     1 has atomic number  6 and mass  12.00000

 Molecular mass:   113.99286 amu.
 Principal axes and moments of inertia in atomic units:
                           1         2         3
     Eigenvalues --   507.55000 752.49291 911.83848
           X            0.99244  -0.12112  -0.01998
           Y            0.12010   0.99170  -0.04590
           Z            0.02537   0.04315   0.99875
 This molecule is an asymmetric top.
 Rotational symmetry number  1.
 Warning -- assumption of classical behavior for rotation
           may cause significant error
 Rotational temperatures (Kelvin)      0.17065     0.11510     0.09499
 Rotational constants (GHZ):           3.55579     2.39835     1.97923
 Zero-point vibrational energy      98529.4 (Joules/Mol)
                                   23.54909 (Kcal/Mol)
 Warning -- explicit consideration of   8 degrees of freedom as
           vibrations may cause significant error
 Vibrational temperatures:     58.69   346.52   346.95   556.63   582.98
          (Kelvin)            670.23   802.82   860.58   906.28  1062.38
                             1075.63  1556.74  1686.68  1715.21  1783.19
                             2049.85  2447.51  5191.84

 Zero-point correction=                           0.037528 (Hartree/Particle)
 Thermal correction to Energy=                    0.043859
 Thermal correction to Enthalpy=                  0.044804
 Thermal correction to Gibbs Free Energy=         0.006279
 Sum of electronic and zero-point Energies=           -524.917580
 Sum of electronic and thermal Energies=              -524.911249
 Sum of electronic and thermal Enthalpies=            -524.910304
 Sum of electronic and thermal Free Energies=         -524.948829

                     E (Thermal)             CV                S
                      KCal/Mol        Cal/Mol-Kelvin    Cal/Mol-Kelvin
 Total                   27.522             21.450             81.083
 Electronic               0.000              0.000              0.000
 Translational            0.889              2.981             40.108
 Rotational               0.889              2.981             27.346
 Vibrational             25.745             15.488             13.629
 Vibration     1          0.594              1.981              5.220
 Vibration     2          0.658              1.778              1.797
 Vibration     3          0.658              1.777              1.794
 Vibration     4          0.755              1.498              1.012
 Vibration     5          0.770              1.459              0.944
 Vibration     6          0.823              1.326              0.749
 Vibration     7          0.914              1.122              0.528
 Vibration     8          0.956              1.036              0.453

 Optimization completed.
    -- Stationary point found.
 Normal termination of Gaussian 16 at Sun May 25 03:45:41 2025.
