 Gaussian 16, Revision C.01,
 Gaussian 16:  ES64L-G16RevC.01  3-Jul-2019

 ----------------------------------------------------------------------
 #P M062X/Def2TZVPP Symm(None) scf(xqc) pop(None) opt(NoFreeze,TS,CalcA
 ll,NoEigentest,MaxCycle=999)
 ----------------------------------------------------------------------

 ------------------------------
 Gaussian input prepared by ASE
 ------------------------------
 Symbolic Z-matrix:
 Charge =  0 Multiplicity = 1

 SCF Done:  E(RM062X) =  -526.662306306     A.U. after   20 cycles
 SCF Done:  E(RM062X) =  -526.656364961     A.U. after   16 cycles
 SCF Done:  E(RM062X) =  -526.646006245     A.U. after   19 cycles
 SCF Done:  E(RM062X) =  -526.637873906     A.U. after   17 cycles
 SCF Done:  E(RM062X) =  -526.632135766     A.U. after   20 cycles
 SCF Done:  E(RM062X) =  -526.626125758     A.U. after   20 cycles
 SCF Done:  E(RM062X) =  -526.624364890     A.U. after   20 cycles
 SCF Done:  E(RM062X) =  -526.624471812     A.U. after   15 cycles
 SCF Done:  E(RM062X) =  -526.624476366     A.U. after   12 cycles

 Isotropic polarizability for W=    0.000000       39.71 Bohr**3.
 End of Minotr F.D. properties file   721 does not exist.

 Optimization completed.
    -- Stationary point found.

                          Input orientation:
 ---------------------------------------------------------------------
 Center     Atomic      Atomic             Coordinates (Angstroms)
 Number     Number       Type             X           Y           Z
 ---------------------------------------------------------------------
      1          6           0        1.583233   -0.258383    0.070963
      2          8           0        2.273395   -1.158837    0.158811
      3          6           0        0.048337    0.005074   -0.067517
      4          9           0       -0.357759    0.705644    0.959165
      5          9           0       -0.175747    0.638151   -1.189437
      6          9           0       -0.547809   -1.172198   -0.080986
      7          8           0        2.439313    1.841798    0.074899
      8          1           0        2.056661    0.903027    0.073014
 ---------------------------------------------------------------------

 ******    2 imaginary frequencies (negative Signs) ******

                      1                      2                      3
                      A                      A                      A
 Frequencies --  -1448.7995             -1289.5577                45.4770
 Red. masses --      1.0390                 1.0406                16.0867
 Frc consts  --      1.2849                 1.0195                 0.0196
 IR Inten    --     55.1790                89.4711                 2.8246

                      4                      5                      6
                      A                      A                      A
 Frequencies --    156.9599               210.8018               291.4788
 Red. masses --     14.0447                17.1375                16.0203
 Frc consts  --      0.2039                 0.4487                 0.8019
 IR Inten    --      7.1350                 8.8312                 5.9242

                      7                      8                      9
                      A                      A                      A
 Frequencies --    377.6341               485.5031               499.9077
 Red. masses --     14.2991                13.9399                15.6249
 Frc consts  --      1.2014                 1.9360                 2.3006
 IR Inten    --      0.3771                15.2054                12.3136

                     10                     11                     12
                      A                      A                      A
 Frequencies --    565.6171               648.3772               749.7791
 Red. masses --     17.3824                13.4126                14.4756
 Frc consts  --      3.2765                 3.3221                 4.7946
 IR Inten    --      5.8586                 0.7478               193.1652

                     13                     14                     15
                      A                      A                      A
 Frequencies --    887.2606              1204.9860              1305.3882
 Red. masses --     14.3863                12.9640                13.0051
 Frc consts  --      6.6727                11.0905                13.0570
 IR Inten    --    134.9940               275.1450               139.1913

                     16                     17                     18
                      A                      A                      A
 Frequencies --   1339.3914              2146.4237              3386.0245
 Red. masses --     13.2716                11.8128                 1.0513
 Frc consts  --     14.0277                32.0653                 7.1018
 IR Inten    --    302.4146               669.1368              2377.1488

 - Thermochemistry -
 -------------------
 Temperature   298.150 Kelvin.  Pressure   1.00000 Atm.
 Atom     1 has atomic number  6 and mass  12.00000

 Molecular mass:   113.99286 amu.
 Principal axes and moments of inertia in atomic units:
                           1         2         3
     Eigenvalues --   551.05209 799.757741035.04943
           X            0.92801  -0.36290  -0.08430
           Y            0.36657   0.92982   0.03254
           Z            0.06658  -0.06110   0.99591
 This molecule is an asymmetric top.
 Rotational symmetry number  1.
 Warning -- assumption of classical behavior for rotation
           may cause significant error
 Rotational temperatures (Kelvin)      0.15718     0.10830     0.08368
 Rotational constants (GHZ):           3.27508     2.25661     1.74363
    2 imaginary frequencies ignored.
 Zero-point vibrational energy      85539.0 (Joules/Mol)
                                   20.44432 (Kcal/Mol)
 Warning -- explicit consideration of   8 degrees of freedom as
           vibrations may cause significant error
 Vibrational temperatures:     65.43   225.83   303.30   419.37   543.33
          (Kelvin)            698.53   719.26   813.80   932.87  1078.76
                             1276.57  1733.71  1878.16  1927.09  3088.22
                             4871.73

 Zero-point correction=                           0.032580 (Hartree/Particle)
 Thermal correction to Energy=                    0.039157
 Thermal correction to Enthalpy=                  0.040102
 Thermal correction to Gibbs Free Energy=         0.000858
 Sum of electronic and zero-point Energies=           -526.591896
 Sum of electronic and thermal Energies=              -526.585319
 Sum of electronic and thermal Enthalpies=            -526.584375
 Sum of electronic and thermal Free Energies=         -526.623618

                     E (Thermal)             CV                S
                      KCal/Mol        Cal/Mol-Kelvin    Cal/Mol-Kelvin
 Total                   24.572             21.175             82.594
 Electronic               0.000              0.000              0.000
 Translational            0.889              2.981             40.108
 Rotational               0.889              2.981             27.614
 Vibrational             22.794             15.214             14.872
 Vibration     1          0.595              1.979              5.005
 Vibration     2          0.621              1.895              2.586
 Vibration     3          0.643              1.824              2.037
 Vibration     4          0.687              1.690              1.465
 Vibration     5          0.748              1.518              1.049
 Vibration     6          0.842              1.282              0.695
 Vibration     7          0.855              1.250              0.658
 Vibration     8          0.921              1.106              0.513

 Normal termination of Gaussian 16 at Sun May 25 03:52:22 2025.
