 Gaussian 16, Revision C.01,
 Gaussian 16:  ES64L-G16RevC.01  3-Jul-2019

 ----------------------------------------------------------------------
 #P M062X/Def2TZVPP Symm(None) scf(xqc) pop(None) opt(NoFreeze,TS,CalcA
 ll,NoEigentest,MaxCycle=999)
 ----------------------------------------------------------------------

 ------------------------------
 Gaussian input prepared by ASE
 ------------------------------
 Symbolic Z-matrix:
 Charge =  0 Multiplicity = 1

 SCF Done:  E(RM062X) =  -526.758651688     A.U. after   14 cycles
 SCF Done:  E(RM062X) =  -526.785448107     A.U. after   13 cycles
 SCF Done:  E(RM062X) =  -526.789089186     A.U. after   13 cycles
 SCF Done:  E(RM062X) =  -526.789151733     A.U. after   12 cycles
 SCF Done:  E(RM062X) =  -526.789154188     A.U. after   13 cycles
 SCF Done:  E(RM062X) =  -526.789156255     A.U. after   12 cycles
 SCF Done:  E(RM062X) =  -526.789156453     A.U. after   11 cycles

 Isotropic polarizability for W=    0.000000       32.20 Bohr**3.
 End of Minotr F.D. properties file   721 does not exist.

 Optimization completed.
    -- Stationary point found.

                          Input orientation:
 ---------------------------------------------------------------------
 Center     Atomic      Atomic             Coordinates (Angstroms)
 Number     Number       Type             X           Y           Z
 ---------------------------------------------------------------------
      1          6           0        1.294664   -0.193235   -0.518801
      2          8           0        1.745399   -0.469269   -1.655616
      3          6           0        1.862915   -0.756139    0.785479
      4          9           0        2.548278   -1.863001    0.560431
      5          9           0        2.671720    0.149724    1.324043
      6          9           0        0.885196   -1.018501    1.637503
      7          8           0        0.344374    0.624057   -0.557129
      8          1           0        0.765092    0.383195   -1.769128
 ---------------------------------------------------------------------

 ******    1 imaginary frequencies (negative Signs) ******

                      1                      2                      3
                      A                      A                      A
 Frequencies --  -1992.8200                13.2124               226.6738
 Red. masses --      1.0988                16.7217                14.6783
 Frc consts  --      2.5710                 0.0017                 0.4444
 IR Inten    --    381.5524                 0.0603                 0.9205

                      4                      5                      6
                      A                      A                      A
 Frequencies --    233.0160               415.2071               428.1677
 Red. masses --     10.8513                14.4834                16.8542
 Frc consts  --      0.3471                 1.4711                 1.8205
 IR Inten    --      1.8160                 0.4720                 0.1347

                      7                      8                      9
                      A                      A                      A
 Frequencies --    517.1006               600.7759               746.7238
 Red. masses --     13.4073                17.2309                 5.9155
 Frc consts  --      2.1122                 3.6642                 1.9434
 IR Inten    --      3.5808                 3.4663                 0.4158

                     10                     11                     12
                      A                      A                      A
 Frequencies --    780.7007               973.6420              1177.4867
 Red. masses --     16.9250                14.3631                 1.2463
 Frc consts  --      6.0778                 8.0223                 1.0181
 IR Inten    --     35.8975                73.1723                70.6307

                     13                     14                     15
                      A                      A                      A
 Frequencies --   1259.5010              1274.6968              1301.8610
 Red. masses --     12.5684                12.4851                13.1136
 Frc consts  --     11.7470                11.9525                13.0948
 IR Inten    --    273.6378               306.0013               294.0876

                     16                     17                     18
                      A                      A                      A
 Frequencies --   1604.5747              1732.5179              2240.3783
 Red. masses --      7.4048                 8.4428                 1.0963
 Frc consts  --     11.2326                14.9311                 3.2420
 IR Inten    --     35.7544               507.9794                76.8725

 - Thermochemistry -
 -------------------
 Temperature   298.150 Kelvin.  Pressure   1.00000 Atm.
 Atom     1 has atomic number  6 and mass  12.00000

 Molecular mass:   113.99286 amu.
 Principal axes and moments of inertia in atomic units:
                           1         2         3
     Eigenvalues --   439.88675 757.45561 881.56089
           X            0.36626   0.67277   0.64283
           Y           -0.37559  -0.52518   0.76363
           Z            0.85135  -0.52112   0.06034
 This molecule is an asymmetric top.
 Rotational symmetry number  1.
 Warning -- assumption of classical behavior for rotation
           may cause significant error
 Rotational temperatures (Kelvin)      0.19690     0.11435     0.09825
 Rotational constants (GHZ):           4.10274     2.38264     2.04721
    1 imaginary frequencies ignored.
 Zero-point vibrational energy      92867.5 (Joules/Mol)
                                   22.19587 (Kcal/Mol)
 Warning -- explicit consideration of   7 degrees of freedom as
           vibrations may cause significant error
 Vibrational temperatures:     19.01   326.13   335.26   597.39   616.04
          (Kelvin)            743.99   864.38  1074.37  1123.25  1400.85
                             1694.14  1812.14  1834.00  1873.09  2308.63
                             2492.71  3223.40

 Zero-point correction=                           0.035371 (Hartree/Particle)
 Thermal correction to Energy=                    0.041379
 Thermal correction to Enthalpy=                  0.042323
 Thermal correction to Gibbs Free Energy=         0.003328
 Sum of electronic and zero-point Energies=           -526.753785
 Sum of electronic and thermal Energies=              -526.747778
 Sum of electronic and thermal Enthalpies=            -526.746834
 Sum of electronic and thermal Free Energies=         -526.785828

                     E (Thermal)             CV                S
                      KCal/Mol        Cal/Mol-Kelvin    Cal/Mol-Kelvin
 Total                   25.966             19.246             82.072
 Electronic               0.000              0.000              0.000
 Translational            0.889              2.981             40.108
 Rotational               0.889              2.981             27.176
 Vibrational             24.188             13.284             14.787
 Vibration     1          0.593              1.987              7.458
 Vibration     2          0.650              1.800              1.905
 Vibration     3          0.654              1.790              1.856
 Vibration     4          0.779              1.437              0.908
 Vibration     5          0.790              1.409              0.865
 Vibration     6          0.872              1.212              0.617
 Vibration     7          0.959              1.030              0.448

 Normal termination of Gaussian 16 at Sun May 25 03:52:09 2025.
