 Gaussian 16, Revision C.01,
 Gaussian 16:  ES64L-G16RevC.01  3-Jul-2019

 -----------------------------------------------------------------
 #P M062X/Def2TZVPP Symm(None) scf(xqc) pop(None) freq opt(CalcFC)
 -----------------------------------------------------------------

 ------------------------------
 Gaussian input prepared by ASE
 ------------------------------
 Symbolic Z-matrix:
 Charge =  0 Multiplicity = 1

 SCF Done:  E(RM062X) =  -526.849790219     A.U. after   13 cycles
 SCF Done:  E(RM062X) =  -526.852210533     A.U. after   13 cycles
 SCF Done:  E(RM062X) =  -526.852638832     A.U. after   15 cycles
 SCF Done:  E(RM062X) =  -526.807548203     A.U. after   15 cycles
 SCF Done:  E(RM062X) =  -526.852747885     A.U. after   11 cycles
 SCF Done:  E(RM062X) =  -526.852767461     A.U. after   12 cycles
 SCF Done:  E(RM062X) =  -526.852768251     A.U. after    8 cycles
 SCF Done:  E(RM062X) =  -526.852768348     A.U. after    8 cycles
 Optimization completed.
    -- Stationary point found.
 Normal termination of Gaussian 16 at Sun May 25 04:26:27 2025.

 ---------------------------------------------------------------------
 #P Geom=AllCheck Guess=TCheck SCRF=Check GenChk RM062X/def2TZVPP Freq
 ---------------------------------------------------------------------

 Structure from the checkpoint file:  "1141903082400600000001_intra_H_migration_1_8_IRC_R_prod.chk"
 ------------------------------
 Gaussian input prepared by ASE
 ------------------------------
 Charge =  0 Multiplicity = 1

                          Input orientation:
 ---------------------------------------------------------------------
 Center     Atomic      Atomic             Coordinates (Angstroms)
 Number     Number       Type             X           Y           Z
 ---------------------------------------------------------------------
      1          6           0        1.008224    0.037135    0.038858
      2          8           0        1.758317   -0.883678    0.011476
      3          6           0       -0.527733   -0.114996    0.003766
      4          9           0       -1.067725    0.413016    1.099315
      5          9           0       -1.029053    0.514966   -1.055558
      6          9           0       -0.860754   -1.389898   -0.062475
      7          8           0        1.332686    1.324151    0.102643
      8          1           0        2.296903    1.395591    0.123750
 ---------------------------------------------------------------------

 SCF Done:  E(RM062X) =  -526.852768348     A.U. after    1 cycles

 Isotropic polarizability for W=    0.000000       31.73 Bohr**3.
 End of Minotr F.D. properties file   721 does not exist.

                      1                      2                      3
                      A                      A                      A
 Frequencies --     36.4007               238.4153               246.1688
 Red. masses --     14.4018                11.5488                 9.4568
 Frc consts  --      0.0112                 0.3868                 0.3376
 IR Inten    --      1.7227                 1.3278                 0.0881

                      4                      5                      6
                      A                      A                      A
 Frequencies --    394.5772               432.6267               513.4623
 Red. masses --     12.0721                15.4511                 4.6232
 Frc consts  --      1.1074                 1.7039                 0.7181
 IR Inten    --      2.1961                 0.0405                 4.0303

                      7                      8                      9
                      A                      A                      A
 Frequencies --    595.0403               600.6991               681.3835
 Red. masses --      1.4194                14.1634                 4.8862
 Frc consts  --      0.2961                 3.0111                 1.3366
 IR Inten    --    103.8624                 9.4900                79.1739

                     10                     11                     12
                      A                      A                      A
 Frequencies --    807.2681               824.6157              1178.5806
 Red. masses --      9.9390                 8.7208                 4.0947
 Frc consts  --      3.8162                 3.4939                 3.3512
 IR Inten    --     36.9169                 2.7865               310.8526

                     13                     14                     15
                      A                      A                      A
 Frequencies --   1244.2973              1248.5293              1312.5624
 Red. masses --      2.5911                12.8417                 7.1368
 Frc consts  --      2.3637                11.7942                 7.2442
 IR Inten    --    189.5061               297.3266               194.2571

                     16                     17                     18
                      A                      A                      A
 Frequencies --   1457.5166              1926.4963              3812.6035
 Red. masses --      5.4688                11.7026                 1.0647
 Frc consts  --      6.8450                25.5900                 9.1182
 IR Inten    --     55.2911               320.2297               123.8954

 - Thermochemistry -
 -------------------
 Temperature   298.150 Kelvin.  Pressure   1.00000 Atm.
 Atom     1 has atomic number  6 and mass  12.00000

 Molecular mass:   113.99286 amu.
 Principal axes and moments of inertia in atomic units:
                           1         2         3
     Eigenvalues --   463.58788 717.65971 865.40648
           X            0.98459  -0.17388  -0.01843
           Y            0.17292   0.98392  -0.04479
           Z            0.02592   0.04091   0.99883
 This molecule is an asymmetric top.
 Rotational symmetry number  1.
 Warning -- assumption of classical behavior for rotation
           may cause significant error
 Rotational temperatures (Kelvin)      0.18683     0.12069     0.10008
 Rotational constants (GHZ):           3.89299     2.51476     2.08543
 Zero-point vibrational energy     104979.8 (Joules/Mol)
                                   25.09076 (Kcal/Mol)
 Warning -- explicit consideration of   8 degrees of freedom as
           vibrations may cause significant error
 Vibrational temperatures:     52.37   343.03   354.18   567.71   622.45
          (Kelvin)            738.76   856.13   864.27   980.36  1161.48
                             1186.44  1695.71  1790.27  1796.36  1888.48
                             2097.04  2771.80  5485.49

 Zero-point correction=                           0.039985 (Hartree/Particle)
 Thermal correction to Energy=                    0.046138
 Thermal correction to Enthalpy=                  0.047082
 Thermal correction to Gibbs Free Energy=         0.008823
 Sum of electronic and zero-point Energies=           -526.812784
 Sum of electronic and thermal Energies=              -526.806631
 Sum of electronic and thermal Enthalpies=            -526.805687
 Sum of electronic and thermal Free Energies=         -526.843945

                     E (Thermal)             CV                S
                      KCal/Mol        Cal/Mol-Kelvin    Cal/Mol-Kelvin
 Total                   28.952             20.600             80.522
 Electronic               0.000              0.000              0.000
 Translational            0.889              2.981             40.108
 Rotational               0.889              2.981             27.156
 Vibrational             27.174             14.639             13.257
 Vibration     1          0.594              1.982              5.446
 Vibration     2          0.656              1.782              1.815
 Vibration     3          0.661              1.769              1.758
 Vibration     4          0.762              1.482              0.983
 Vibration     5          0.794              1.399              0.850
 Vibration     6          0.869              1.220              0.625
 Vibration     7          0.953              1.042              0.458
 Vibration     8          0.959              1.030              0.448

 Optimization completed.
    -- Stationary point found.
 Normal termination of Gaussian 16 at Sun May 25 04:27:42 2025.
