 Gaussian 16, Revision C.01,
 Gaussian 16:  ES64L-G16RevC.01  3-Jul-2019

 -----------------------------------------------------------------
 #P M062X/Def2TZVPP Symm(None) scf(xqc) pop(None) freq opt(CalcFC)
 -----------------------------------------------------------------

 ------------------------------
 Gaussian input prepared by ASE
 ------------------------------
 Symbolic Z-matrix:
 Charge =  0 Multiplicity = 1

 SCF Done:  E(RM062X) =  -526.849833426     A.U. after   14 cycles
 SCF Done:  E(RM062X) =  -526.852276068     A.U. after   13 cycles
 SCF Done:  E(RM062X) =  -526.852661364     A.U. after   15 cycles
 SCF Done:  E(RM062X) =  -526.852752022     A.U. after   11 cycles
 SCF Done:  E(RM062X) =  -526.852645496     A.U. after   13 cycles
 SCF Done:  E(RM062X) =  -526.852773143     A.U. after   11 cycles
 SCF Done:  E(RM062X) =  -526.852773465     A.U. after    9 cycles
 Optimization completed.
    -- Stationary point found.
 Normal termination of Gaussian 16 at Sun May 25 04:11:27 2025.

 ---------------------------------------------------------------------
 #P Geom=AllCheck Guess=TCheck SCRF=Check GenChk RM062X/def2TZVPP Freq
 ---------------------------------------------------------------------

 Structure from the checkpoint file:  "1141903082400600000001_intra_H_migration_suprafacial_2_8_IRC_R_prod.chk"
 ------------------------------
 Gaussian input prepared by ASE
 ------------------------------
 Charge =  0 Multiplicity = 1

                          Input orientation:
 ---------------------------------------------------------------------
 Center     Atomic      Atomic             Coordinates (Angstroms)
 Number     Number       Type             X           Y           Z
 ---------------------------------------------------------------------
      1          6           0       -0.291563    0.446632   -0.856877
      2          8           0       -1.183809    0.114094   -1.567248
      3          6           0        0.068745   -0.282657    0.455224
      4          9           0        1.320986   -0.729537    0.405897
      5          9           0       -0.038497    0.549502    1.487970
      6          9           0       -0.740888   -1.306398    0.648044
      7          8           0        0.534727    1.469950   -1.045736
      8          1           0        0.290135    1.912013   -1.870376
 ---------------------------------------------------------------------

 SCF Done:  E(RM062X) =  -526.852773465     A.U. after    1 cycles

 Isotropic polarizability for W=    0.000000       31.73 Bohr**3.
 End of Minotr F.D. properties file   721 does not exist.

                      1                      2                      3
                      A                      A                      A
 Frequencies --     36.6406               239.8780               246.0746
 Red. masses --     14.3903                11.5555                 9.4246
 Frc consts  --      0.0114                 0.3918                 0.3362
 IR Inten    --      1.7206                 1.3880                 0.0889

                      4                      5                      6
                      A                      A                      A
 Frequencies --    394.6120               432.7207               513.2054
 Red. masses --     12.1135                15.4481                 4.5113
 Frc consts  --      1.1114                 1.7043                 0.7001
 IR Inten    --      2.1653                 0.0439                 4.3952

                      7                      8                      9
                      A                      A                      A
 Frequencies --    593.9481               600.7721               682.0941
 Red. masses --      1.4302                14.2963                 4.9167
 Frc consts  --      0.2973                 3.0401                 1.3478
 IR Inten    --    103.7231                 9.2704                79.1927

                     10                     11                     12
                      A                      A                      A
 Frequencies --    807.2947               824.8992              1179.6927
 Red. masses --      9.9689                 8.7388                 4.2548
 Frc consts  --      3.8279                 3.5035                 3.4887
 IR Inten    --     36.7137                 2.8238               313.0806

                     13                     14                     15
                      A                      A                      A
 Frequencies --   1246.1864              1248.8757              1312.7599
 Red. masses --      2.5391                13.1161                 6.9911
 Frc consts  --      2.3233                12.0530                 7.0985
 IR Inten    --    191.7588               298.0196               189.6575

                     16                     17                     18
                      A                      A                      A
 Frequencies --   1457.7697              1926.3970              3810.0741
 Red. masses --      5.4040                11.6905                 1.0647
 Frc consts  --      6.7662                25.5608                 9.1059
 IR Inten    --     54.8211               320.9061               124.1325

 - Thermochemistry -
 -------------------
 Temperature   298.150 Kelvin.  Pressure   1.00000 Atm.
 Atom     1 has atomic number  6 and mass  12.00000

 Molecular mass:   113.99286 amu.
 Principal axes and moments of inertia in atomic units:
                           1         2         3
     Eigenvalues --   463.56444 717.63159 865.37859
           X            0.17698   0.76104   0.62410
           Y           -0.51996   0.61069  -0.59724
           Z            0.83565   0.21881  -0.50379
 This molecule is an asymmetric top.
 Rotational symmetry number  1.
 Warning -- assumption of classical behavior for rotation
           may cause significant error
 Rotational temperatures (Kelvin)      0.18684     0.12069     0.10009
 Rotational constants (GHZ):           3.89318     2.51486     2.08549
 Zero-point vibrational energy     104995.6 (Joules/Mol)
                                   25.09455 (Kcal/Mol)
 Warning -- explicit consideration of   8 degrees of freedom as
           vibrations may cause significant error
 Vibrational temperatures:     52.72   345.13   354.05   567.76   622.59
          (Kelvin)            738.39   854.56   864.38   981.38  1161.52
                             1186.85  1697.31  1792.98  1796.85  1888.77
                             2097.41  2771.66  5481.85

 Zero-point correction=                           0.039991 (Hartree/Particle)
 Thermal correction to Energy=                    0.046141
 Thermal correction to Enthalpy=                  0.047085
 Thermal correction to Gibbs Free Energy=         0.008838
 Sum of electronic and zero-point Energies=           -526.812783
 Sum of electronic and thermal Energies=              -526.806632
 Sum of electronic and thermal Enthalpies=            -526.805688
 Sum of electronic and thermal Free Energies=         -526.843936

                     E (Thermal)             CV                S
                      KCal/Mol        Cal/Mol-Kelvin    Cal/Mol-Kelvin
 Total                   28.954             20.596             80.499
 Electronic               0.000              0.000              0.000
 Translational            0.889              2.981             40.108
 Rotational               0.889              2.981             27.156
 Vibrational             27.177             14.635             13.234
 Vibration     1          0.594              1.982              5.433
 Vibration     2          0.657              1.779              1.804
 Vibration     3          0.661              1.769              1.759
 Vibration     4          0.762              1.482              0.983
 Vibration     5          0.794              1.399              0.850
 Vibration     6          0.868              1.221              0.626
 Vibration     7          0.952              1.045              0.460
 Vibration     8          0.959              1.030              0.448

 Optimization completed.
    -- Stationary point found.
 Normal termination of Gaussian 16 at Sun May 25 04:12:25 2025.
