 Gaussian 16, Revision C.01,
 Gaussian 16:  ES64L-G16RevC.01  3-Jul-2019

 ----------------------------------------------------------------------
 #P M062X/Def2TZVPP Symm(None) scf(xqc) pop(None) opt(CalcAll,Cartesian
 )
 ----------------------------------------------------------------------

 ------------------------------
 Gaussian input prepared by ASE
 ------------------------------
 Symbolic Z-matrix:
 Charge =  0 Multiplicity = 1

 SCF Done:  E(RM062X) =  -526.765130128     A.U. after   13 cycles
 SCF Done:  E(RM062X) =  -526.765084297     A.U. after   12 cycles
 SCF Done:  E(RM062X) =  -526.765126191     A.U. after   11 cycles
 SCF Done:  E(RM062X) =  -526.765131110     A.U. after    8 cycles
 SCF Done:  E(RM062X) =  -526.765133678     A.U. after   11 cycles
 SCF Done:  E(RM062X) =  -526.765134179     A.U. after   11 cycles
 SCF Done:  E(RM062X) =  -526.765134259     A.U. after    8 cycles
 SCF Done:  E(RM062X) =  -526.765134280     A.U. after    8 cycles
 SCF Done:  E(RM062X) =  -526.765134267     A.U. after    8 cycles

 Isotropic polarizability for W=    0.000000       34.18 Bohr**3.
 End of Minotr F.D. properties file   721 does not exist.

 Optimization completed.
    -- Stationary point found.

                          Input orientation:
 ---------------------------------------------------------------------
 Center     Atomic      Atomic             Coordinates (Angstroms)
 Number     Number       Type             X           Y           Z
 ---------------------------------------------------------------------
      1          6           0        1.194580    0.145965    0.682067
      2          8           0        0.910066   -0.958536    0.966679
      3          6           0       -1.252207    0.022077   -0.884140
      4          9           0        0.673900    1.209711    1.306443
      5          9           0       -2.224182   -0.020941   -0.036265
      6          9           0       -1.497239   -0.928717   -1.721185
      7          8           0        2.048321    0.527535   -0.247810
      8          1           0        2.055321    1.488604   -0.321311
 ---------------------------------------------------------------------

                      1                      2                      3
                      A                      A                      A
 Frequencies --     14.7991                30.7109                34.3224
 Red. masses --     14.8105                15.8812                11.0923
 Frc consts  --      0.0019                 0.0088                 0.0077
 IR Inten    --      5.4434                 2.9954                 9.8040

                      4                      5                      6
                      A                      A                      A
 Frequencies --     69.8731                86.0669               183.8181
 Red. masses --     10.1356                16.5579                12.0478
 Frc consts  --      0.0292                 0.0723                 0.2398
 IR Inten    --      2.2331                 0.2909                 0.3969

                      7                      8                      9
                      A                      A                      A
 Frequencies --    483.0337               569.1612               630.3853
 Red. masses --      1.1242                 5.2219                14.7925
 Frc consts  --      0.1545                 0.9967                 3.4634
 IR Inten    --    135.6234                17.0164                 3.6680

                     10                     11                     12
                      A                      A                      A
 Frequencies --    693.6230               788.3314               972.6908
 Red. masses --     17.6599                12.3532                11.5286
 Frc consts  --      5.0059                 4.5232                 6.4265
 IR Inten    --      5.3384                56.7123                75.2847

                     13                     14                     15
                      A                      A                      A
 Frequencies --   1200.5326              1219.8543              1300.1336
 Red. masses --     11.1926                 1.8779                13.8454
 Frc consts  --      9.5045                 1.6464                13.7889
 IR Inten    --    276.4294                68.3260               140.8315

                     16                     17                     18
                      A                      A                      A
 Frequencies --   1365.8272              1990.6153              3857.6284
 Red. masses --      3.0031                11.0132                 1.0658
 Frc consts  --      3.3007                25.7121                 9.3445
 IR Inten    --    514.6734               493.9522               138.2247

 - Thermochemistry -
 -------------------
 Temperature   298.150 Kelvin.  Pressure   1.00000 Atm.
 Atom     1 has atomic number  6 and mass  12.00000

 Molecular mass:   113.99286 amu.
 Principal axes and moments of inertia in atomic units:
                           1         2         3
     Eigenvalues --   435.111471320.837911462.01220
           X            0.86210  -0.50637   0.01924
           Y            0.24201   0.44478   0.86233
           Z            0.44521   0.73876  -0.50599
 This molecule is an asymmetric top.
 Rotational symmetry number  1.
 Warning -- assumption of classical behavior for rotation
           may cause significant error
 Rotational temperatures (Kelvin)      0.19906     0.06557     0.05924
 Rotational constants (GHZ):           4.14777     1.36636     1.23442
 Zero-point vibrational energy      92659.2 (Joules/Mol)
                                   22.14608 (Kcal/Mol)
 Warning -- explicit consideration of   8 degrees of freedom as
           vibrations may cause significant error
 Vibrational temperatures:     21.29    44.19    49.38   100.53   123.83
          (Kelvin)            264.47   694.98   818.90   906.98   997.97
                             1134.23  1399.49  1727.30  1755.10  1870.60
                             1965.12  2864.05  5550.27

 Zero-point correction=                           0.035292 (Hartree/Particle)
 Thermal correction to Energy=                    0.043771
 Thermal correction to Enthalpy=                  0.044715
 Thermal correction to Gibbs Free Energy=        -0.002547
 Sum of electronic and zero-point Energies=           -526.729842
 Sum of electronic and thermal Energies=              -526.721363
 Sum of electronic and thermal Enthalpies=            -526.720419
 Sum of electronic and thermal Free Energies=         -526.767682

                     E (Thermal)             CV                S
                      KCal/Mol        Cal/Mol-Kelvin    Cal/Mol-Kelvin
 Total                   27.467             23.653             99.472
 Electronic               0.000              0.000              0.000
 Translational            0.889              2.981             40.108
 Rotational               0.889              2.981             28.221
 Vibrational             25.689             17.691             31.143
 Vibration     1          0.593              1.986              7.232
 Vibration     2          0.594              1.984              5.783
 Vibration     3          0.594              1.983              5.562
 Vibration     4          0.598              1.968              4.157
 Vibration     5          0.601              1.959              3.748
 Vibration     6          0.631              1.862              2.289
 Vibration     7          0.839              1.288              0.702
 Vibration     8          0.925              1.098              0.506

 Normal termination of Gaussian 16 at Sun May 25 04:23:04 2025.
