 Gaussian 16, Revision C.01,
 Gaussian 16:  ES64L-G16RevC.01  3-Jul-2019

 ----------------------------------------------------------------------
 #P M062X/Def2TZVPP Symm(None) scf(xqc) pop(None) opt(CalcAll,Cartesian
 )
 ----------------------------------------------------------------------

 ------------------------------
 Gaussian input prepared by ASE
 ------------------------------
 Symbolic Z-matrix:
 Charge =  0 Multiplicity = 1

 SCF Done:  E(RM062X) =  -526.847749243     A.U. after   13 cycles
 SCF Done:  E(RM062X) =  -526.847882489     A.U. after   11 cycles
 SCF Done:  E(RM062X) =  -526.847881009     A.U. after   12 cycles
 SCF Done:  E(RM062X) =  -526.847884736     A.U. after   10 cycles
 SCF Done:  E(RM062X) =  -526.847884156     A.U. after   11 cycles
 SCF Done:  E(RM062X) =  -526.847880778     A.U. after   12 cycles
 SCF Done:  E(RM062X) =  -526.847884745     A.U. after   11 cycles
 SCF Done:  E(RM062X) =  -526.847886456     A.U. after   11 cycles
 SCF Done:  E(RM062X) =  -526.847887059     A.U. after   12 cycles
 SCF Done:  E(RM062X) =  -526.847888184     A.U. after   10 cycles
 SCF Done:  E(RM062X) =  -526.847888155     A.U. after   12 cycles
 SCF Done:  E(RM062X) =  -526.847888537     A.U. after   10 cycles
 SCF Done:  E(RM062X) =  -526.847888542     A.U. after    9 cycles
 SCF Done:  E(RM062X) =  -526.847888573     A.U. after    8 cycles

 Isotropic polarizability for W=    0.000000       31.66 Bohr**3.
 End of Minotr F.D. properties file   721 does not exist.

 Optimization completed.
    -- Stationary point found.

                          Input orientation:
 ---------------------------------------------------------------------
 Center     Atomic      Atomic             Coordinates (Angstroms)
 Number     Number       Type             X           Y           Z
 ---------------------------------------------------------------------
      1          6           0       -1.195246   -0.509865   -0.029433
      2          8           0       -2.137757    0.261831    0.503156
      3          6           0        0.258029    0.011225    0.123458
      4          9           0        1.006755   -0.885546    0.741783
      5          9           0        0.781224    0.262485   -1.065876
      6          9           0        0.293309    1.148445    0.839674
      7          8           0       -1.404518   -1.528760   -0.595183
      8          1           0       -1.757999    1.041851    0.925023
 ---------------------------------------------------------------------

                      1                      2                      3
                      A                      A                      A
 Frequencies --     11.6577               256.5641               267.9416
 Red. masses --     10.6818                17.3294                12.4306
 Frc consts  --      0.0009                 0.6721                 0.5258
 IR Inten    --      2.0581                10.0567                11.5066

                      4                      5                      6
                      A                      A                      A
 Frequencies --    399.2397               435.9960               517.8897
 Red. masses --      9.3424                13.4040                 9.7403
 Frc consts  --      0.8774                 1.5012                 1.5392
 IR Inten    --      4.8708                 4.1295                31.0887

                      7                      8                      9
                      A                      A                      A
 Frequencies --    542.1623               603.3960               704.2927
 Red. masses --      1.1648                13.2342                10.0725
 Frc consts  --      0.2017                 2.8389                 2.9437
 IR Inten    --     89.4232                 0.2417                30.6497

                     10                     11                     12
                      A                      A                      A
 Frequencies --    792.0534               825.5701              1169.8361
 Red. masses --     10.8094                13.1235                 4.9071
 Frc consts  --      3.9954                 5.2700                 3.9566
 IR Inten    --      7.8488                12.3671                86.9889

                     13                     14                     15
                      A                      A                      A
 Frequencies --   1254.1533              1270.3134              1280.4229
 Red. masses --     13.0635                 1.6134                12.9947
 Frc consts  --     12.1063                 1.5340                12.5523
 IR Inten    --    415.2613               199.6140               300.2374

                     16                     17                     18
                      A                      A                      A
 Frequencies --   1432.8408              1951.1760              3840.8576
 Red. masses --      5.7222                11.4500                 1.0657
 Frc consts  --      6.9217                25.6832                 9.2628
 IR Inten    --    135.6943               292.6351               148.0666

 - Thermochemistry -
 -------------------
 Temperature   298.150 Kelvin.  Pressure   1.00000 Atm.
 Atom     1 has atomic number  6 and mass  12.00000

 Molecular mass:   113.99286 amu.
 Principal axes and moments of inertia in atomic units:
                           1         2         3
     Eigenvalues --   468.63888 714.99768 869.08166
           X            0.95826  -0.27286   0.08531
           Y            0.27837   0.82258  -0.49586
           Z            0.06512   0.49891   0.86420
 This molecule is an asymmetric top.
 Rotational symmetry number  1.
 Warning -- assumption of classical behavior for rotation
           may cause significant error
 Rotational temperatures (Kelvin)      0.18482     0.12114     0.09966
 Rotational constants (GHZ):           3.85103     2.52412     2.07661
 Zero-point vibrational energy     105010.4 (Joules/Mol)
                                   25.09808 (Kcal/Mol)
 Warning -- explicit consideration of   8 degrees of freedom as
           vibrations may cause significant error
 Vibrational temperatures:     16.77   369.14   385.51   574.42   627.30
          (Kelvin)            745.13   780.05   868.15  1013.32  1139.59
                             1187.81  1683.13  1804.45  1827.70  1842.24
                             2061.54  2807.31  5526.14

 Zero-point correction=                           0.039996 (Hartree/Particle)
 Thermal correction to Energy=                    0.046163
 Thermal correction to Enthalpy=                  0.047108
 Thermal correction to Gibbs Free Energy=         0.007880
 Sum of electronic and zero-point Energies=           -526.807892
 Sum of electronic and thermal Energies=              -526.801725
 Sum of electronic and thermal Enthalpies=            -526.800781
 Sum of electronic and thermal Free Energies=         -526.840009

                     E (Thermal)             CV                S
                      KCal/Mol        Cal/Mol-Kelvin    Cal/Mol-Kelvin
 Total                   28.968             20.609             82.561
 Electronic               0.000              0.000              0.000
 Translational            0.889              2.981             40.108
 Rotational               0.889              2.981             27.168
 Vibrational             27.190             14.648             15.285
 Vibration     1          0.593              1.987              7.706
 Vibration     2          0.666              1.752              1.685
 Vibration     3          0.673              1.732              1.609
 Vibration     4          0.765              1.472              0.965
 Vibration     5          0.796              1.392              0.839
 Vibration     6          0.873              1.210              0.615
 Vibration     7          0.897              1.157              0.561
 Vibration     8          0.962              1.025              0.444

 Normal termination of Gaussian 16 at Sun May 25 05:00:26 2025.
