 Gaussian 16, Revision C.01,
 Gaussian 16:  ES64L-G16RevC.01  3-Jul-2019

 ----------------------------------------------------------------------
 #P M062X/Def2TZVPP Symm(None) scf(xqc) pop(None) geom(AllCheck,NoKeepC
 onstants) guess(Read) irc(RCFC,reverse,MaxPoints=100,StepSize=2)
 ----------------------------------------------------------------------

 Structure from the checkpoint file:  "1141903082400600000001_r13_insertion_CO2_3_8_IRC_R.chk"
 ------------------------------
 Gaussian input prepared by ASE
 ------------------------------
 Charge =  0 Multiplicity = 1

 SCF Done:  E(RM062X) =  -526.727430874     A.U. after   10 cycles
 SCF Done:  E(RM062X) =  -526.727535942     A.U. after   11 cycles
 SCF Done:  E(RM062X) =  -526.727707223     A.U. after   11 cycles
 SCF Done:  E(RM062X) =  -526.727941591     A.U. after   11 cycles
 SCF Done:  E(RM062X) =  -526.728235922     A.U. after   11 cycles
 SCF Done:  E(RM062X) =  -526.728587075     A.U. after   11 cycles
 SCF Done:  E(RM062X) =  -526.728991871     A.U. after   11 cycles
 SCF Done:  E(RM062X) =  -526.729447076     A.U. after   11 cycles
 SCF Done:  E(RM062X) =  -526.729949428     A.U. after   11 cycles
 SCF Done:  E(RM062X) =  -526.730495693     A.U. after   11 cycles
 SCF Done:  E(RM062X) =  -526.793086205     A.U. after    9 cycles
 SCF Done:  E(RM062X) =  -526.793658437     A.U. after    9 cycles
 SCF Done:  E(RM062X) =  -526.794225642     A.U. after    9 cycles
 SCF Done:  E(RM062X) =  -526.794787873     A.U. after    9 cycles
 SCF Done:  E(RM062X) =  -526.795345185     A.U. after    9 cycles
 SCF Done:  E(RM062X) =  -526.795897629     A.U. after    9 cycles
 SCF Done:  E(RM062X) =  -526.796445257     A.U. after    9 cycles
 SCF Done:  E(RM062X) =  -526.796988121     A.U. after    9 cycles
 SCF Done:  E(RM062X) =  -526.797526271     A.U. after    9 cycles
 SCF Done:  E(RM062X) =  -526.798059755     A.U. after    9 cycles

                          Input orientation:
 ---------------------------------------------------------------------
 Center     Atomic      Atomic             Coordinates (Angstroms)
 Number     Number       Type             X           Y           Z
 ---------------------------------------------------------------------
      1          6           0        1.247214    0.018505   -0.242125
      2          8           0        1.625032   -0.470399   -1.245892
      3          6           0       -0.608663   -0.000459    0.133565
      4          9           0       -1.326035    0.494037    1.213477
      5          9           0       -1.138375    0.607594   -0.917051
      6          9           0       -0.914211   -1.289017    0.100608
      7          8           0        1.837819    0.624894    0.768921
      8          1           0        1.128936    0.865580    1.378038
 ---------------------------------------------------------------------

 Normal termination of Gaussian 16 at Sun May 25 04:15:58 2025.
