 Gaussian 16, Revision C.01,
 Gaussian 16:  ES64L-G16RevC.01  3-Jul-2019

 -----------------------------------------------------------------
 #P M062X/Def2TZVPP Symm(None) scf(xqc) pop(None) freq opt(CalcFC)
 -----------------------------------------------------------------

 ------------------------------
 Gaussian input prepared by ASE
 ------------------------------
 Symbolic Z-matrix:
 Charge =  0 Multiplicity = 1

 SCF Done:  E(RM062X) =  -526.769473634     A.U. after   13 cycles
 SCF Done:  E(RM062X) =  -526.769881631     A.U. after   12 cycles
 SCF Done:  E(RM062X) =  -526.769339126     A.U. after   12 cycles
 SCF Done:  E(RM062X) =  -526.770018483     A.U. after   12 cycles
 SCF Done:  E(RM062X) =  -526.769985761     A.U. after   12 cycles
 SCF Done:  E(RM062X) =  -526.770146751     A.U. after   12 cycles
 SCF Done:  E(RM062X) =  -526.770194033     A.U. after   11 cycles
 SCF Done:  E(RM062X) =  -526.770239978     A.U. after   12 cycles
 SCF Done:  E(RM062X) =  -526.770257914     A.U. after   11 cycles
 SCF Done:  E(RM062X) =  -526.770268435     A.U. after   12 cycles
 SCF Done:  E(RM062X) =  -526.770289533     A.U. after    9 cycles
 SCF Done:  E(RM062X) =  -526.770289796     A.U. after    9 cycles
 SCF Done:  E(RM062X) =  -526.770290038     A.U. after    8 cycles
 SCF Done:  E(RM062X) =  -526.770290103     A.U. after    8 cycles
 SCF Done:  E(RM062X) =  -526.770290178     A.U. after    8 cycles
 SCF Done:  E(RM062X) =  -526.770290267     A.U. after    8 cycles
 SCF Done:  E(RM062X) =  -526.770290284     A.U. after    8 cycles
 SCF Done:  E(RM062X) =  -526.770290298     A.U. after    8 cycles
 SCF Done:  E(RM062X) =  -526.770290301     A.U. after    8 cycles
 Optimization completed.
    -- Stationary point found.
 Normal termination of Gaussian 16 at Sun May 25 04:28:14 2025.

 ---------------------------------------------------------------------
 #P Geom=AllCheck Guess=TCheck SCRF=Check GenChk RM062X/def2TZVPP Freq
 ---------------------------------------------------------------------

 Structure from the checkpoint file:  "1141903082400600000001_r13_insertion_ROR_4_3_1_2_IRC_R_prod.chk"
 ------------------------------
 Gaussian input prepared by ASE
 ------------------------------
 Charge =  0 Multiplicity = 1

                          Input orientation:
 ---------------------------------------------------------------------
 Center     Atomic      Atomic             Coordinates (Angstroms)
 Number     Number       Type             X           Y           Z
 ---------------------------------------------------------------------
      1          6           0        0.574235    1.074147    0.685961
      2          8           0       -0.772748   -0.450506   -1.854563
      3          6           0       -0.527997   -1.067012   -0.893653
      4          9           0       -0.229753    1.825824    1.428065
      5          9           0       -1.334538   -1.264174    0.117332
      6          9           0        0.572094   -1.738018   -0.671363
      7          8           0        1.721818    1.651864    0.654041
      8          1           0        1.736754    2.485933    1.163543
 ---------------------------------------------------------------------

 SCF Done:  E(RM062X) =  -526.770290301     A.U. after    1 cycles

 Isotropic polarizability for W=    0.000000       34.65 Bohr**3.
 End of Minotr F.D. properties file   721 does not exist.

                      1                      2                      3
                      A                      A                      A
 Frequencies --      6.2963                15.5601                47.6670
 Red. masses --     13.1738                14.3463                 7.5735
 Frc consts  --      0.0003                 0.0020                 0.0101
 IR Inten    --      1.6939                 1.9874                11.7368

                      4                      5                      6
                      A                      A                      A
 Frequencies --     85.9154               113.2723               176.4386
 Red. masses --     13.3162                16.5097                 5.5170
 Frc consts  --      0.0579                 0.1248                 0.1012
 IR Inten    --      0.7005                 0.3493                17.5840

                      7                      8                      9
                      A                      A                      A
 Frequencies --    590.4270               632.7253               662.6720
 Red. masses --     17.6100                16.9987                 3.8906
 Frc consts  --      3.6170                 4.0095                 1.0066
 IR Inten    --      4.9455                 7.3956                31.2542

                     10                     11                     12
                      A                      A                      A
 Frequencies --    773.4671               780.8060              1010.7144
 Red. masses --     12.7625                 1.2940                17.2096
 Frc consts  --      4.4985                 0.4648                10.3580
 IR Inten    --     98.1010               121.1397                52.8846

                     13                     14                     15
                      A                      A                      A
 Frequencies --   1058.1250              1308.6650              1326.7149
 Red. masses --      4.1293                10.9562                 1.9712
 Frc consts  --      2.7240                11.0553                 2.0442
 IR Inten    --     86.4688               261.2701               423.7942

                     16                     17                     18
                      A                      A                      A
 Frequencies --   1413.4637              2015.7469              3629.6291
 Red. masses --      6.6403                13.1672                 1.0623
 Frc consts  --      7.8164                31.5221                 8.2458
 IR Inten    --    107.3163               473.0333                37.5745

 - Thermochemistry -
 -------------------
 Temperature   298.150 Kelvin.  Pressure   1.00000 Atm.
 Atom     1 has atomic number  6 and mass  12.00000

 Molecular mass:   113.99286 amu.
 Principal axes and moments of inertia in atomic units:
                           1         2         3
     Eigenvalues --   443.452381372.335051512.06148
           X            0.33435   0.90962   0.24656
           Y            0.79371  -0.13071  -0.59409
           Z            0.50817  -0.39434   0.76568
 This molecule is an asymmetric top.
 Rotational symmetry number  1.
 Warning -- assumption of classical behavior for rotation
           may cause significant error
 Rotational temperatures (Kelvin)      0.19532     0.06311     0.05728
 Rotational constants (GHZ):           4.06975     1.31509     1.19356
 Zero-point vibrational energy      93597.7 (Joules/Mol)
                                   22.37038 (Kcal/Mol)
 Warning -- explicit consideration of   7 degrees of freedom as
           vibrations may cause significant error
 Vibrational temperatures:      9.06    22.39    68.58   123.61   162.97
          (Kelvin)            253.86   849.49   910.35   953.44  1112.85
                             1123.41  1454.19  1522.41  1882.88  1908.85
                             2033.66  2900.21  5222.23

 Zero-point correction=                           0.035649 (Hartree/Particle)
 Thermal correction to Energy=                    0.043931
 Thermal correction to Enthalpy=                  0.044876
 Thermal correction to Gibbs Free Energy=        -0.002935
 Sum of electronic and zero-point Energies=           -526.734641
 Sum of electronic and thermal Energies=              -526.726359
 Sum of electronic and thermal Enthalpies=            -526.725415
 Sum of electronic and thermal Free Energies=         -526.773225

                     E (Thermal)             CV                S
                      KCal/Mol        Cal/Mol-Kelvin    Cal/Mol-Kelvin
 Total                   27.567             23.053            100.626
 Electronic               0.000              0.000              0.000
 Translational            0.889              2.981             40.108
 Rotational               0.889              2.981             28.311
 Vibrational             25.790             17.092             32.206
 Vibration     1          0.593              1.987              8.930
 Vibration     2          0.593              1.986              7.133
 Vibration     3          0.595              1.978              4.912
 Vibration     4          0.601              1.959              3.751
 Vibration     5          0.607              1.938              3.212
 Vibration     6          0.628              1.871              2.366
 Vibration     7          0.948              1.052              0.466

 Optimization completed.
    -- Stationary point found.
 Normal termination of Gaussian 16 at Sun May 25 04:29:03 2025.
