 Gaussian 16, Revision C.01,
 Gaussian 16:  ES64L-G16RevC.01  3-Jul-2019

 -----------------------------------------------------------------
 #P M062X/Def2TZVPP Symm(None) scf(xqc) pop(None) freq opt(CalcFC)
 -----------------------------------------------------------------

 ------------------------------
 Gaussian input prepared by ASE
 ------------------------------
 Symbolic Z-matrix:
 Charge =  0 Multiplicity = 1

 SCF Done:  E(RM062X) =  -526.837527867     A.U. after   14 cycles
 SCF Done:  E(RM062X) =  -526.846982285     A.U. after   13 cycles
 SCF Done:  E(RM062X) =  -526.847720956     A.U. after   12 cycles
 SCF Done:  E(RM062X) =  -526.847761965     A.U. after   11 cycles
 SCF Done:  E(RM062X) =  -526.847791670     A.U. after   12 cycles
 SCF Done:  E(RM062X) =  -526.847828008     A.U. after   12 cycles
 SCF Done:  E(RM062X) =  -526.847863880     A.U. after   13 cycles
 SCF Done:  E(RM062X) =  -526.847873362     A.U. after   12 cycles
 SCF Done:  E(RM062X) =  -526.847861358     A.U. after   12 cycles
 SCF Done:  E(RM062X) =  -526.847887560     A.U. after   12 cycles
 SCF Done:  E(RM062X) =  -526.847888730     A.U. after    9 cycles
 SCF Done:  E(RM062X) =  -526.847890661     A.U. after   11 cycles
 SCF Done:  E(RM062X) =  -526.847890802     A.U. after    9 cycles
 SCF Done:  E(RM062X) =  -526.847890816     A.U. after    8 cycles
 Optimization completed.
    -- Stationary point found.
 Normal termination of Gaussian 16 at Sun May 25 04:13:02 2025.

 ---------------------------------------------------------------------
 #P Geom=AllCheck Guess=TCheck SCRF=Check GenChk RM062X/def2TZVPP Freq
 ---------------------------------------------------------------------

 Structure from the checkpoint file:  "1141903082400600000001_r12_insertion_R_1_3_4_IRC_F_prod.chk"
 ------------------------------
 Gaussian input prepared by ASE
 ------------------------------
 Charge =  0 Multiplicity = 1

                          Input orientation:
 ---------------------------------------------------------------------
 Center     Atomic      Atomic             Coordinates (Angstroms)
 Number     Number       Type             X           Y           Z
 ---------------------------------------------------------------------
      1          6           0        0.991174   -0.172545    0.026693
      2          8           0        1.468396   -1.138395    0.518008
      3          6           0       -0.541785    0.056813    0.090429
      4          9           0       -0.928712    0.208824    1.347177
      5          9           0       -0.895810    1.162478   -0.587630
      6          9           0       -1.184870   -0.970481   -0.436161
      7          8           0        1.685236    0.776829   -0.593365
      8          1           0        1.107701    1.471127   -0.932580
 ---------------------------------------------------------------------

 SCF Done:  E(RM062X) =  -526.847890816     A.U. after    1 cycles

 Isotropic polarizability for W=    0.000000       31.66 Bohr**3.
 End of Minotr F.D. properties file   721 does not exist.

                      1                      2                      3
                      A                      A                      A
 Frequencies --     14.0161               256.2358               267.3034
 Red. masses --     10.6731                17.2913                12.3886
 Frc consts  --      0.0012                 0.6689                 0.5215
 IR Inten    --      2.0713                10.1354                11.5368

                      4                      5                      6
                      A                      A                      A
 Frequencies --    399.0037               435.8657               517.8390
 Red. masses --      9.3445                13.4213                 9.2019
 Frc consts  --      0.8765                 1.5023                 1.4538
 IR Inten    --      4.8369                 4.1232                32.6163

                      7                      8                      9
                      A                      A                      A
 Frequencies --    540.9448               603.6708               704.0227
 Red. masses --      1.1734                13.2094                10.0629
 Frc consts  --      0.2023                 2.8362                 2.9386
 IR Inten    --     87.6607                 0.2583                30.6453

                     10                     11                     12
                      A                      A                      A
 Frequencies --    792.0575               825.4729              1169.9263
 Red. masses --     10.8100                13.1348                 4.8992
 Frc consts  --      3.9957                 5.2732                 3.9509
 IR Inten    --      7.8825                12.3357                86.9336

                     13                     14                     15
                      A                      A                      A
 Frequencies --   1253.5428              1269.9374              1281.0096
 Red. masses --     12.9343                 1.6165                12.8959
 Frc consts  --     11.9749                 1.5360                12.4683
 IR Inten    --    418.3523               193.3333               304.6011

                     16                     17                     18
                      A                      A                      A
 Frequencies --   1432.4894              1951.2532              3842.8155
 Red. masses --      5.7462                11.4501                 1.0657
 Frc consts  --      6.9473                25.6854                 9.2724
 IR Inten    --    135.1067               292.3534               147.9409

 - Thermochemistry -
 -------------------
 Temperature   298.150 Kelvin.  Pressure   1.00000 Atm.
 Atom     1 has atomic number  6 and mass  12.00000

 Molecular mass:   113.99286 amu.
 Principal axes and moments of inertia in atomic units:
                           1         2         3
     Eigenvalues --   468.64842 714.92832 869.01101
           X            0.99349   0.03842   0.10723
           Y           -0.08649   0.86707   0.49063
           Z           -0.07412  -0.49671   0.86475
 This molecule is an asymmetric top.
 Rotational symmetry number  1.
 Warning -- assumption of classical behavior for rotation
           may cause significant error
 Rotational temperatures (Kelvin)      0.18482     0.12115     0.09967
 Rotational constants (GHZ):           3.85095     2.52437     2.07678
 Zero-point vibrational energy     105016.6 (Joules/Mol)
                                   25.09957 (Kcal/Mol)
 Warning -- explicit consideration of   8 degrees of freedom as
           vibrations may cause significant error
 Vibrational temperatures:     20.17   368.67   384.59   574.08   627.11
          (Kelvin)            745.05   778.30   868.55  1012.93  1139.59
                             1187.67  1683.26  1803.57  1827.16  1843.09
                             2061.03  2807.42  5528.95

 Zero-point correction=                           0.039999 (Hartree/Particle)
 Thermal correction to Energy=                    0.046163
 Thermal correction to Enthalpy=                  0.047107
 Thermal correction to Gibbs Free Energy=         0.008049
 Sum of electronic and zero-point Energies=           -526.807892
 Sum of electronic and thermal Energies=              -526.801728
 Sum of electronic and thermal Enthalpies=            -526.800784
 Sum of electronic and thermal Free Energies=         -526.839842

                     E (Thermal)             CV                S
                      KCal/Mol        Cal/Mol-Kelvin    Cal/Mol-Kelvin
 Total                   28.968             20.615             82.205
 Electronic               0.000              0.000              0.000
 Translational            0.889              2.981             40.108
 Rotational               0.889              2.981             27.168
 Vibrational             27.190             14.653             14.929
 Vibration     1          0.593              1.986              7.340
 Vibration     2          0.666              1.752              1.687
 Vibration     3          0.672              1.733              1.614
 Vibration     4          0.765              1.472              0.966
 Vibration     5          0.796              1.392              0.840
 Vibration     6          0.873              1.210              0.615
 Vibration     7          0.896              1.160              0.563
 Vibration     8          0.962              1.024              0.443

 Optimization completed.
    -- Stationary point found.
 Normal termination of Gaussian 16 at Sun May 25 04:14:18 2025.
