 Gaussian 16, Revision C.01,
 Gaussian 16:  ES64L-G16RevC.01  3-Jul-2019

 ----------------------------------------------------------------------
 #P M062X/Def2TZVPP Symm(None) scf(xqc) pop(None) geom(AllCheck,NoKeepC
 onstants) guess(Read) irc(RCFC,forward,MaxPoints=100,StepSize=2)
 ----------------------------------------------------------------------

 Structure from the checkpoint file:  "1141903082400600000001_intra_H_migration_1_8_IRC_F.chk"
 ------------------------------
 Gaussian input prepared by ASE
 ------------------------------
 Charge =  0 Multiplicity = 1

 SCF Done:  E(RM062X) =  -526.789185798     A.U. after    9 cycles
 SCF Done:  E(RM062X) =  -526.789284864     A.U. after   11 cycles
 SCF Done:  E(RM062X) =  -526.789449385     A.U. after   11 cycles
 SCF Done:  E(RM062X) =  -526.789678422     A.U. after   11 cycles
 SCF Done:  E(RM062X) =  -526.789970626     A.U. after   11 cycles
 SCF Done:  E(RM062X) =  -526.790324343     A.U. after   11 cycles
 SCF Done:  E(RM062X) =  -526.790737725     A.U. after   11 cycles
 SCF Done:  E(RM062X) =  -526.791208812     A.U. after   11 cycles
 SCF Done:  E(RM062X) =  -526.791735554     A.U. after   11 cycles
 SCF Done:  E(RM062X) =  -526.792315817     A.U. after   11 cycles
 SCF Done:  E(RM062X) =  -526.848391892     A.U. after    8 cycles
 SCF Done:  E(RM062X) =  -526.848581232     A.U. after    8 cycles
 SCF Done:  E(RM062X) =  -526.848763166     A.U. after    8 cycles
 SCF Done:  E(RM062X) =  -526.848937850     A.U. after    8 cycles
 SCF Done:  E(RM062X) =  -526.849105441     A.U. after    8 cycles
 SCF Done:  E(RM062X) =  -526.849266097     A.U. after    8 cycles
 SCF Done:  E(RM062X) =  -526.849419977     A.U. after    8 cycles
 SCF Done:  E(RM062X) =  -526.849567244     A.U. after    8 cycles
 SCF Done:  E(RM062X) =  -526.849708065     A.U. after    8 cycles
 SCF Done:  E(RM062X) =  -526.849842610     A.U. after    8 cycles

                          Input orientation:
 ---------------------------------------------------------------------
 Center     Atomic      Atomic             Coordinates (Angstroms)
 Number     Number       Type             X           Y           Z
 ---------------------------------------------------------------------
      1          6           0        0.966555    0.238373    0.037851
      2          8           0        1.782606   -0.710117   -0.398150
      3          6           0       -0.558168   -0.106132    0.011100
      4          9           0       -1.178011    0.598138    0.945079
      5          9           0       -1.064680    0.232865   -1.173777
      6          9           0       -0.808537   -1.392501    0.217814
      7          8           0        1.366975    1.298274    0.396314
      8          1           0        2.669653   -0.324319   -0.348532
 ---------------------------------------------------------------------

 Normal termination of Gaussian 16 at Sun May 25 04:22:27 2025.
