 Gaussian 16, Revision C.01,
 Gaussian 16:  ES64L-G16RevC.01  3-Jul-2019

 ----------------------------------------------------------------------
 #P M062X/Def2TZVPP Symm(None) scf(xqc) pop(None) geom(AllCheck,NoKeepC
 onstants) guess(Read) irc(RCFC,forward,MaxPoints=100,StepSize=2)
 ----------------------------------------------------------------------

 Structure from the checkpoint file:  "1141903082400600000001_r12_insertion_R_4_3_1_IRC_F.chk"
 ------------------------------
 Gaussian input prepared by ASE
 ------------------------------
 Charge =  0 Multiplicity = 1

 SCF Done:  E(RM062X) =  -526.724708509     A.U. after   10 cycles
 SCF Done:  E(RM062X) =  -526.724767707     A.U. after   10 cycles
 SCF Done:  E(RM062X) =  -526.724868046     A.U. after   10 cycles
 SCF Done:  E(RM062X) =  -526.725010843     A.U. after   11 cycles
 SCF Done:  E(RM062X) =  -526.725197357     A.U. after   11 cycles
 SCF Done:  E(RM062X) =  -526.725428765     A.U. after   11 cycles
 SCF Done:  E(RM062X) =  -526.725706140     A.U. after   11 cycles
 SCF Done:  E(RM062X) =  -526.726030433     A.U. after   11 cycles
 SCF Done:  E(RM062X) =  -526.726402452     A.U. after   11 cycles
 SCF Done:  E(RM062X) =  -526.726822847     A.U. after   11 cycles
 SCF Done:  E(RM062X) =  -526.831549420     A.U. after   10 cycles
 SCF Done:  E(RM062X) =  -526.832303617     A.U. after   10 cycles
 SCF Done:  E(RM062X) =  -526.833034461     A.U. after   10 cycles
 SCF Done:  E(RM062X) =  -526.833742330     A.U. after   10 cycles
 SCF Done:  E(RM062X) =  -526.834427609     A.U. after   10 cycles
 SCF Done:  E(RM062X) =  -526.835090695     A.U. after   10 cycles
 SCF Done:  E(RM062X) =  -526.835732002     A.U. after   10 cycles
 SCF Done:  E(RM062X) =  -526.836351970     A.U. after   10 cycles
 SCF Done:  E(RM062X) =  -526.836951060     A.U. after   10 cycles
 SCF Done:  E(RM062X) =  -526.837529752     A.U. after   10 cycles

                          Input orientation:
 ---------------------------------------------------------------------
 Center     Atomic      Atomic             Coordinates (Angstroms)
 Number     Number       Type             X           Y           Z
 ---------------------------------------------------------------------
      1          6           0        0.962766   -0.252825   -0.151301
      2          8           0        1.417644   -1.270571    0.245097
      3          6           0       -0.548429    0.016873   -0.028447
      4          9           0       -0.504381    0.558456    1.203163
      5          9           0       -1.100896    0.912610   -0.853489
      6          9           0       -1.316235   -1.048078   -0.060183
      7          8           0        1.671847    0.844272   -0.415583
      8          1           0        1.107062    1.601204   -0.612452
 ---------------------------------------------------------------------

 Normal termination of Gaussian 16 at Sun May 25 04:09:27 2025.
