 Gaussian 16, Revision C.01,
 Gaussian 16:  ES64L-G16RevC.01  3-Jul-2019

 ------------------------------------------------------
 #P M062X/Def2TZVPP scf(xqc) pop(None) freq opt(CalcFC)
 ------------------------------------------------------

 ------------------------------
 Gaussian input prepared by ASE
 ------------------------------
 Symbolic Z-matrix:
 Charge =  0 Multiplicity = 2

 SCF Done:  E(UM062X) =  -75.7334745597     A.U. after   13 cycles
 SCF Done:  E(UM062X) =  -75.7334899974     A.U. after    8 cycles
 Optimization completed.
    -- Stationary point found.
 Normal termination of Gaussian 16 at Sun May 25 03:25:00 2025.

 ---------------------------------------------------------------------
 #P Geom=AllCheck Guess=TCheck SCRF=Check GenChk UM062X/def2TZVPP Freq
 ---------------------------------------------------------------------

 Structure from the checkpoint file:  "170170000000000000002_well.chk"
 ------------------------------
 Gaussian input prepared by ASE
 ------------------------------
 Charge =  0 Multiplicity = 2

                         Standard orientation:
 ---------------------------------------------------------------------
 Center     Atomic      Atomic             Coordinates (Angstroms)
 Number     Number       Type             X           Y           Z
 ---------------------------------------------------------------------
      1          8           0        0.000000   -0.000000    0.107903
      2          1           0       -0.000000    0.000000   -0.863220
 ---------------------------------------------------------------------

 SCF Done:  E(UM062X) =  -75.7334899974     A.U. after    1 cycles

 Isotropic polarizability for W=    0.000000        5.29 Bohr**3.
 End of Minotr F.D. properties file   721 does not exist.

                      1
                     SG
 Frequencies --   3780.7288
 Red. masses --      1.0671
 Frc consts  --      8.9867
 IR Inten    --     20.2033

 - Thermochemistry -
 -------------------
 Temperature   298.150 Kelvin.  Pressure   1.00000 Atm.
 Atom     1 has atomic number  8 and mass  15.99491

 Molecular mass:    17.00274 amu.
 Principal axes and moments of inertia in atomic units:
                           1         2         3
     Eigenvalues --    -0.00000   3.19297   3.19297
           X            0.00000   0.03091   0.99952
           Y            0.00000   0.99952  -0.03091
           Z            1.00000  -0.00000   0.00000
 This molecule is a prolate symmetric top.
 Rotational symmetry number  1.
 Rotational temperature (Kelvin)     27.12647
 Rotational constant (GHZ):         565.223965
 Zero-point vibrational energy      22613.8 (Joules/Mol)
                                    5.40482 (Kcal/Mol)
 Vibrational temperatures:   5439.63
          (Kelvin)

 Zero-point correction=                           0.008613 (Hartree/Particle)
 Thermal correction to Energy=                    0.010974
 Thermal correction to Enthalpy=                  0.011918
 Thermal correction to Gibbs Free Energy=        -0.008306
 Sum of electronic and zero-point Energies=            -75.724877
 Sum of electronic and thermal Energies=               -75.722516
 Sum of electronic and thermal Enthalpies=             -75.721572
 Sum of electronic and thermal Free Energies=          -75.741796

                     E (Thermal)             CV                S
                      KCal/Mol        Cal/Mol-Kelvin    Cal/Mol-Kelvin
 Total                    6.886              4.968             42.565
 Electronic               0.000              0.000              1.377
 Translational            0.889              2.981             34.437
 Rotational               0.592              1.987              6.751
 Vibrational              5.405              0.000              0.000

 Optimization completed.
    -- Stationary point found.
 Normal termination of Gaussian 16 at Sun May 25 03:25:02 2025.
