 Gaussian 16, Revision C.01,
 Gaussian 16:  ES64L-G16RevC.01  3-Jul-2019

 -----------------------------------------------------------------
 #P M062X/Def2TZVPP Symm(None) scf(xqc) pop(None) freq opt(CalcFC)
 -----------------------------------------------------------------

 ------------------------------
 Gaussian input prepared by ASE
 ------------------------------
 Symbolic Z-matrix:
 Charge =  0 Multiplicity = 2

 SCF Done:  E(UM062X) =  -189.102670153     A.U. after   18 cycles
 SCF Done:  E(UM062X) =  -189.103565610     A.U. after   16 cycles
 SCF Done:  E(UM062X) =  -189.103566918     A.U. after   11 cycles
 Optimization completed.
    -- Stationary point found.
 Normal termination of Gaussian 16 at Sun May 25 03:25:22 2025.

 ---------------------------------------------------------------------
 #P Geom=AllCheck Guess=TCheck SCRF=Check GenChk UM062X/def2TZVPP Freq
 ---------------------------------------------------------------------

 Structure from the checkpoint file:  "450730450170000000002_well.chk"
 ------------------------------
 Gaussian input prepared by ASE
 ------------------------------
 Charge =  0 Multiplicity = 2

                          Input orientation:
 ---------------------------------------------------------------------
 Center     Atomic      Atomic             Coordinates (Angstroms)
 Number     Number       Type             X           Y           Z
 ---------------------------------------------------------------------
      1          6           0        1.569130   -0.004570    0.000507
      2          8           0        2.172318   -1.013511    0.002742
      3          8           0        1.992250    1.245497   -0.001919
      4          1           0        2.965513    1.257665   -0.001659
 ---------------------------------------------------------------------

 SCF Done:  E(UM062X) =  -189.103566918     A.U. after    1 cycles

 Isotropic polarizability for W=    0.000000       19.49 Bohr**3.
 End of Minotr F.D. properties file   721 does not exist.

                      1                      2                      3
                      A                      A                      A
 Frequencies --    595.2544               614.7060              1120.8471
 Red. masses --      1.5192                 3.7480                 4.4778
 Frc consts  --      0.3171                 0.8344                 3.3145
 IR Inten    --    116.6268                38.0260               193.7252

                      4                      5                      6
                      A                      A                      A
 Frequencies --   1307.7088              1930.4896              3682.6999
 Red. masses --      1.6528                13.0249                 1.0630
 Frc consts  --      1.6653                28.5996                 8.4944
 IR Inten    --      0.7920               371.7185                44.9170

 - Thermochemistry -
 -------------------
 Temperature   298.150 Kelvin.  Pressure   1.00000 Atm.
 Atom     1 has atomic number  6 and mass  12.00000

 Molecular mass:    44.99765 amu.
 Principal axes and moments of inertia in atomic units:
                           1         2         3
     Eigenvalues --    12.60032 151.26506 163.86538
           X           -0.03941   0.99922  -0.00029
           Y            0.99922   0.03941   0.00204
           Z           -0.00205   0.00021   1.00000
 This molecule is an asymmetric top.
 Rotational symmetry number  1.
 Rotational temperatures (Kelvin)      6.87395     0.57260     0.52857
 Rotational constants (GHZ):         143.22981    11.93099    11.01356
 Zero-point vibrational energy      55337.5 (Joules/Mol)
                                   13.22598 (Kcal/Mol)
 Warning -- explicit consideration of   2 degrees of freedom as
           vibrations may cause significant error
 Vibrational temperatures:    856.44   884.42  1612.65  1881.50  2777.54
          (Kelvin)           5298.58

 Zero-point correction=                           0.021077 (Hartree/Particle)
 Thermal correction to Energy=                    0.024259
 Thermal correction to Enthalpy=                  0.025203
 Thermal correction to Gibbs Free Energy=        -0.003332
 Sum of electronic and zero-point Energies=           -189.082490
 Sum of electronic and thermal Energies=              -189.079308
 Sum of electronic and thermal Enthalpies=            -189.078364
 Sum of electronic and thermal Free Energies=         -189.106899

                     E (Thermal)             CV                S
                      KCal/Mol        Cal/Mol-Kelvin    Cal/Mol-Kelvin
 Total                   15.223              8.427             60.057
 Electronic               0.000              0.000              1.377
 Translational            0.889              2.981             37.338
 Rotational               0.889              2.981             20.374
 Vibrational             13.445              2.465              0.968
 Vibration     1          0.953              1.042              0.458
 Vibration     2          0.974              1.001              0.425

 Optimization completed.
    -- Stationary point found.
 Normal termination of Gaussian 16 at Sun May 25 03:25:34 2025.
