 Gaussian 16, Revision C.01,
 Gaussian 16:  ES64L-G16RevC.01  3-Jul-2019

 -----------------------------------------------------------------
 #P M062X/Def2TZVPP Symm(None) scf(xqc) pop(None) freq opt(CalcFC)
 -----------------------------------------------------------------

 ------------------------------
 Gaussian input prepared by ASE
 ------------------------------
 Symbolic Z-matrix:
 Charge =  0 Multiplicity = 1

 SCF Done:  E(RM062X) =  -237.723231913     A.U. after   12 cycles
 SCF Done:  E(RM062X) =  -237.723262668     A.U. after    8 cycles
 Optimization completed.
    -- Stationary point found.
 Normal termination of Gaussian 16 at Sun May 25 04:20:19 2025.

 ---------------------------------------------------------------------
 #P Geom=AllCheck Guess=TCheck SCRF=Check GenChk RM062X/def2TZVPP Freq
 ---------------------------------------------------------------------

 Structure from the checkpoint file:  "500620380000000000001_well.chk"
 ------------------------------
 Gaussian input prepared by ASE
 ------------------------------
 Charge =  0 Multiplicity = 1

                          Input orientation:
 ---------------------------------------------------------------------
 Center     Atomic      Atomic             Coordinates (Angstroms)
 Number     Number       Type             X           Y           Z
 ---------------------------------------------------------------------
      1          6           0       -1.266308    0.118500   -0.853923
      2          9           0       -2.387621   -0.171160   -0.277521
      3          9           0       -1.143834   -0.767715   -1.788314
 ---------------------------------------------------------------------

 SCF Done:  E(RM062X) =  -237.723262668     A.U. after    1 cycles

 Isotropic polarizability for W=    0.000000       14.27 Bohr**3.
 End of Minotr F.D. properties file   721 does not exist.

                      1                      2                      3
                      A                      A                      A
 Frequencies --    692.4383              1183.0878              1286.8243
 Red. masses --     17.7075                13.6927                13.8642
 Frc consts  --      5.0023                11.2921                13.5264
 IR Inten    --      4.4078               394.6815               129.3322

 - Thermochemistry -
 -------------------
 Temperature   298.150 Kelvin.  Pressure   1.00000 Atm.
 Atom     1 has atomic number  6 and mass  12.00000

 Molecular mass:    49.99681 amu.
 Principal axes and moments of inertia in atomic units:
                           1         2         3
     Eigenvalues --    20.42402 141.97753 162.40155
           X           -0.60797   0.63064   0.48236
           Y            0.29160   0.74243  -0.60314
           Z            0.73848   0.22603   0.63526
 This molecule is an asymmetric top.
 Rotational symmetry number  1.
 Rotational temperatures (Kelvin)      4.24079     0.61005     0.53333
 Rotational constants (GHZ):          88.36367    12.71146    11.11283
 Zero-point vibrational energy      18915.1 (Joules/Mol)
                                    4.52081 (Kcal/Mol)
 Vibrational temperatures:    996.26  1702.20  1851.45
          (Kelvin)

 Zero-point correction=                           0.007204 (Hartree/Particle)
 Thermal correction to Energy=                    0.010182
 Thermal correction to Enthalpy=                  0.011127
 Thermal correction to Gibbs Free Energy=        -0.016822
 Sum of electronic and zero-point Energies=           -237.716058
 Sum of electronic and thermal Energies=              -237.713080
 Sum of electronic and thermal Enthalpies=            -237.712136
 Sum of electronic and thermal Free Energies=         -237.740084

                     E (Thermal)             CV                S
                      KCal/Mol        Cal/Mol-Kelvin    Cal/Mol-Kelvin
 Total                    6.390              7.176             58.822
 Electronic               0.000              0.000              0.000
 Translational            0.889              2.981             37.652
 Rotational               0.889              2.981             20.782
 Vibrational              4.612              1.215              0.388

 Optimization completed.
    -- Stationary point found.
 Normal termination of Gaussian 16 at Sun May 25 04:20:24 2025.
