 Gaussian 16, Revision C.01,
 Gaussian 16:  ES64L-G16RevC.01  3-Jul-2019

 -----------------------------------------------------------------
 #P M062X/Def2TZVPP Symm(None) scf(xqc) pop(None) freq opt(CalcFC)
 -----------------------------------------------------------------

 ------------------------------
 Gaussian input prepared by ASE
 ------------------------------
 Symbolic Z-matrix:
 Charge =  0 Multiplicity = 1

 SCF Done:  E(RM062X) =  -289.037321024     A.U. after   13 cycles
 SCF Done:  E(RM062X) =  -289.037431237     A.U. after   11 cycles
 Optimization completed.
    -- Stationary point found.
 Normal termination of Gaussian 16 at Sun May 25 04:20:31 2025.

 ---------------------------------------------------------------------
 #P Geom=AllCheck Guess=TCheck SCRF=Check GenChk RM062X/def2TZVPP Freq
 ---------------------------------------------------------------------

 Structure from the checkpoint file:  "641041150370000000001_well.chk"
 ------------------------------
 Gaussian input prepared by ASE
 ------------------------------
 Charge =  0 Multiplicity = 1

                          Input orientation:
 ---------------------------------------------------------------------
 Center     Atomic      Atomic             Coordinates (Angstroms)
 Number     Number       Type             X           Y           Z
 ---------------------------------------------------------------------
      1          6           0        1.143798    0.131398    0.758690
      2          8           0        0.799140   -0.959577    1.014706
      3          9           0        0.777585    1.200235    1.482392
      4          8           0        1.922033    0.504385   -0.243213
      5          1           0        2.051913    1.459250   -0.230842
 ---------------------------------------------------------------------

 SCF Done:  E(RM062X) =  -289.037431237     A.U. after    1 cycles

 Isotropic polarizability for W=    0.000000       19.43 Bohr**3.
 End of Minotr F.D. properties file   721 does not exist.

                      1                      2                      3
                      A                      A                      A
 Frequencies --    499.8216               567.8512               628.6200
 Red. masses --      1.1037                 5.2270                14.8453
 Frc consts  --      0.1624                 0.9931                 3.4563
 IR Inten    --    132.2441                17.0747                 3.8310

                      4                      5                      6
                      A                      A                      A
 Frequencies --    795.9526               968.3271              1212.7993
 Red. masses --     12.3137                11.4820                 1.9257
 Frc consts  --      4.5963                 6.3432                 1.6688
 IR Inten    --     31.1724                88.8998                29.0559

                      7                      8                      9
                      A                      A                      A
 Frequencies --   1358.4568              2006.6430              3859.0876
 Red. masses --      2.7497                11.1432                 1.0659
 Frc consts  --      2.9897                26.4363                 9.3523
 IR Inten    --    508.7734               532.0058               138.3577

 - Thermochemistry -
 -------------------
 Temperature   298.150 Kelvin.  Pressure   1.00000 Atm.
 Atom     1 has atomic number  6 and mass  12.00000

 Molecular mass:    63.99606 amu.
 Principal axes and moments of inertia in atomic units:
                           1         2         3
     Eigenvalues --   151.17434 156.34950 307.52384
           X            0.19630  -0.55981   0.80503
           Y            0.97778   0.17339  -0.11785
           Z           -0.07361   0.81027   0.58141
 This molecule is an asymmetric top.
 Rotational symmetry number  1.
 Rotational temperatures (Kelvin)      0.57294     0.55398     0.28165
 Rotational constants (GHZ):          11.93815    11.54299     5.86862
 Zero-point vibrational energy      71163.2 (Joules/Mol)
                                   17.00841 (Kcal/Mol)
 Warning -- explicit consideration of   2 degrees of freedom as
           vibrations may cause significant error
 Vibrational temperatures:    719.13   817.01   904.44  1145.20  1393.21
          (Kelvin)           1744.95  1954.52  2887.11  5552.37

 Zero-point correction=                           0.027105 (Hartree/Particle)
 Thermal correction to Energy=                    0.030631
 Thermal correction to Enthalpy=                  0.031576
 Thermal correction to Gibbs Free Energy=         0.001244
 Sum of electronic and zero-point Energies=           -289.010327
 Sum of electronic and thermal Energies=              -289.006800
 Sum of electronic and thermal Enthalpies=            -289.005856
 Sum of electronic and thermal Free Energies=         -289.036187

                     E (Thermal)             CV                S
                      KCal/Mol        Cal/Mol-Kelvin    Cal/Mol-Kelvin
 Total                   19.221             10.685             63.837
 Electronic               0.000              0.000              0.000
 Translational            0.889              2.981             38.388
 Rotational               0.889              2.981             23.501
 Vibrational             17.444              4.724              1.949
 Vibration     1          0.855              1.250              0.659
 Vibration     2          0.924              1.101              0.508

 Optimization completed.
    -- Stationary point found.
 Normal termination of Gaussian 16 at Sun May 25 04:20:45 2025.
