 Gaussian 16, Revision C.01,
 Gaussian 16:  ES64L-G16RevC.01  3-Jul-2019

 -----------------------------------------------------------------
 #P M062X/Def2TZVPP Symm(None) scf(xqc) pop(None) freq opt(CalcFC)
 -----------------------------------------------------------------

 ------------------------------
 Gaussian input prepared by ASE
 ------------------------------
 Symbolic Z-matrix:
 Charge =  0 Multiplicity = 2

 SCF Done:  E(UM062X) =  -426.917350467     A.U. after   17 cycles
 SCF Done:  E(UM062X) =  -426.924104259     A.U. after   16 cycles
 SCF Done:  E(UM062X) =  -426.925079526     A.U. after   18 cycles
 SCF Done:  E(UM062X) =  -426.927173179     A.U. after   14 cycles
 SCF Done:  E(UM062X) =  -426.927468066     A.U. after   15 cycles
 SCF Done:  E(UM062X) =  -426.927679946     A.U. after   15 cycles
 SCF Done:  E(UM062X) =  -426.927810985     A.U. after   15 cycles
 SCF Done:  E(UM062X) =  -426.927852372     A.U. after   14 cycles
 SCF Done:  E(UM062X) =  -426.927890294     A.U. after   15 cycles
 SCF Done:  E(UM062X) =  -426.927897254     A.U. after   13 cycles
 SCF Done:  E(UM062X) =  -426.927897557     A.U. after   11 cycles
 Optimization completed.
    -- Stationary point found.
 Normal termination of Gaussian 16 at Sun May 25 03:28:42 2025.

 ---------------------------------------------------------------------
 #P Geom=AllCheck Guess=TCheck SCRF=Check GenChk UM062X/def2TZVPP Freq
 ---------------------------------------------------------------------

 Structure from the checkpoint file:  "951592011700400000002_well.chk"
 ------------------------------
 Gaussian input prepared by ASE
 ------------------------------
 Charge =  0 Multiplicity = 2

                          Input orientation:
 ---------------------------------------------------------------------
 Center     Atomic      Atomic             Coordinates (Angstroms)
 Number     Number       Type             X           Y           Z
 ---------------------------------------------------------------------
      1          6           0        1.550505   -0.029937   -0.016262
      2          8           0        2.225996   -0.952646    0.366915
      3          6           0        0.149548   -0.148156   -0.301581
      4          9           0       -0.598342    0.830990   -0.716474
      5          9           0       -0.482317   -1.271676   -0.164096
      6          8           0        1.996640    1.221968   -0.229512
      7          1           0        2.938463    1.222898   -0.017083
 ---------------------------------------------------------------------

 SCF Done:  E(UM062X) =  -426.927897557     A.U. after    1 cycles

 Isotropic polarizability for W=    0.000000       31.82 Bohr**3.
 End of Minotr F.D. properties file   721 does not exist.

                      1                      2                      3
                      A                      A                      A
 Frequencies --    101.9860               134.1354               230.3657
 Red. masses --     13.3735                13.9993                11.8982
 Frc consts  --      0.0820                 0.1484                 0.3720
 IR Inten    --      1.0734                 0.0394                 1.8690

                      4                      5                      6
                      A                      A                      A
 Frequencies --    415.7245               492.8760               537.5565
 Red. masses --     12.3712                 1.1495                12.0854
 Frc consts  --      1.2597                 0.1645                 2.0576
 IR Inten    --      3.3333                86.1113                 8.2742

                      7                      8                      9
                      A                      A                      A
 Frequencies --    606.1870               686.6826               805.9061
 Red. masses --      7.6768                 7.3035                 5.6915
 Frc consts  --      1.6620                 2.0291                 2.1780
 IR Inten    --     24.2885                50.5973                53.7820

                     10                     11                     12
                      A                      A                      A
 Frequencies --   1152.5104              1310.2481              1440.9102
 Red. masses --      3.4198                 2.0743                11.4963
 Frc consts  --      2.6764                 2.0981                14.0632
 IR Inten    --    379.5319                97.8545               240.1311

                     13                     14                     15
                      A                      A                      A
 Frequencies --   1586.1526              1793.1661              3835.6254
 Red. masses --     10.3521                10.4900                 1.0648
 Frc consts  --     15.3450                19.8732                 9.2296
 IR Inten    --     83.8853               272.2940               136.6719

 - Thermochemistry -
 -------------------
 Temperature   298.150 Kelvin.  Pressure   1.00000 Atm.
 Atom     1 has atomic number  6 and mass  12.00000

 Molecular mass:    94.99446 amu.
 Principal axes and moments of inertia in atomic units:
                           1         2         3
     Eigenvalues --   311.11187 526.29753 837.40929
           X            0.97076  -0.10950  -0.21363
           Y            0.16029   0.95813   0.23727
           Z            0.17871  -0.26458   0.94766
 This molecule is an asymmetric top.
 Rotational symmetry number  1.
 Rotational temperatures (Kelvin)      0.27840     0.16457     0.10343
 Rotational constants (GHZ):           5.80094     3.42913     2.15515
 Zero-point vibrational energy      90497.7 (Joules/Mol)
                                   21.62947 (Kcal/Mol)
 Warning -- explicit consideration of   7 degrees of freedom as
           vibrations may cause significant error
 Vibrational temperatures:    146.74   192.99   331.44   598.13   709.14
          (Kelvin)            773.42   872.17   987.98  1159.52  1658.21
                             1885.15  2073.15  2282.12  2579.97  5518.61

 Zero-point correction=                           0.034469 (Hartree/Particle)
 Thermal correction to Energy=                    0.040333
 Thermal correction to Enthalpy=                  0.041277
 Thermal correction to Gibbs Free Energy=         0.003856
 Sum of electronic and zero-point Energies=           -426.893429
 Sum of electronic and thermal Energies=              -426.887564
 Sum of electronic and thermal Enthalpies=            -426.886620
 Sum of electronic and thermal Free Energies=         -426.924042

                     E (Thermal)             CV                S
                      KCal/Mol        Cal/Mol-Kelvin    Cal/Mol-Kelvin
 Total                   25.309             18.561             78.760
 Electronic               0.000              0.000              1.377
 Translational            0.889              2.981             39.565
 Rotational               0.889              2.981             26.419
 Vibrational             23.532             12.599             11.398
 Vibration     1          0.604              1.948              3.416
 Vibration     2          0.613              1.919              2.886
 Vibration     3          0.652              1.795              1.876
 Vibration     4          0.779              1.436              0.907
 Vibration     5          0.849              1.266              0.676
 Vibration     6          0.893              1.167              0.571
 Vibration     7          0.965              1.019              0.439

 Optimization completed.
    -- Stationary point found.
 Normal termination of Gaussian 16 at Sun May 25 03:29:52 2025.
