 Gaussian 16, Revision C.01,
 Gaussian 16:  ES64L-G16RevC.01  3-Jul-2019

 -----------------------------------------------------------------
 #P M062X/Def2TZVPP Symm(None) scf(xqc) pop(None) freq opt(CalcFC)
 -----------------------------------------------------------------

 ------------------------------
 Gaussian input prepared by ASE
 ------------------------------
 Symbolic Z-matrix:
 Charge =  0 Multiplicity = 1

 SCF Done:  E(RM062X) =  -451.506874743     A.U. after   13 cycles
 SCF Done:  E(RM062X) =  -451.510887206     A.U. after   14 cycles
 SCF Done:  E(RM062X) =  -451.508941461     A.U. after   16 cycles
 SCF Done:  E(RM062X) =  -451.511301647     A.U. after   13 cycles
 SCF Done:  E(RM062X) =  -451.511354118     A.U. after   10 cycles
 SCF Done:  E(RM062X) =  -451.511482115     A.U. after   14 cycles
 SCF Done:  E(RM062X) =  -451.511562034     A.U. after   14 cycles
 SCF Done:  E(RM062X) =  -451.511575790     A.U. after   12 cycles
 SCF Done:  E(RM062X) =  -451.511586939     A.U. after   12 cycles
 SCF Done:  E(RM062X) =  -451.511589005     A.U. after   10 cycles
 SCF Done:  E(RM062X) =  -451.511591667     A.U. after   13 cycles
 SCF Done:  E(RM062X) =  -451.511591789     A.U. after    9 cycles
 SCF Done:  E(RM062X) =  -451.511591815     A.U. after    8 cycles
 Optimization completed.
    -- Stationary point found.
 Normal termination of Gaussian 16 at Sun May 25 03:27:19 2025.

 ---------------------------------------------------------------------
 #P Geom=AllCheck Guess=TCheck SCRF=Check GenChk RM062X/def2TZVPP Freq
 ---------------------------------------------------------------------

 Structure from the checkpoint file:  "981622481180600000001_well.chk"
 ------------------------------
 Gaussian input prepared by ASE
 ------------------------------
 Charge =  0 Multiplicity = 1

                          Input orientation:
 ---------------------------------------------------------------------
 Center     Atomic      Atomic             Coordinates (Angstroms)
 Number     Number       Type             X           Y           Z
 ---------------------------------------------------------------------
      1          6           0        1.496932    0.201505   -0.469688
      2          6           0        0.008077    0.076690   -0.082306
      3          9           0       -0.390346    0.804685    0.961851
      4          9           0       -0.725046    0.439831   -1.133995
      5          9           0       -0.241939   -1.202274    0.195373
      6          8           0        2.017272    1.031864    0.364634
      7          1           0        2.955817    1.143113    0.160336
 ---------------------------------------------------------------------

 SCF Done:  E(RM062X) =  -451.511591815     A.U. after    1 cycles

 Isotropic polarizability for W=    0.000000       30.00 Bohr**3.
 End of Minotr F.D. properties file   721 does not exist.

                      1                      2                      3
                      A                      A                      A
 Frequencies --     28.0643               287.7566               386.5885
 Red. masses --     11.7153                 9.6043                 8.8601
 Frc consts  --      0.0054                 0.4686                 0.7802
 IR Inten    --      2.4794                 2.9876                 0.1814

                      4                      5                      6
                      A                      A                      A
 Frequencies --    427.8602               539.7484               559.5060
 Red. masses --     13.3986                10.5451                13.4597
 Frc consts  --      1.4451                 1.8100                 2.4825
 IR Inten    --      3.1048                 0.7145                 5.3484

                      7                      8                      9
                      A                      A                      A
 Frequencies --    688.4223               837.9583               862.0033
 Red. masses --      8.3734                 8.8934                 1.2290
 Frc consts  --      2.3381                 3.6793                 0.5380
 IR Inten    --     25.1791                 6.8952                47.1415

                     10                     11                     12
                      A                      A                      A
 Frequencies --   1237.3629              1243.0093              1282.1129
 Red. masses --      3.9035                10.7695                 7.4588
 Frc consts  --      3.5213                 9.8038                 7.2239
 IR Inten    --    354.1352               354.8027               174.8620

                     13                     14                     15
                      A                      A                      A
 Frequencies --   1352.3597              1473.9774              3788.0552
 Red. masses --      1.9155                 8.1240                 1.0666
 Frc consts  --      2.0641                10.3993                 9.0177
 IR Inten    --     89.7932                60.6239               159.1558

 - Thermochemistry -
 -------------------
 Temperature   298.150 Kelvin.  Pressure   1.00000 Atm.
 Atom     1 has atomic number  6 and mass  12.00000

 Molecular mass:    97.99795 amu.
 Principal axes and moments of inertia in atomic units:
                           1         2         3
     Eigenvalues --   323.18409 593.79328 598.30387
           X            0.89893  -0.37593  -0.22495
           Y            0.40356   0.51073   0.75914
           Z            0.17049   0.77319  -0.61082
 This molecule is an asymmetric top.
 Rotational symmetry number  1.
 Rotational temperatures (Kelvin)      0.26800     0.14587     0.14477
 Rotational constants (GHZ):           5.58425     3.03934     3.01643
 Zero-point vibrational energy      89688.7 (Joules/Mol)
                                   21.43612 (Kcal/Mol)
 Warning -- explicit consideration of   6 degrees of freedom as
           vibrations may cause significant error
 Vibrational temperatures:     40.38   414.02   556.21   615.60   776.58
          (Kelvin)            805.00   990.49  1205.64  1240.23  1780.29
                             1788.41  1844.67  1945.74  2120.72  5450.17

 Zero-point correction=                           0.034161 (Hartree/Particle)
 Thermal correction to Energy=                    0.039599
 Thermal correction to Enthalpy=                  0.040543
 Thermal correction to Gibbs Free Energy=         0.003904
 Sum of electronic and zero-point Energies=           -451.477431
 Sum of electronic and thermal Energies=              -451.471993
 Sum of electronic and thermal Enthalpies=            -451.471048
 Sum of electronic and thermal Free Energies=         -451.507688

                     E (Thermal)             CV                S
                      KCal/Mol        Cal/Mol-Kelvin    Cal/Mol-Kelvin
 Total                   24.849             17.551             77.115
 Electronic               0.000              0.000              0.000
 Translational            0.889              2.981             39.658
 Rotational               0.889              2.981             26.243
 Vibrational             23.071             11.589             11.214
 Vibration     1          0.593              1.984              5.962
 Vibration     2          0.685              1.696              1.487
 Vibration     3          0.755              1.499              1.013
 Vibration     4          0.789              1.410              0.866
 Vibration     5          0.895              1.162              0.566
 Vibration     6          0.915              1.119              0.525

 Optimization completed.
    -- Stationary point found.
 Normal termination of Gaussian 16 at Sun May 25 03:28:04 2025.
