 Gaussian 16, Revision C.01,
 Gaussian 16:  ES64L-G16RevC.01  3-Jul-2019

 ----------------------------------------------------------------------
 #P wb97xd/6-311++G(d,p) Symm(None) scf(xqc) pop(None) freq opt(CalcFC,
  Tight)
 ----------------------------------------------------------------------

 ------------------------------
 Gaussian input prepared by ASE
 ------------------------------
 Symbolic Z-matrix:
 Charge =  0 Multiplicity = 1

 SCF Done:  E(RwB97XD) =  -475.525795000     A.U. after   11 cycles
 Optimization completed.
    -- Stationary point found.
 Normal termination of Gaussian 16 at Fri May 23 04:49:33 2025.

 ----------------------------------------------------------------------
 #P Geom=AllCheck Guess=TCheck SCRF=Check GenChk RwB97XD/6-311++G(d,p)
 Freq
 ----------------------------------------------------------------------

 Structure from the checkpoint file:  "/tmp/Gau-276927.chk"
 ------------------------------
 Gaussian input prepared by ASE
 ------------------------------
 Charge =  0 Multiplicity = 1

                          Input orientation:
 ---------------------------------------------------------------------
 Center     Atomic      Atomic             Coordinates (Angstroms)
 Number     Number       Type             X           Y           Z
 ---------------------------------------------------------------------
      1          6           0       -1.930263   -0.467418   -0.009525
      2          6           0       -1.695236    0.652313   -0.666143
      3          9           0       -1.603290    0.717305   -1.974270
      4          9           0       -1.529692    1.814140   -0.077427
      5          9           0       -2.022209   -0.532410    1.298603
      6          9           0       -2.095807   -1.629245   -0.598240
 ---------------------------------------------------------------------

 SCF Done:  E(RwB97XD) =  -475.525795000     A.U. after    1 cycles

 Isotropic polarizability for W=    0.000000       25.66 Bohr**3.
 End of Minotr F.D. properties file   721 does not exist.

                      1                      2                      3
                      A                      A                      A
 Frequencies --    202.1732               213.7030               404.2897
 Red. masses --     18.9982                18.1623                18.9458
 Frc consts  --      0.4575                 0.4887                 1.8245
 IR Inten    --      0.0013                 5.5393                 0.0000

                      4                      5                      6
                      A                      A                      A
 Frequencies --    428.7679               558.6375               561.9481
 Red. masses --     13.1639                17.3692                17.4420
 Frc consts  --      1.4259                 3.1937                 3.2452
 IR Inten    --      4.6544                 0.0000                 2.8570

                      7                      8                      9
                      A                      A                      A
 Frequencies --    579.8972               806.1049              1198.4162
 Red. masses --     12.3041                18.5996                14.0314
 Frc consts  --      2.4378                 7.1209                11.8732
 IR Inten    --      0.0000                 0.0000               437.0459

                     10                     11                     12
                      A                      A                      A
 Frequencies --   1350.2755              1350.7767              1952.1431
 Red. masses --     12.9705                13.5977                12.1864
 Frc consts  --     13.9332                14.6178                27.3621
 IR Inten    --      0.0008               494.7770                 0.0000

 - Thermochemistry -
 -------------------
 Temperature   298.150 Kelvin.  Pressure   1.00000 Atm.
 Atom     1 has atomic number  6 and mass  12.00000

 Molecular mass:    99.99361 amu.
 Principal axes and moments of inertia in atomic units:
                           1         2         3
     Eigenvalues --   326.09317 555.77600 881.86918
           X            0.17816   0.03358   0.98343
           Y            0.84881   0.50033  -0.17085
           Z           -0.49777   0.86519   0.06064
 This molecule is an asymmetric top.
 Rotational symmetry number  1.
 Rotational temperatures (Kelvin)      0.26561     0.15584     0.09822
 Rotational constants (GHZ):           5.53443     3.24725     2.04650
 Zero-point vibrational energy      57463.4 (Joules/Mol)
                                   13.73409 (Kcal/Mol)
 Warning -- explicit consideration of   7 degrees of freedom as
           vibrations may cause significant error
 Vibrational temperatures:    290.88   307.47   581.68   616.90   803.75
          (Kelvin)            808.52   834.34  1159.81  1724.25  1942.75
                             1943.47  2808.70

 Zero-point correction=                           0.021887 (Hartree/Particle)
 Thermal correction to Energy=                    0.027054
 Thermal correction to Enthalpy=                  0.027998
 Thermal correction to Gibbs Free Energy=        -0.007184
 Sum of electronic and zero-point Energies=           -475.503908
 Sum of electronic and thermal Energies=              -475.498741
 Sum of electronic and thermal Enthalpies=            -475.497797
 Sum of electronic and thermal Free Energies=         -475.532979

                     E (Thermal)             CV                S
                      KCal/Mol        Cal/Mol-Kelvin    Cal/Mol-Kelvin
 Total                   16.977             16.907             74.046
 Electronic               0.000              0.000              0.000
 Translational            0.889              2.981             39.718
 Rotational               0.889              2.981             26.572
 Vibrational             15.199             10.946              7.757
 Vibration     1          0.639              1.837              2.113
 Vibration     2          0.644              1.820              2.012
 Vibration     3          0.769              1.461              0.947
 Vibration     4          0.790              1.408              0.863
 Vibration     5          0.914              1.121              0.527
 Vibration     6          0.918              1.114              0.520
 Vibration     7          0.937              1.075              0.486

 Optimization completed.
    -- Stationary point found.
 Normal termination of Gaussian 16 at Fri May 23 04:49:53 2025.
