 Gaussian 16, Revision C.01,
 Gaussian 16:  ES64L-G16RevC.01  3-Jul-2019

 ----------------------------------------------------------------------
 #P wb97xd/6-311++G(d,p) Symm(None) scf(xqc) pop(None) freq opt(CalcFC,
  Tight)
 ----------------------------------------------------------------------

 ------------------------------
 Gaussian input prepared by ASE
 ------------------------------
 Symbolic Z-matrix:
 Charge =  0 Multiplicity = 1

 SCF Done:  E(RwB97XD) =  -724.235947640     A.U. after   14 cycles
 SCF Done:  E(RwB97XD) =  -724.239741488     A.U. after   14 cycles
 SCF Done:  E(RwB97XD) =  -724.203655220     A.U. after   14 cycles
 SCF Done:  E(RwB97XD) =  -724.239928647     A.U. after   11 cycles
 SCF Done:  E(RwB97XD) =  -724.239959271     A.U. after   10 cycles
 SCF Done:  E(RwB97XD) =  -724.239965476     A.U. after   10 cycles
 SCF Done:  E(RwB97XD) =  -724.239965688     A.U. after    8 cycles
 SCF Done:  E(RwB97XD) =  -724.239965692     A.U. after    6 cycles
 SCF Done:  E(RwB97XD) =  -724.239965692     A.U. after    5 cycles
 Optimization completed.
    -- Stationary point found.
 Normal termination of Gaussian 16 at Fri May 23 04:50:17 2025.

 ----------------------------------------------------------------------
 #P Geom=AllCheck Guess=TCheck SCRF=Check GenChk RwB97XD/6-311++G(d,p)
 Freq
 ----------------------------------------------------------------------

 Structure from the checkpoint file:  "/tmp/Gau-58431.chk"
 ------------------------------
 Gaussian input prepared by ASE
 ------------------------------
 Charge =  0 Multiplicity = 1

                          Input orientation:
 ---------------------------------------------------------------------
 Center     Atomic      Atomic             Coordinates (Angstroms)
 Number     Number       Type             X           Y           Z
 ---------------------------------------------------------------------
      1         16           0        1.548092    0.012217    0.015239
      2          8           0        2.049493   -0.529709    1.224650
      3          8           0        1.942541   -0.402500   -1.290363
      4          8           0        1.629727    1.591594    0.134168
      5          9           0       -0.040645   -0.142190    0.060442
      6          1           0        1.472818    2.006276   -0.724255
 ---------------------------------------------------------------------

 SCF Done:  E(RwB97XD) =  -724.239965692     A.U. after    1 cycles

 Isotropic polarizability for W=    0.000000       29.16 Bohr**3.
 End of Minotr F.D. properties file   721 does not exist.

                      1                      2                      3
                      A                      A                      A
 Frequencies --    292.6151               367.0345               414.0555
 Red. masses --      1.5668                12.7144                 2.7204
 Frc consts  --      0.0790                 1.0092                 0.2748
 IR Inten    --     66.5079                 2.9369                40.0173

                      4                      5                      6
                      A                      A                      A
 Frequencies --    503.6368               521.5680               535.1036
 Red. masses --      7.1800                18.1141                15.3716
 Frc consts  --      1.0730                 2.9033                 2.5933
 IR Inten    --     37.7281                22.4214                44.0540

                      7                      8                      9
                      A                      A                      A
 Frequencies --    779.0015               871.7027              1150.1674
 Red. masses --     19.9701                17.7534                 1.1940
 Frc consts  --      7.1401                 7.9482                 0.9306
 IR Inten    --    223.0933               251.3519                89.0345

                     10                     11                     12
                      A                      A                      A
 Frequencies --   1229.1498              1477.5823              3834.1825
 Red. masses --     16.7558                14.2015                 1.0663
 Frc consts  --     14.9151                18.2678                 9.2358
 IR Inten    --    188.0820               329.8859               164.3665

 - Thermochemistry -
 -------------------
 Temperature   298.150 Kelvin.  Pressure   1.00000 Atm.
 Atom     1 has atomic number 16 and mass  31.97207

 Molecular mass:    99.96304 amu.
 Principal axes and moments of inertia in atomic units:
                           1         2         3
     Eigenvalues --   364.23248 368.34645 373.73948
           X            0.90448   0.10170  -0.41422
           Y            0.41455  -0.43815   0.79761
           Z            0.10037   0.89313   0.43845
 This molecule is an asymmetric top.
 Rotational symmetry number  1.
 Rotational temperatures (Kelvin)      0.23780     0.23514     0.23175
 Rotational constants (GHZ):           4.95492     4.89958     4.82887
 Zero-point vibrational energy      71631.2 (Joules/Mol)
                                   17.12027 (Kcal/Mol)
 Warning -- explicit consideration of   6 degrees of freedom as
           vibrations may cause significant error
 Vibrational temperatures:    421.01   528.08   595.73   724.62   750.42
          (Kelvin)            769.89  1120.81  1254.19  1654.83  1768.47
                             2125.91  5516.53

 Zero-point correction=                           0.027283 (Hartree/Particle)
 Thermal correction to Energy=                    0.031999
 Thermal correction to Enthalpy=                  0.032943
 Thermal correction to Gibbs Free Energy=        -0.000750
 Sum of electronic and zero-point Energies=           -724.212683
 Sum of electronic and thermal Energies=              -724.207967
 Sum of electronic and thermal Enthalpies=            -724.207023
 Sum of electronic and thermal Free Energies=         -724.240716

                     E (Thermal)             CV                S
                      KCal/Mol        Cal/Mol-Kelvin    Cal/Mol-Kelvin
 Total                   20.079             15.979             70.913
 Electronic               0.000              0.000              0.000
 Translational            0.889              2.981             39.717
 Rotational               0.889              2.981             25.420
 Vibrational             18.302             10.017              5.776
 Vibration     1          0.688              1.687              1.459
 Vibration     2          0.740              1.540              1.092
 Vibration     3          0.778              1.440              0.912
 Vibration     4          0.859              1.242              0.649
 Vibration     5          0.877              1.202              0.606
 Vibration     6          0.890              1.172              0.576

 Optimization completed.
    -- Stationary point found.
 Normal termination of Gaussian 16 at Fri May 23 04:50:26 2025.
