 Gaussian 16, Revision C.01,
 Gaussian 16:  ES64L-G16RevC.01  3-Jul-2019

 ----------------------------------------------------------------------
 #P wb97xd/6-311++G(d,p) Symm(None) scf(xqc) pop(None) freq opt(CalcFC,
  Tight)
 ----------------------------------------------------------------------

 ------------------------------
 Gaussian input prepared by ASE
 ------------------------------
 Symbolic Z-matrix:
 Charge =  0 Multiplicity = 1

 SCF Done:  E(RwB97XD) =  -724.234502951     A.U. after   14 cycles
 SCF Done:  E(RwB97XD) =  -724.237179695     A.U. after   14 cycles
 SCF Done:  E(RwB97XD) =  -724.237872981     A.U. after   14 cycles
 SCF Done:  E(RwB97XD) =  -724.239424706     A.U. after   11 cycles
 SCF Done:  E(RwB97XD) =  -724.239728087     A.U. after   13 cycles
 SCF Done:  E(RwB97XD) =  -724.239805601     A.U. after   12 cycles
 SCF Done:  E(RwB97XD) =  -724.239965290     A.U. after   11 cycles
 SCF Done:  E(RwB97XD) =  -724.239965546     A.U. after    8 cycles
 SCF Done:  E(RwB97XD) =  -724.239965548     A.U. after    6 cycles
 Optimization completed.
    -- Stationary point found.
 Normal termination of Gaussian 16 at Fri May 23 04:50:22 2025.

 ----------------------------------------------------------------------
 #P Geom=AllCheck Guess=TCheck SCRF=Check GenChk RwB97XD/6-311++G(d,p)
 Freq
 ----------------------------------------------------------------------

 Structure from the checkpoint file:  "/tmp/Gau-27063.chk"
 ------------------------------
 Gaussian input prepared by ASE
 ------------------------------
 Charge =  0 Multiplicity = 1

                          Input orientation:
 ---------------------------------------------------------------------
 Center     Atomic      Atomic             Coordinates (Angstroms)
 Number     Number       Type             X           Y           Z
 ---------------------------------------------------------------------
      1         16           0        1.677334   -0.040813    0.056236
      2          8           0        1.849652   -0.693262    1.302158
      3          8           0        2.130487   -0.544101   -1.198080
      4          8           0        2.143199    1.463805    0.241193
      5          9           0        0.111786    0.220818   -0.118701
      6          1           0        2.219444    1.904546   -0.615188
 ---------------------------------------------------------------------

 SCF Done:  E(RwB97XD) =  -724.239965548     A.U. after    1 cycles

 Isotropic polarizability for W=    0.000000       29.16 Bohr**3.
 End of Minotr F.D. properties file   721 does not exist.

                      1                      2                      3
                      A                      A                      A
 Frequencies --    291.5826               367.0897               413.4850
 Red. masses --      1.5518                12.7262                 2.7628
 Frc consts  --      0.0777                 1.0104                 0.2783
 IR Inten    --     67.3788                 2.9683                39.2937

                      4                      5                      6
                      A                      A                      A
 Frequencies --    503.5745               521.6544               535.2565
 Red. masses --      7.1892                18.1306                15.3846
 Frc consts  --      1.0741                 2.9069                 2.5969
 IR Inten    --     37.8427                22.2256                43.8332

                      7                      8                      9
                      A                      A                      A
 Frequencies --    778.9083               872.3801              1149.6545
 Red. masses --     19.9720                17.7598                 1.1938
 Frc consts  --      7.1391                 7.9634                 0.9297
 IR Inten    --    223.1411               251.5410                88.8895

                     10                     11                     12
                      A                      A                      A
 Frequencies --   1230.4376              1478.4011              3834.4664
 Red. masses --     16.7759                14.2435                 1.0663
 Frc consts  --     14.9642                18.3422                 9.2372
 IR Inten    --    188.1854               329.9997               164.3533

 - Thermochemistry -
 -------------------
 Temperature   298.150 Kelvin.  Pressure   1.00000 Atm.
 Atom     1 has atomic number 16 and mass  31.97207

 Molecular mass:    99.96304 amu.
 Principal axes and moments of inertia in atomic units:
                           1         2         3
     Eigenvalues --   364.21104 368.34653 373.72011
           X            0.95710  -0.14209  -0.25252
           Y            0.16475  -0.45004   0.87768
           Z            0.23835   0.88163   0.40732
 This molecule is an asymmetric top.
 Rotational symmetry number  1.
 Rotational temperatures (Kelvin)      0.23781     0.23514     0.23176
 Rotational constants (GHZ):           4.95521     4.89957     4.82913
 Zero-point vibrational energy      71637.7 (Joules/Mol)
                                   17.12183 (Kcal/Mol)
 Warning -- explicit consideration of   6 degrees of freedom as
           vibrations may cause significant error
 Vibrational temperatures:    419.52   528.16   594.91   724.53   750.54
          (Kelvin)            770.11  1120.68  1255.16  1654.10  1770.33
                             2127.09  5516.94

 Zero-point correction=                           0.027285 (Hartree/Particle)
 Thermal correction to Energy=                    0.032003
 Thermal correction to Enthalpy=                  0.032947
 Thermal correction to Gibbs Free Energy=        -0.000750
 Sum of electronic and zero-point Energies=           -724.212680
 Sum of electronic and thermal Energies=              -724.207963
 Sum of electronic and thermal Enthalpies=            -724.207019
 Sum of electronic and thermal Free Energies=         -724.240715

                     E (Thermal)             CV                S
                      KCal/Mol        Cal/Mol-Kelvin    Cal/Mol-Kelvin
 Total                   20.082             15.980             70.920
 Electronic               0.000              0.000              0.000
 Translational            0.889              2.981             39.717
 Rotational               0.889              2.981             25.420
 Vibrational             18.304             10.018              5.783
 Vibration     1          0.687              1.689              1.465
 Vibration     2          0.740              1.540              1.092
 Vibration     3          0.777              1.441              0.914
 Vibration     4          0.859              1.242              0.649
 Vibration     5          0.877              1.202              0.606
 Vibration     6          0.890              1.172              0.576

 Optimization completed.
    -- Stationary point found.
 Normal termination of Gaussian 16 at Fri May 23 04:50:32 2025.
