 Gaussian 16, Revision C.01,
 Gaussian 16:  ES64L-G16RevC.01  3-Jul-2019

 ----------------------------------------------------------------------
 #P wb97xd/6-311++G(d,p) Symm(None) scf(xqc) pop(None) freq opt(CalcFC,
  Tight)
 ----------------------------------------------------------------------

 ------------------------------
 Gaussian input prepared by ASE
 ------------------------------
 Symbolic Z-matrix:
 Charge =  0 Multiplicity = 1

 SCF Done:  E(RwB97XD) =  -724.239967147     A.U. after   14 cycles
 SCF Done:  E(RwB97XD) =  -724.239967152     A.U. after    7 cycles
 Optimization completed.
    -- Stationary point found.
 Normal termination of Gaussian 16 at Fri May 23 04:50:40 2025.

 ----------------------------------------------------------------------
 #P Geom=AllCheck Guess=TCheck SCRF=Check GenChk RwB97XD/6-311++G(d,p)
 Freq
 ----------------------------------------------------------------------

 Structure from the checkpoint file:  "/tmp/Gau-282664.chk"
 ------------------------------
 Gaussian input prepared by ASE
 ------------------------------
 Charge =  0 Multiplicity = 1

                          Input orientation:
 ---------------------------------------------------------------------
 Center     Atomic      Atomic             Coordinates (Angstroms)
 Number     Number       Type             X           Y           Z
 ---------------------------------------------------------------------
      1         16           0        1.596767    0.000011   -0.000026
      2          8           0        1.986148   -0.552947    1.254848
      3          8           0        2.009140   -0.488203   -1.264653
      4          8           0        1.827082    1.569114   -0.000032
      5          9           0       -0.000065   -0.000187   -0.000102
      6          1           0        1.735624    1.926729    0.892840
 ---------------------------------------------------------------------

 SCF Done:  E(RwB97XD) =  -724.239967152     A.U. after    1 cycles

 Isotropic polarizability for W=    0.000000       29.16 Bohr**3.
 End of Minotr F.D. properties file   721 does not exist.

                      1                      2                      3
                      A                      A                      A
 Frequencies --    289.4887               367.1306               412.6096
 Red. masses --      1.5277                12.7738                 2.8398
 Frc consts  --      0.0754                 1.0144                 0.2849
 IR Inten    --     68.8296                 2.9542                38.0526

                      4                      5                      6
                      A                      A                      A
 Frequencies --    503.7804               521.7174               535.6254
 Red. masses --      7.2014                18.1296                15.3766
 Frc consts  --      1.0768                 2.9074                 2.5992
 IR Inten    --     37.7350                22.3480                43.6843

                      7                      8                      9
                      A                      A                      A
 Frequencies --    779.2934               872.3361              1150.4203
 Red. masses --     19.9868                17.7620                 1.1934
 Frc consts  --      7.1515                 7.9636                 0.9306
 IR Inten    --    222.8564               251.6115                88.7459

                     10                     11                     12
                      A                      A                      A
 Frequencies --   1231.6115              1479.5882              3833.6217
 Red. masses --     16.7803                14.2647                 1.0663
 Frc consts  --     14.9968                18.3990                 9.2332
 IR Inten    --    188.1823               330.2289               164.2552

 - Thermochemistry -
 -------------------
 Temperature   298.150 Kelvin.  Pressure   1.00000 Atm.
 Atom     1 has atomic number 16 and mass  31.97207

 Molecular mass:    99.96304 amu.
 Principal axes and moments of inertia in atomic units:
                           1         2         3
     Eigenvalues --   364.21718 368.33273 373.72503
           X            0.93737  -0.03373  -0.34669
           Y            0.33365   0.37284   0.86583
           Z           -0.10005   0.92728  -0.36074
 This molecule is an asymmetric top.
 Rotational symmetry number  1.
 Rotational temperatures (Kelvin)      0.23781     0.23515     0.23176
 Rotational constants (GHZ):           4.95512     4.89976     4.82906
 Zero-point vibrational energy      71639.7 (Joules/Mol)
                                   17.12230 (Kcal/Mol)
 Warning -- explicit consideration of   6 degrees of freedom as
           vibrations may cause significant error
 Vibrational temperatures:    416.51   528.22   593.65   724.83   750.63
          (Kelvin)            770.65  1121.23  1255.10  1655.20  1772.01
                             2128.80  5515.73

 Zero-point correction=                           0.027286 (Hartree/Particle)
 Thermal correction to Energy=                    0.032006
 Thermal correction to Enthalpy=                  0.032950
 Thermal correction to Gibbs Free Energy=        -0.000752
 Sum of electronic and zero-point Energies=           -724.212681
 Sum of electronic and thermal Energies=              -724.207961
 Sum of electronic and thermal Enthalpies=            -724.207017
 Sum of electronic and thermal Free Energies=         -724.240719

                     E (Thermal)             CV                S
                      KCal/Mol        Cal/Mol-Kelvin    Cal/Mol-Kelvin
 Total                   20.084             15.982             70.933
 Electronic               0.000              0.000              0.000
 Translational            0.889              2.981             39.717
 Rotational               0.889              2.981             25.420
 Vibrational             18.307             10.020              5.796
 Vibration     1          0.686              1.693              1.477
 Vibration     2          0.740              1.540              1.092
 Vibration     3          0.776              1.443              0.917
 Vibration     4          0.859              1.242              0.649
 Vibration     5          0.877              1.202              0.606
 Vibration     6          0.891              1.171              0.575

 Optimization completed.
    -- Stationary point found.
 Normal termination of Gaussian 16 at Fri May 23 04:50:53 2025.
