 Gaussian 16, Revision C.01,
 Gaussian 16:  ES64L-G16RevC.01  3-Jul-2019

 ----------------------------------------------------------------------
 #P wb97xd/6-311++G(d,p) Symm(None) scf(xqc) pop(None) freq opt(CalcFC,
  Tight)
 ----------------------------------------------------------------------

 ------------------------------
 Gaussian input prepared by ASE
 ------------------------------
 Symbolic Z-matrix:
 Charge =  0 Multiplicity = 1

 SCF Done:  E(RwB97XD) =  -762.205508140     A.U. after   16 cycles
 SCF Done:  E(RwB97XD) =  -762.207562623     A.U. after   16 cycles
 SCF Done:  E(RwB97XD) =  -762.164883495     A.U. after   17 cycles
 SCF Done:  E(RwB97XD) =  -762.207715175     A.U. after   15 cycles
 SCF Done:  E(RwB97XD) =  -762.207772267     A.U. after   14 cycles
 SCF Done:  E(RwB97XD) =  -762.207779025     A.U. after   12 cycles
 SCF Done:  E(RwB97XD) =  -762.207780137     A.U. after   12 cycles
 SCF Done:  E(RwB97XD) =  -762.207780261     A.U. after   10 cycles
 SCF Done:  E(RwB97XD) =  -762.207780262     A.U. after    7 cycles
 Optimization completed.
    -- Stationary point found.
 Normal termination of Gaussian 16 at Fri May 23 04:59:53 2025.

 ----------------------------------------------------------------------
 #P Geom=AllCheck Guess=TCheck SCRF=Check GenChk RwB97XD/6-311++G(d,p)
 Freq
 ----------------------------------------------------------------------

 Structure from the checkpoint file:  "/tmp/Gau-46641.chk"
 ------------------------------
 Gaussian input prepared by ASE
 ------------------------------
 Charge =  0 Multiplicity = 1

                          Input orientation:
 ---------------------------------------------------------------------
 Center     Atomic      Atomic             Coordinates (Angstroms)
 Number     Number       Type             X           Y           Z
 ---------------------------------------------------------------------
      1          6           0        1.922123   -0.653865   -1.641484
      2          9           0        2.534397    0.311021   -2.219397
      3         16           0        1.359229   -0.011485    0.032087
      4          8           0       -0.071643   -0.104125    0.024173
      5          8           0        2.198438   -0.697788    0.986942
      6          8           0        1.722501    1.564482    0.086481
      7          1           0        2.556612    1.694270    0.554583
 ---------------------------------------------------------------------

 SCF Done:  E(RwB97XD) =  -762.207780262     A.U. after    1 cycles

 Isotropic polarizability for W=    0.000000       43.17 Bohr**3.
 End of Minotr F.D. properties file   721 does not exist.

                      1                      2                      3
                      A                      A                      A
 Frequencies --     55.5563               197.2345               247.3168
 Red. masses --     13.2433                10.0681                 5.7473
 Frc consts  --      0.0241                 0.2308                 0.2071
 IR Inten    --      1.5575                 1.2547                10.9474

                      4                      5                      6
                      A                      A                      A
 Frequencies --    287.1053               337.1242               425.2314
 Red. masses --      1.5881                 9.6183                 3.8619
 Frc consts  --      0.0771                 0.6441                 0.4114
 IR Inten    --     63.9579                50.9625                48.3353

                      7                      8                      9
                      A                      A                      A
 Frequencies --    456.1161               573.3721               674.1618
 Red. masses --      9.5298                17.8013                13.3610
 Frc consts  --      1.1681                 3.4481                 3.5778
 IR Inten    --     25.3140                83.4349                43.5206

                     10                     11                     12
                      A                      A                      A
 Frequencies --    847.7119              1095.6633              1184.4006
 Red. masses --     18.8559                 1.1854                16.5531
 Frc consts  --      7.9835                 0.8384                13.6813
 IR Inten    --    172.5587                60.0962               178.7376

                     13                     14                     15
                      A                      A                      A
 Frequencies --   1275.1651              1402.5272              3845.2862
 Red. masses --     13.6621                14.8079                 1.0664
 Frc consts  --     13.0888                17.1620                 9.2903
 IR Inten    --    236.4841               267.3077               155.6876

 - Thermochemistry -
 -------------------
 Temperature   298.150 Kelvin.  Pressure   1.00000 Atm.
 Atom     1 has atomic number  6 and mass  12.00000

 Molecular mass:   111.96304 amu.
 Principal axes and moments of inertia in atomic units:
                           1         2         3
     Eigenvalues --   386.88993 701.03492 716.96834
           X           -0.44953   0.38300   0.80699
           Y           -0.05776   0.88906  -0.45413
           Z            0.89140   0.25076   0.37753
 This molecule is an asymmetric top.
 Rotational symmetry number  1.
 Rotational temperatures (Kelvin)      0.22387     0.12355     0.12081
 Rotational constants (GHZ):           4.66474     2.57440     2.51718
 Zero-point vibrational energy      77182.9 (Joules/Mol)
                                   18.44716 (Kcal/Mol)
 Warning -- explicit consideration of   8 degrees of freedom as
           vibrations may cause significant error
 Vibrational temperatures:     79.93   283.78   355.83   413.08   485.05
          (Kelvin)            611.81   656.25   824.95   969.97  1219.67
                             1576.42  1704.09  1834.68  2017.92  5532.51

 Zero-point correction=                           0.029397 (Hartree/Particle)
 Thermal correction to Energy=                    0.035892
 Thermal correction to Enthalpy=                  0.036837
 Thermal correction to Gibbs Free Energy=        -0.001588
 Sum of electronic and zero-point Energies=           -762.178383
 Sum of electronic and thermal Energies=              -762.171888
 Sum of electronic and thermal Enthalpies=            -762.170944
 Sum of electronic and thermal Free Energies=         -762.209368

                     E (Thermal)             CV                S
                      KCal/Mol        Cal/Mol-Kelvin    Cal/Mol-Kelvin
 Total                   22.523             20.918             80.871
 Electronic               0.000              0.000              0.000
 Translational            0.889              2.981             40.055
 Rotational               0.889              2.981             26.767
 Vibrational             20.745             14.956             14.049
 Vibration     1          0.596              1.975              4.609
 Vibration     2          0.637              1.844              2.159
 Vibration     3          0.661              1.767              1.750
 Vibration     4          0.684              1.698              1.491
 Vibration     5          0.718              1.601              1.226
 Vibration     6          0.787              1.415              0.874
 Vibration     7          0.814              1.347              0.777
 Vibration     8          0.930              1.089              0.498

 Optimization completed.
    -- Stationary point found.
 Normal termination of Gaussian 16 at Fri May 23 05:00:08 2025.
