 Gaussian 16, Revision C.01,
 Gaussian 16:  ES64L-G16RevC.01  3-Jul-2019

 ----------------------------------------------------------------------
 #P wb97xd/6-311++G(d,p) Symm(None) scf(xqc) pop(None) freq opt(CalcFC,
  Tight)
 ----------------------------------------------------------------------

 ------------------------------
 Gaussian input prepared by ASE
 ------------------------------
 Symbolic Z-matrix:
 Charge =  0 Multiplicity = 1

 SCF Done:  E(RwB97XD) =  -762.207776928     A.U. after   16 cycles
 SCF Done:  E(RwB97XD) =  -762.207776959     A.U. after   11 cycles
 Optimization completed.
    -- Stationary point found.
 Normal termination of Gaussian 16 at Fri May 23 04:59:29 2025.

 ----------------------------------------------------------------------
 #P Geom=AllCheck Guess=TCheck SCRF=Check GenChk RwB97XD/6-311++G(d,p)
 Freq
 ----------------------------------------------------------------------

 Structure from the checkpoint file:  "/tmp/Gau-293564.chk"
 ------------------------------
 Gaussian input prepared by ASE
 ------------------------------
 Charge =  0 Multiplicity = 1

                          Input orientation:
 ---------------------------------------------------------------------
 Center     Atomic      Atomic             Coordinates (Angstroms)
 Number     Number       Type             X           Y           Z
 ---------------------------------------------------------------------
      1          6           0        1.917383   -0.738806   -1.661799
      2          9           0        2.401681    0.215625   -2.364902
      3         16           0        1.444370    0.000137   -0.000250
      4          8           0       -0.000345    0.000316    0.000856
      5          8           0        2.237543   -0.691381    0.973785
      6          8           0        1.946313    1.538547   -0.000547
      7          1           0        1.214159    2.124020   -0.230475
 ---------------------------------------------------------------------

 SCF Done:  E(RwB97XD) =  -762.207776959     A.U. after    1 cycles

 Isotropic polarizability for W=    0.000000       43.17 Bohr**3.
 End of Minotr F.D. properties file   721 does not exist.

                      1                      2                      3
                      A                      A                      A
 Frequencies --     54.2889               197.3004               246.4084
 Red. masses --     13.0670                 9.8825                 5.1341
 Frc consts  --      0.0227                 0.2267                 0.1837
 IR Inten    --      1.6467                 1.2830                12.7051

                      4                      5                      6
                      A                      A                      A
 Frequencies --    284.0945               337.2192               424.9024
 Red. masses --      1.6197                10.1152                 3.9281
 Frc consts  --      0.0770                 0.6777                 0.4178
 IR Inten    --     64.9000                49.0128                47.2677

                      7                      8                      9
                      A                      A                      A
 Frequencies --    455.9309               573.2553               674.6719
 Red. masses --      9.6979                17.7710                13.3707
 Frc consts  --      1.1878                 3.4408                 3.5858
 IR Inten    --     25.7665                83.7269                42.6909

                     10                     11                     12
                      A                      A                      A
 Frequencies --    848.6211              1095.2717              1184.2545
 Red. masses --     18.8553                 1.1861                16.4377
 Frc consts  --      8.0004                 0.8383                13.5826
 IR Inten    --    173.0237                59.5814               179.4686

                     13                     14                     15
                      A                      A                      A
 Frequencies --   1274.7394              1402.7244              3844.6165
 Red. masses --     13.6592                14.8282                 1.0664
 Frc consts  --     13.0773                17.1903                 9.2871
 IR Inten    --    236.0139               267.2075               155.8478

 - Thermochemistry -
 -------------------
 Temperature   298.150 Kelvin.  Pressure   1.00000 Atm.
 Atom     1 has atomic number  6 and mass  12.00000

 Molecular mass:   111.96304 amu.
 Principal axes and moments of inertia in atomic units:
                           1         2         3
     Eigenvalues --   386.90788 701.06777 716.98307
           X           -0.35500   0.03406   0.93425
           Y           -0.01779   0.99891  -0.04317
           Z            0.93470   0.03195   0.35400
 This molecule is an asymmetric top.
 Rotational symmetry number  1.
 Rotational temperatures (Kelvin)      0.22386     0.12355     0.12080
 Rotational constants (GHZ):           4.66452     2.57427     2.51713
 Zero-point vibrational energy      77149.0 (Joules/Mol)
                                   18.43904 (Kcal/Mol)
 Warning -- explicit consideration of   8 degrees of freedom as
           vibrations may cause significant error
 Vibrational temperatures:     78.11   283.87   354.53   408.75   485.18
          (Kelvin)            611.34   655.98   824.79   970.70  1220.98
                             1575.85  1703.88  1834.07  2018.21  5531.55

 Zero-point correction=                           0.029384 (Hartree/Particle)
 Thermal correction to Energy=                    0.035887
 Thermal correction to Enthalpy=                  0.036831
 Thermal correction to Gibbs Free Energy=        -0.001626
 Sum of electronic and zero-point Energies=           -762.178392
 Sum of electronic and thermal Energies=              -762.171890
 Sum of electronic and thermal Enthalpies=            -762.170945
 Sum of electronic and thermal Free Energies=         -762.209403

                     E (Thermal)             CV                S
                      KCal/Mol        Cal/Mol-Kelvin    Cal/Mol-Kelvin
 Total                   22.520             20.925             80.941
 Electronic               0.000              0.000              0.000
 Translational            0.889              2.981             40.055
 Rotational               0.889              2.981             26.767
 Vibrational             20.742             14.963             14.119
 Vibration     1          0.596              1.976              4.655
 Vibration     2          0.637              1.844              2.158
 Vibration     3          0.661              1.769              1.756
 Vibration     4          0.683              1.703              1.509
 Vibration     5          0.718              1.601              1.225
 Vibration     6          0.787              1.416              0.875
 Vibration     7          0.814              1.348              0.778
 Vibration     8          0.930              1.089              0.498

 Optimization completed.
    -- Stationary point found.
 Normal termination of Gaussian 16 at Fri May 23 04:59:46 2025.
