 Gaussian 16, Revision C.01,
 Gaussian 16:  ES64L-G16RevC.01  3-Jul-2019

 ----------------------------------------------------------------------
 #P wb97xd/6-311++G(d,p) Symm(None) scf(xqc) pop(None) freq opt(CalcFC,
  Tight)
 ----------------------------------------------------------------------

 ------------------------------
 Gaussian input prepared by ASE
 ------------------------------
 Symbolic Z-matrix:
 Charge =  0 Multiplicity = 1

 SCF Done:  E(RwB97XD) =  -762.199148635     A.U. after   15 cycles
 SCF Done:  E(RwB97XD) =  -762.203601207     A.U. after   15 cycles
 SCF Done:  E(RwB97XD) =  -762.205565695     A.U. after   16 cycles
 SCF Done:  E(RwB97XD) =  -762.206217821     A.U. after   14 cycles
 SCF Done:  E(RwB97XD) =  -762.206607414     A.U. after   13 cycles
 SCF Done:  E(RwB97XD) =  -762.207284977     A.U. after   14 cycles
 SCF Done:  E(RwB97XD) =  -762.207558109     A.U. after   14 cycles
 SCF Done:  E(RwB97XD) =  -762.207723177     A.U. after   14 cycles
 SCF Done:  E(RwB97XD) =  -762.207770246     A.U. after   14 cycles
 SCF Done:  E(RwB97XD) =  -762.207776350     A.U. after   13 cycles
 SCF Done:  E(RwB97XD) =  -762.207776518     A.U. after   11 cycles
 SCF Done:  E(RwB97XD) =  -762.207776524     A.U. after   10 cycles
 SCF Done:  E(RwB97XD) =  -762.207776524     A.U. after    8 cycles
 Optimization completed.
    -- Stationary point found.
 Normal termination of Gaussian 16 at Fri May 23 05:00:13 2025.

 ----------------------------------------------------------------------
 #P Geom=AllCheck Guess=TCheck SCRF=Check GenChk RwB97XD/6-311++G(d,p)
 Freq
 ----------------------------------------------------------------------

 Structure from the checkpoint file:  "/tmp/Gau-241013.chk"
 ------------------------------
 Gaussian input prepared by ASE
 ------------------------------
 Charge =  0 Multiplicity = 1

                          Input orientation:
 ---------------------------------------------------------------------
 Center     Atomic      Atomic             Coordinates (Angstroms)
 Number     Number       Type             X           Y           Z
 ---------------------------------------------------------------------
      1          6           0        1.796595   -0.857360   -1.716524
      2          9           0        2.358440   -0.009444   -2.494461
      3         16           0        1.449898    0.038156   -0.101463
      4          8           0        0.026387    0.001469    0.067005
      5          8           0        2.380530   -0.537545    0.841747
      6          8           0        1.852254    1.590326   -0.319376
      7          1           0        2.738470    1.752654    0.027001
 ---------------------------------------------------------------------

 SCF Done:  E(RwB97XD) =  -762.207776524     A.U. after    1 cycles

 Isotropic polarizability for W=    0.000000       43.16 Bohr**3.
 End of Minotr F.D. properties file   721 does not exist.

                      1                      2                      3
                      A                      A                      A
 Frequencies --     51.1191               197.1790               246.8828
 Red. masses --     13.3095                 9.9682                 5.8010
 Frc consts  --      0.0205                 0.2283                 0.2083
 IR Inten    --      1.5240                 1.2860                10.9211

                      4                      5                      6
                      A                      A                      A
 Frequencies --    287.5404               337.2003               425.1400
 Red. masses --      1.5845                 9.5953                 3.8692
 Frc consts  --      0.0772                 0.6428                 0.4120
 IR Inten    --     64.1467                50.9868                47.9169

                      7                      8                      9
                      A                      A                      A
 Frequencies --    455.9189               573.0620               674.4322
 Red. masses --      9.5672                17.8068                13.3522
 Frc consts  --      1.1717                 3.4454                 3.5783
 IR Inten    --     25.5874                83.3859                43.5037

                     10                     11                     12
                      A                      A                      A
 Frequencies --    848.4553              1096.0255              1182.1095
 Red. masses --     18.8544                 1.1870                16.3037
 Frc consts  --      7.9969                 0.8401                13.4230
 IR Inten    --    172.8934                59.4182               179.1078

                     13                     14                     15
                      A                      A                      A
 Frequencies --   1274.8578              1400.4072              3846.0904
 Red. masses --     13.6609                14.7288                 1.0664
 Frc consts  --     13.0814                17.0187                 9.2942
 IR Inten    --    236.8588               267.1328               155.6832

 - Thermochemistry -
 -------------------
 Temperature   298.150 Kelvin.  Pressure   1.00000 Atm.
 Atom     1 has atomic number  6 and mass  12.00000

 Molecular mass:   111.96304 amu.
 Principal axes and moments of inertia in atomic units:
                           1         2         3
     Eigenvalues --   386.88375 701.04830 716.98701
           X           -0.34253   0.43065   0.83499
           Y            0.08734   0.89950  -0.42809
           Z            0.93544   0.07371   0.34572
 This molecule is an asymmetric top.
 Rotational symmetry number  1.
 Rotational temperatures (Kelvin)      0.22388     0.12355     0.12080
 Rotational constants (GHZ):           4.66482     2.57435     2.51712
 Zero-point vibrational energy      77137.7 (Joules/Mol)
                                   18.43636 (Kcal/Mol)
 Warning -- explicit consideration of   8 degrees of freedom as
           vibrations may cause significant error
 Vibrational temperatures:     73.55   283.70   355.21   413.71   485.16
          (Kelvin)            611.68   655.97   824.51   970.36  1220.74
                             1576.94  1700.79  1834.24  2014.87  5533.67

 Zero-point correction=                           0.029380 (Hartree/Particle)
 Thermal correction to Energy=                    0.035885
 Thermal correction to Enthalpy=                  0.036829
 Thermal correction to Gibbs Free Energy=        -0.001674
 Sum of electronic and zero-point Energies=           -762.178396
 Sum of electronic and thermal Energies=              -762.171892
 Sum of electronic and thermal Enthalpies=            -762.170947
 Sum of electronic and thermal Free Energies=         -762.209451

                     E (Thermal)             CV                S
                      KCal/Mol        Cal/Mol-Kelvin    Cal/Mol-Kelvin
 Total                   22.518             20.921             81.037
 Electronic               0.000              0.000              0.000
 Translational            0.889              2.981             40.055
 Rotational               0.889              2.981             26.767
 Vibrational             20.741             14.960             14.216
 Vibration     1          0.595              1.977              4.774
 Vibration     2          0.637              1.844              2.159
 Vibration     3          0.661              1.768              1.753
 Vibration     4          0.685              1.697              1.488
 Vibration     5          0.718              1.601              1.225
 Vibration     6          0.787              1.416              0.875
 Vibration     7          0.814              1.348              0.778
 Vibration     8          0.929              1.090              0.498

 Optimization completed.
    -- Stationary point found.
 Normal termination of Gaussian 16 at Fri May 23 05:00:28 2025.
