 Gaussian 16, Revision C.01,
 Gaussian 16:  ES64L-G16RevC.01  3-Jul-2019

 ----------------------------------------------------------------------
 #P wb97xd/6-311++G(d,p) Symm(None) scf(xqc) pop(None) freq opt(CalcFC,
  Tight)
 ----------------------------------------------------------------------

 ------------------------------
 Gaussian input prepared by ASE
 ------------------------------
 Symbolic Z-matrix:
 Charge =  0 Multiplicity = 2

 SCF Done:  E(UwB97XD) =  -862.102636168     A.U. after   17 cycles
 SCF Done:  E(UwB97XD) =  -862.108582778     A.U. after   15 cycles
 SCF Done:  E(UwB97XD) =  -862.109767371     A.U. after   13 cycles
 SCF Done:  E(UwB97XD) =  -862.110197008     A.U. after   13 cycles
 SCF Done:  E(UwB97XD) =  -862.110544869     A.U. after   14 cycles
 SCF Done:  E(UwB97XD) =  -862.110671324     A.U. after   13 cycles
 SCF Done:  E(UwB97XD) =  -862.110694532     A.U. after   11 cycles
 SCF Done:  E(UwB97XD) =  -862.110702846     A.U. after   11 cycles
 SCF Done:  E(UwB97XD) =  -862.110704194     A.U. after   10 cycles
 SCF Done:  E(UwB97XD) =  -862.110704654     A.U. after   10 cycles
 SCF Done:  E(UwB97XD) =  -862.110704657     A.U. after    7 cycles
 SCF Done:  E(UwB97XD) =  -862.110704657     A.U. after    5 cycles
 Optimization completed.
    -- Stationary point found.
 Normal termination of Gaussian 16 at Fri May 23 02:13:02 2025.

 ----------------------------------------------------------------------
 #P Geom=AllCheck Guess=TCheck SCRF=Check GenChk UwB97XD/6-311++G(d,p)
 Freq
 ----------------------------------------------------------------------

 Structure from the checkpoint file:  "/tmp/Gau-89210.chk"
 ------------------------------
 Gaussian input prepared by ASE
 ------------------------------
 Charge =  0 Multiplicity = 2

                          Input orientation:
 ---------------------------------------------------------------------
 Center     Atomic      Atomic             Coordinates (Angstroms)
 Number     Number       Type             X           Y           Z
 ---------------------------------------------------------------------
      1          6           0        2.101932   -0.614191    1.681460
      2          9           0        1.950954   -1.907813    1.815987
      3          9           0        1.636147    0.042721    2.721442
      4         16           0        1.503269    0.022829    0.081053
      5          8           0        2.219193   -0.684294   -0.931366
      6          8           0        0.066557    0.132438    0.104351
      7          8           0        2.118515    1.501217    0.177941
      8          1           0        1.430386    2.126667    0.438423
 ---------------------------------------------------------------------

 SCF Done:  E(UwB97XD) =  -862.110704657     A.U. after    1 cycles

 Isotropic polarizability for W=    0.000000       42.08 Bohr**3.
 End of Minotr F.D. properties file   721 does not exist.

                      1                      2                      3
                      A                      A                      A
 Frequencies --     56.5481               180.5462               191.6016
 Red. masses --     13.7284                 5.4556                16.9657
 Frc consts  --      0.0259                 0.1048                 0.3670
 IR Inten    --      1.2768                12.8860                 3.7934

                      4                      5                      6
                      A                      A                      A
 Frequencies --    277.5200               321.6616               364.1298
 Red. masses --      1.8445                 3.9059                12.5529
 Frc consts  --      0.0837                 0.2381                 0.9806
 IR Inten    --     72.7355                17.2873                 5.2294

                      7                      8                      9
                      A                      A                      A
 Frequencies --    443.7219               500.6905               569.3527
 Red. masses --      4.6066                11.7562                17.6127
 Frc consts  --      0.5344                 1.7364                 3.3639
 IR Inten    --     22.7577                31.6358                77.9991

                     10                     11                     12
                      A                      A                      A
 Frequencies --    605.1685               699.8151               838.8632
 Red. masses --     14.5877                15.2897                18.1633
 Frc consts  --      3.1477                 4.4118                 7.5306
 IR Inten    --     34.6814                11.7548               248.1903

                     13                     14                     15
                      A                      A                      A
 Frequencies --   1124.1328              1176.9795              1260.2211
 Red. masses --      1.2361                11.0965                13.9744
 Frc consts  --      0.9204                 9.0568                13.0760
 IR Inten    --     63.0263               227.8034                97.2879

                     16                     17                     18
                      A                      A                      A
 Frequencies --   1286.1668              1427.1398              3840.1946
 Red. masses --     13.7389                13.7651                 1.0664
 Frc consts  --     13.3905                16.5182                 9.2655
 IR Inten    --    243.6954               290.9887               164.5935

 - Thermochemistry -
 -------------------
 Temperature   298.150 Kelvin.  Pressure   1.00000 Atm.
 Atom     1 has atomic number  6 and mass  12.00000

 Molecular mass:   130.96145 amu.
 Principal axes and moments of inertia in atomic units:
                           1         2         3
     Eigenvalues --   528.83075 896.859751062.88570
           X            0.10666  -0.15739   0.98176
           Y           -0.45991   0.86760   0.18906
           Z            0.88153   0.47169  -0.02015
 This molecule is an asymmetric top.
 Rotational symmetry number  1.
 Warning -- assumption of classical behavior for rotation
           may cause significant error
 Rotational temperatures (Kelvin)      0.16378     0.09657     0.08149
 Rotational constants (GHZ):           3.41270     2.01229     1.69796
 Zero-point vibrational energy      90703.6 (Joules/Mol)
                                   21.67868 (Kcal/Mol)
 Warning -- explicit consideration of  10 degrees of freedom as
           vibrations may cause significant error
 Vibrational temperatures:     81.36   259.77   275.67   399.29   462.80
          (Kelvin)            523.90   638.42   720.38   819.17   870.70
                             1006.88  1206.94  1617.38  1693.41  1813.18
                             1850.51  2053.34  5525.18

 Zero-point correction=                           0.034547 (Hartree/Particle)
 Thermal correction to Energy=                    0.041636
 Thermal correction to Enthalpy=                  0.042581
 Thermal correction to Gibbs Free Energy=         0.001834
 Sum of electronic and zero-point Energies=           -862.076157
 Sum of electronic and thermal Energies=              -862.069068
 Sum of electronic and thermal Enthalpies=            -862.068124
 Sum of electronic and thermal Free Energies=         -862.108870

                     E (Thermal)             CV                S
                      KCal/Mol        Cal/Mol-Kelvin    Cal/Mol-Kelvin
 Total                   26.127             23.608             85.758
 Electronic               0.000              0.000              1.377
 Translational            0.889              2.981             40.522
 Rotational               0.889              2.981             27.713
 Vibrational             24.350             17.646             16.145
 Vibration     1          0.596              1.975              4.574
 Vibration     2          0.629              1.866              2.323
 Vibration     3          0.634              1.851              2.212
 Vibration     4          0.678              1.715              1.549
 Vibration     5          0.707              1.632              1.302
 Vibration     6          0.738              1.546              1.104
 Vibration     7          0.803              1.375              0.815
 Vibration     8          0.856              1.248              0.656
 Vibration     9          0.925              1.098              0.505
 Vibration    10          0.964              1.021              0.441

 Optimization completed.
    -- Stationary point found.
 Normal termination of Gaussian 16 at Fri May 23 02:13:35 2025.
