 Gaussian 16, Revision C.01,
 Gaussian 16:  ES64L-G16RevC.01  3-Jul-2019

 ----------------------------------------------------------------------
 #P wb97xd/6-311++G(d,p) Symm(None) scf(xqc) pop(None) freq opt(CalcFC,
  Tight)
 ----------------------------------------------------------------------

 ------------------------------
 Gaussian input prepared by ASE
 ------------------------------
 Symbolic Z-matrix:
 Charge =  0 Multiplicity = 2

 SCF Done:  E(UwB97XD) =  -862.107738122     A.U. after   17 cycles
 SCF Done:  E(UwB97XD) =  -862.110382852     A.U. after   16 cycles
 SCF Done:  E(UwB97XD) =  -862.106835649     A.U. after   15 cycles
 SCF Done:  E(UwB97XD) =  -862.110576247     A.U. after   13 cycles
 SCF Done:  E(UwB97XD) =  -862.110686803     A.U. after   13 cycles
 SCF Done:  E(UwB97XD) =  -862.110706598     A.U. after   12 cycles
 SCF Done:  E(UwB97XD) =  -862.110707744     A.U. after   10 cycles
 SCF Done:  E(UwB97XD) =  -862.110707905     A.U. after    9 cycles
 SCF Done:  E(UwB97XD) =  -862.110707909     A.U. after    7 cycles
 SCF Done:  E(UwB97XD) =  -862.110707909     A.U. after    5 cycles
 Optimization completed.
    -- Stationary point found.
 Normal termination of Gaussian 16 at Fri May 23 02:12:28 2025.

 ----------------------------------------------------------------------
 #P Geom=AllCheck Guess=TCheck SCRF=Check GenChk UwB97XD/6-311++G(d,p)
 Freq
 ----------------------------------------------------------------------

 Structure from the checkpoint file:  "/tmp/Gau-89212.chk"
 ------------------------------
 Gaussian input prepared by ASE
 ------------------------------
 Charge =  0 Multiplicity = 2

                          Input orientation:
 ---------------------------------------------------------------------
 Center     Atomic      Atomic             Coordinates (Angstroms)
 Number     Number       Type             X           Y           Z
 ---------------------------------------------------------------------
      1          6           0        2.053146   -0.423819    1.594191
      2          9           0        1.998766   -1.696083    1.898756
      3          9           0        1.506521    0.325496    2.526832
      4         16           0        1.455816   -0.055331   -0.088901
      5          8           0        2.256294   -0.828605   -0.982772
      6          8           0        0.014864   -0.062396   -0.109383
      7          8           0        1.949030    1.468491   -0.178990
      8          1           0        1.206029    2.063981   -0.018053
 ---------------------------------------------------------------------

 SCF Done:  E(UwB97XD) =  -862.110707909     A.U. after    1 cycles

 Isotropic polarizability for W=    0.000000       42.08 Bohr**3.
 End of Minotr F.D. properties file   721 does not exist.

                      1                      2                      3
                      A                      A                      A
 Frequencies --     57.2287               181.7151               191.5447
 Red. masses --     13.7622                 5.5598                16.9218
 Frc consts  --      0.0266                 0.1082                 0.3658
 IR Inten    --      1.2638                12.4812                 3.7702

                      4                      5                      6
                      A                      A                      A
 Frequencies --    279.1911               322.1969               364.3160
 Red. masses --      1.8714                 3.7546                12.5709
 Frc consts  --      0.0859                 0.2296                 0.9830
 IR Inten    --     71.7468                18.5268                 5.2231

                      7                      8                      9
                      A                      A                      A
 Frequencies --    444.0308               500.8802               569.6694
 Red. masses --      4.5878                11.7666                17.6022
 Frc consts  --      0.5329                 1.7393                 3.3656
 IR Inten    --     22.8370                31.4843                77.4360

                     10                     11                     12
                      A                      A                      A
 Frequencies --    605.2209               699.9592               838.8733
 Red. masses --     14.5866                15.2988                18.1751
 Frc consts  --      3.1480                 4.4162                 7.5356
 IR Inten    --     34.9028                11.7919               248.4091

                     13                     14                     15
                      A                      A                      A
 Frequencies --   1124.8885              1177.9569              1260.3867
 Red. masses --      1.2372                10.9417                13.9670
 Frc consts  --      0.9224                 8.9453                13.0726
 IR Inten    --     63.0631               228.4326                97.5027

                     16                     17                     18
                      A                      A                      A
 Frequencies --   1286.2283              1428.9275              3841.2600
 Red. masses --     13.7511                13.8162                 1.0664
 Frc consts  --     13.4037                16.6211                 9.2706
 IR Inten    --    243.2552               290.6789               164.5981

 - Thermochemistry -
 -------------------
 Temperature   298.150 Kelvin.  Pressure   1.00000 Atm.
 Atom     1 has atomic number  6 and mass  12.00000

 Molecular mass:   130.96145 amu.
 Principal axes and moments of inertia in atomic units:
                           1         2         3
     Eigenvalues --   528.83764 896.851901062.86147
           X            0.11521  -0.23844   0.96430
           Y           -0.32869   0.90693   0.26353
           Z            0.93738   0.34732  -0.02611
 This molecule is an asymmetric top.
 Rotational symmetry number  1.
 Warning -- assumption of classical behavior for rotation
           may cause significant error
 Rotational temperatures (Kelvin)      0.16378     0.09658     0.08149
 Rotational constants (GHZ):           3.41266     2.01231     1.69800
 Zero-point vibrational energy      90763.5 (Joules/Mol)
                                   21.69300 (Kcal/Mol)
 Warning -- explicit consideration of  10 degrees of freedom as
           vibrations may cause significant error
 Vibrational temperatures:     82.34   261.45   275.59   401.69   463.57
          (Kelvin)            524.17   638.86   720.65   819.63   870.78
                             1007.09  1206.95  1618.46  1694.82  1813.42
                             1850.60  2055.91  5526.72

 Zero-point correction=                           0.034570 (Hartree/Particle)
 Thermal correction to Energy=                    0.041652
 Thermal correction to Enthalpy=                  0.042596
 Thermal correction to Gibbs Free Energy=         0.001875
 Sum of electronic and zero-point Energies=           -862.076138
 Sum of electronic and thermal Energies=              -862.069056
 Sum of electronic and thermal Enthalpies=            -862.068112
 Sum of electronic and thermal Free Energies=         -862.108833

                     E (Thermal)             CV                S
                      KCal/Mol        Cal/Mol-Kelvin    Cal/Mol-Kelvin
 Total                   26.137             23.597             85.706
 Electronic               0.000              0.000              1.377
 Translational            0.889              2.981             40.522
 Rotational               0.889              2.981             27.713
 Vibrational             24.360             17.636             16.094
 Vibration     1          0.596              1.975              4.551
 Vibration     2          0.630              1.865              2.311
 Vibration     3          0.634              1.852              2.213
 Vibration     4          0.680              1.712              1.539
 Vibration     5          0.707              1.631              1.299
 Vibration     6          0.738              1.546              1.104
 Vibration     7          0.804              1.374              0.814
 Vibration     8          0.856              1.248              0.656
 Vibration     9          0.926              1.097              0.505
 Vibration    10          0.964              1.021              0.441

 Optimization completed.
    -- Stationary point found.
 Normal termination of Gaussian 16 at Fri May 23 02:13:03 2025.
