 Gaussian 16, Revision C.01,
 Gaussian 16:  ES64L-G16RevC.01  3-Jul-2019

 ----------------------------------------------------------------------
 #P wb97xd/6-311++G(d,p) Symm(None) scf(xqc) pop(None) freq opt(CalcFC,
  Tight)
 ----------------------------------------------------------------------

 ------------------------------
 Gaussian input prepared by ASE
 ------------------------------
 Symbolic Z-matrix:
 Charge =  0 Multiplicity = 2

 SCF Done:  E(UwB97XD) =  -862.110326810     A.U. after   18 cycles
 SCF Done:  E(UwB97XD) =  -862.110326827     A.U. after    9 cycles
 Optimization completed.
    -- Stationary point found.
 Normal termination of Gaussian 16 at Fri May 23 02:11:40 2025.

 ----------------------------------------------------------------------
 #P Geom=AllCheck Guess=TCheck SCRF=Check GenChk UwB97XD/6-311++G(d,p)
 Freq
 ----------------------------------------------------------------------

 Structure from the checkpoint file:  "/tmp/Gau-186136.chk"
 ------------------------------
 Gaussian input prepared by ASE
 ------------------------------
 Charge =  0 Multiplicity = 2

                          Input orientation:
 ---------------------------------------------------------------------
 Center     Atomic      Atomic             Coordinates (Angstroms)
 Number     Number       Type             X           Y           Z
 ---------------------------------------------------------------------
      1          6           0        2.054977   -0.473144    1.650028
      2          9           0        2.074446   -1.769484    1.842907
      3          9           0        1.488535    0.160591    2.647546
      4         16           0        1.431308    0.000058    0.000024
      5          8           0        2.225973   -0.725339   -0.951243
      6          8           0       -0.000127    0.000325    0.000024
      7          8           0        1.883121    1.538744   -0.000235
      8          1           0        2.778391    1.620794   -0.352909
 ---------------------------------------------------------------------

 SCF Done:  E(UwB97XD) =  -862.110326827     A.U. after    1 cycles

 Isotropic polarizability for W=    0.000000       42.26 Bohr**3.
 End of Minotr F.D. properties file   721 does not exist.

                      1                      2                      3
                      A                      A                      A
 Frequencies --     56.2062               189.9102               191.6207
 Red. masses --     15.0468                10.4617                 7.5024
 Frc consts  --      0.0280                 0.2223                 0.1623
 IR Inten    --      0.7411                 6.0690                14.5615

                      4                      5                      6
                      A                      A                      A
 Frequencies --    301.5919               323.6813               372.3847
 Red. masses --      2.3125                 4.1599                 4.3394
 Frc consts  --      0.1239                 0.2568                 0.3545
 IR Inten    --     40.6559                31.9546                20.0064

                      7                      8                      9
                      A                      A                      A
 Frequencies --    442.0743               500.9862               570.5404
 Red. masses --      4.6597                14.0584                18.5421
 Frc consts  --      0.5365                 2.0789                 3.5562
 IR Inten    --     34.0472                16.7692                86.7432

                     10                     11                     12
                      A                      A                      A
 Frequencies --    606.7384               699.1530               838.5664
 Red. masses --     12.3149                16.1826                17.7199
 Frc consts  --      2.6711                 4.6606                 7.3415
 IR Inten    --     38.4890                12.3768               243.9791

                     13                     14                     15
                      A                      A                      A
 Frequencies --   1125.0084              1178.1592              1271.5761
 Red. masses --      1.1861                17.1461                14.2912
 Frc consts  --      0.8845                14.0224                13.6146
 IR Inten    --     82.9212               196.5460                80.4205

                     16                     17                     18
                      A                      A                      A
 Frequencies --   1283.2650              1426.8643              3838.8425
 Red. masses --     13.3186                14.2182                 1.0663
 Frc consts  --     12.9224                17.0553                 9.2586
 IR Inten    --    261.4218               295.7585               156.2447

 - Thermochemistry -
 -------------------
 Temperature   298.150 Kelvin.  Pressure   1.00000 Atm.
 Atom     1 has atomic number  6 and mass  12.00000

 Molecular mass:   130.96145 amu.
 Principal axes and moments of inertia in atomic units:
                           1         2         3
     Eigenvalues --   527.53946 906.776241062.04802
           X            0.12460  -0.27541   0.95322
           Y           -0.39304   0.86841   0.30229
           Z            0.91104   0.41232   0.00004
 This molecule is an asymmetric top.
 Rotational symmetry number  1.
 Warning -- assumption of classical behavior for rotation
           may cause significant error
 Rotational temperatures (Kelvin)      0.16418     0.09552     0.08155
 Rotational constants (GHZ):           3.42105     1.99028     1.69930
 Zero-point vibrational energy      91018.9 (Joules/Mol)
                                   21.75404 (Kcal/Mol)
 Warning -- explicit consideration of  10 degrees of freedom as
           vibrations may cause significant error
 Vibrational temperatures:     80.87   273.24   275.70   433.92   465.71
          (Kelvin)            535.78   636.05   720.81   820.88   872.96
                             1005.93  1206.51  1618.64  1695.11  1829.51
                             1846.33  2052.94  5523.24

 Zero-point correction=                           0.034667 (Hartree/Particle)
 Thermal correction to Energy=                    0.041699
 Thermal correction to Enthalpy=                  0.042644
 Thermal correction to Gibbs Free Energy=         0.002021
 Sum of electronic and zero-point Energies=           -862.075660
 Sum of electronic and thermal Energies=              -862.068627
 Sum of electronic and thermal Enthalpies=            -862.067683
 Sum of electronic and thermal Free Energies=         -862.108305

                     E (Thermal)             CV                S
                      KCal/Mol        Cal/Mol-Kelvin    Cal/Mol-Kelvin
 Total                   26.167             23.523             85.497
 Electronic               0.000              0.000              1.377
 Translational            0.889              2.981             40.522
 Rotational               0.889              2.981             27.721
 Vibrational             24.389             17.561             15.876
 Vibration     1          0.596              1.975              4.586
 Vibration     2          0.633              1.854              2.229
 Vibration     3          0.634              1.851              2.212
 Vibration     4          0.694              1.671              1.408
 Vibration     5          0.708              1.628              1.291
 Vibration     6          0.744              1.529              1.070
 Vibration     7          0.802              1.378              0.820
 Vibration     8          0.856              1.248              0.656
 Vibration     9          0.927              1.095              0.503
 Vibration    10          0.965              1.018              0.438

 Optimization completed.
    -- Stationary point found.
 Normal termination of Gaussian 16 at Fri May 23 02:12:11 2025.
