 Gaussian 16, Revision C.01,
 Gaussian 16:  ES64L-G16RevC.01  3-Jul-2019

 ----------------------------------------------------------------------
 #P wb97xd/6-311++G(d,p) Symm(None) scf(xqc) pop(None) freq opt(CalcFC,
  Tight)
 ----------------------------------------------------------------------

 ------------------------------
 Gaussian input prepared by ASE
 ------------------------------
 Symbolic Z-matrix:
 Charge =  0 Multiplicity = 1

 SCF Done:  E(RwB97XD) =  -962.024632847     A.U. after   14 cycles
 SCF Done:  E(RwB97XD) =  -962.031235008     A.U. after   13 cycles
 SCF Done:  E(RwB97XD) =  -962.032577298     A.U. after   12 cycles
 SCF Done:  E(RwB97XD) =  -962.033033679     A.U. after   12 cycles
 SCF Done:  E(RwB97XD) =  -962.033216773     A.U. after   11 cycles
 SCF Done:  E(RwB97XD) =  -962.033302890     A.U. after   11 cycles
 SCF Done:  E(RwB97XD) =  -962.033318019     A.U. after   10 cycles
 SCF Done:  E(RwB97XD) =  -962.033320152     A.U. after   10 cycles
 SCF Done:  E(RwB97XD) =  -962.033320759     A.U. after    9 cycles
 SCF Done:  E(RwB97XD) =  -962.033320804     A.U. after    8 cycles
 SCF Done:  E(RwB97XD) =  -962.033320804     A.U. after    5 cycles
 Optimization completed.
    -- Stationary point found.
 Normal termination of Gaussian 16 at Fri May 23 04:52:34 2025.

 ----------------------------------------------------------------------
 #P Geom=AllCheck Guess=TCheck SCRF=Check GenChk RwB97XD/6-311++G(d,p)
 Freq
 ----------------------------------------------------------------------

 Structure from the checkpoint file:  "/tmp/Gau-86583.chk"
 ------------------------------
 Gaussian input prepared by ASE
 ------------------------------
 Charge =  0 Multiplicity = 1

                          Input orientation:
 ---------------------------------------------------------------------
 Center     Atomic      Atomic             Coordinates (Angstroms)
 Number     Number       Type             X           Y           Z
 ---------------------------------------------------------------------
      1          6           0       -0.067967   -0.059135   -0.064228
      2          9           0       -0.543013    0.430818   -1.193221
      3          9           0       -0.563829    0.627950    0.958573
      4         16           0        1.796960    0.066859   -0.036525
      5          8           0        2.228062   -0.404702    1.249622
      6          8           0        2.281934   -0.443921   -1.277839
      7          8           0        1.944687    1.663199   -0.088485
      8          9           0       -0.408223   -1.329877    0.051367
      9          1           0        1.985406    2.023377    0.807090
 ---------------------------------------------------------------------

 SCF Done:  E(RwB97XD) =  -962.033320804     A.U. after    1 cycles

 Isotropic polarizability for W=    0.000000       43.29 Bohr**3.
 End of Minotr F.D. properties file   721 does not exist.

                      1                      2                      3
                      A                      A                      A
 Frequencies --     55.3658               185.6811               194.4304
 Red. masses --     13.5981                 6.7432                16.6477
 Frc consts  --      0.0246                 0.1370                 0.3708
 IR Inten    --      1.2744                10.5869                 3.6807

                      4                      5                      6
                      A                      A                      A
 Frequencies --    299.3047               309.3536               332.7463
 Red. masses --     11.4373                 2.6837                14.2606
 Frc consts  --      0.6037                 0.1513                 0.9303
 IR Inten    --      0.7018                40.1209                 1.5209

                      7                      8                      9
                      A                      A                      A
 Frequencies --    362.1201               455.9559               488.1041
 Red. masses --      2.3059                 4.3137                14.4820
 Frc consts  --      0.1782                 0.5284                 2.0328
 IR Inten    --     47.9306                33.0648                23.7935

                     10                     11                     12
                      A                      A                      A
 Frequencies --    565.1543               567.7044               609.8890
 Red. masses --     17.0277                15.7341                20.3869
 Frc consts  --      3.2043                 2.9877                 4.4679
 IR Inten    --      0.4964                 1.1943               156.9933

                     13                     14                     15
                      A                      A                      A
 Frequencies --    773.7476               836.3895              1126.9146
 Red. masses --     17.1989                18.3089                 1.1951
 Frc consts  --      6.0667                 7.5462                 0.8942
 IR Inten    --     23.0027               214.8139                81.6008

                     16                     17                     18
                      A                      A                      A
 Frequencies --   1144.4382              1229.8933              1250.8167
 Red. masses --     13.8338                13.5130                14.0862
 Frc consts  --     10.6752                12.0431                12.9847
 IR Inten    --    309.3969               142.6016               109.1668

                     19                     20                     21
                      A                      A                      A
 Frequencies --   1258.6230              1442.2540              3835.1921
 Red. masses --     13.5828                14.2384                 1.0663
 Frc consts  --     12.6775                17.4499                 9.2408
 IR Inten    --    332.2817               309.7739               160.9014

 - Thermochemistry -
 -------------------
 Temperature   298.150 Kelvin.  Pressure   1.00000 Atm.
 Atom     1 has atomic number  6 and mass  12.00000

 Molecular mass:   149.95985 amu.
 Principal axes and moments of inertia in atomic units:
                           1         2         3
     Eigenvalues --   684.929581159.513101165.69119
           X            0.99049  -0.09110  -0.10307
           Y            0.13655   0.56008   0.81711
           Z            0.01671   0.82342  -0.56719
 This molecule is an asymmetric top.
 Rotational symmetry number  1.
 Warning -- assumption of classical behavior for rotation
           may cause significant error
 Rotational temperatures (Kelvin)      0.12646     0.07470     0.07430
 Rotational constants (GHZ):           2.63493     1.55646     1.54822
 Zero-point vibrational energy     103621.0 (Joules/Mol)
                                   24.76601 (Kcal/Mol)
 Warning -- explicit consideration of  12 degrees of freedom as
           vibrations may cause significant error
 Vibrational temperatures:     79.66   267.15   279.74   430.63   445.09
          (Kelvin)            478.75   521.01   656.02   702.27   813.13
                              816.80   877.49  1113.25  1203.38  1621.38
                             1646.59  1769.54  1799.65  1810.88  2075.08
                             5517.99

 Zero-point correction=                           0.039467 (Hartree/Particle)
 Thermal correction to Energy=                    0.047086
 Thermal correction to Enthalpy=                  0.048031
 Thermal correction to Gibbs Free Energy=         0.006686
 Sum of electronic and zero-point Energies=           -961.993854
 Sum of electronic and thermal Energies=              -961.986234
 Sum of electronic and thermal Enthalpies=            -961.985290
 Sum of electronic and thermal Free Energies=         -962.026635

                     E (Thermal)             CV                S
                      KCal/Mol        Cal/Mol-Kelvin    Cal/Mol-Kelvin
 Total                   29.547             26.389             87.017
 Electronic               0.000              0.000              0.000
 Translational            0.889              2.981             40.926
 Rotational               0.889              2.981             28.317
 Vibrational             27.770             20.427             17.774
 Vibration     1          0.596              1.975              4.616
 Vibration     2          0.632              1.859              2.271
 Vibration     3          0.635              1.848              2.185
 Vibration     4          0.692              1.675              1.421
 Vibration     5          0.699              1.656              1.366
 Vibration     6          0.715              1.610              1.247
 Vibration     7          0.736              1.550              1.113
 Vibration     8          0.814              1.348              0.778
 Vibration     9          0.844              1.276              0.689
 Vibration    10          0.921              1.107              0.514
 Vibration    11          0.924              1.101              0.509
 Vibration    12          0.969              1.011              0.433

 Optimization completed.
    -- Stationary point found.
 Normal termination of Gaussian 16 at Fri May 23 04:53:07 2025.
