 Gaussian 16, Revision C.01,
 Gaussian 16:  ES64L-G16RevC.01  3-Jul-2019

 ----------------------------------------------------------------------
 #P wb97xd/6-311++G(d,p) Symm(None) scf(xqc) pop(None) freq opt(CalcFC,
  Tight)
 ----------------------------------------------------------------------

 ------------------------------
 Gaussian input prepared by ASE
 ------------------------------
 Symbolic Z-matrix:
 Charge =  0 Multiplicity = 1

 SCF Done:  E(RwB97XD) =  -962.053486061     A.U. after   14 cycles
 SCF Done:  E(RwB97XD) =  -962.055344492     A.U. after   15 cycles
 SCF Done:  E(RwB97XD) =  -962.061192047     A.U. after   15 cycles
 SCF Done:  E(RwB97XD) =  -962.046173789     A.U. after   15 cycles
 SCF Done:  E(RwB97XD) =  -962.061716933     A.U. after   13 cycles
 SCF Done:  E(RwB97XD) =  -962.062712619     A.U. after   12 cycles
 SCF Done:  E(RwB97XD) =  -962.062800131     A.U. after   12 cycles
 SCF Done:  E(RwB97XD) =  -962.062831024     A.U. after   12 cycles
 SCF Done:  E(RwB97XD) =  -962.062859344     A.U. after   12 cycles
 SCF Done:  E(RwB97XD) =  -962.062887556     A.U. after   13 cycles
 SCF Done:  E(RwB97XD) =  -962.062901163     A.U. after   11 cycles
 SCF Done:  E(RwB97XD) =  -962.062921481     A.U. after   12 cycles
 SCF Done:  E(RwB97XD) =  -962.062935625     A.U. after   11 cycles
 SCF Done:  E(RwB97XD) =  -962.062943468     A.U. after   12 cycles
 SCF Done:  E(RwB97XD) =  -962.062944807     A.U. after   11 cycles
 SCF Done:  E(RwB97XD) =  -962.062945874     A.U. after   11 cycles
 SCF Done:  E(RwB97XD) =  -962.062946260     A.U. after   10 cycles
 SCF Done:  E(RwB97XD) =  -962.062946457     A.U. after    9 cycles
 SCF Done:  E(RwB97XD) =  -962.062946458     A.U. after    7 cycles
 Optimization completed.
    -- Stationary point found.
 Normal termination of Gaussian 16 at Fri May 23 05:28:09 2025.

 ----------------------------------------------------------------------
 #P Geom=AllCheck Guess=TCheck SCRF=Check GenChk RwB97XD/6-311++G(d,p)
 Freq
 ----------------------------------------------------------------------

 Structure from the checkpoint file:  "/tmp/Gau-144975.chk"
 ------------------------------
 Gaussian input prepared by ASE
 ------------------------------
 Charge =  0 Multiplicity = 1

                          Input orientation:
 ---------------------------------------------------------------------
 Center     Atomic      Atomic             Coordinates (Angstroms)
 Number     Number       Type             X           Y           Z
 ---------------------------------------------------------------------
      1          6           0       -0.690208   -0.868791    0.790253
      2         16           0        1.811087    0.037699    0.528223
      3          8           0        0.050230    0.239632    0.604825
      4          8           0        2.360015    0.416314    1.798742
      5          8           0        1.940857    1.368326   -0.394367
      6          9           0       -1.960492   -0.519815    0.917311
      7          9           0       -0.588239   -1.716241   -0.250865
      8          9           0       -0.319913   -1.552193    1.880673
      9          1           0        1.313881    1.350631   -1.128717
 ---------------------------------------------------------------------

 SCF Done:  E(RwB97XD) =  -962.062946458     A.U. after    1 cycles

 Isotropic polarizability for W=    0.000000       45.76 Bohr**3.
 End of Minotr F.D. properties file   721 does not exist.

                      1                      2                      3
                      A                      A                      A
 Frequencies --     28.1489                63.9107               127.6387
 Red. masses --     10.4882                14.4008                 1.6920
 Frc consts  --      0.0049                 0.0347                 0.0162
 IR Inten    --      4.2340                 2.7767                67.3943

                      4                      5                      6
                      A                      A                      A
 Frequencies --    154.3269               270.0952               315.3992
 Red. masses --      3.8765                13.1299                 5.3975
 Frc consts  --      0.0544                 0.5643                 0.3163
 IR Inten    --     46.4880                26.6542                16.1216

                      7                      8                      9
                      A                      A                      A
 Frequencies --    400.9680               452.2890               480.0734
 Red. masses --     11.3279                15.8198                10.6157
 Frc consts  --      1.0730                 1.9067                 1.4415
 IR Inten    --     68.3399                 5.7175                15.9065

                     10                     11                     12
                      A                      A                      A
 Frequencies --    531.5747               628.1121               674.2778
 Red. masses --     19.0346                17.6581                16.9810
 Frc consts  --      3.1690                 4.1046                 4.5487
 IR Inten    --     80.5804                 4.7173                 1.1387

                     13                     14                     15
                      A                      A                      A
 Frequencies --    702.8018               806.4319               936.5035
 Red. masses --     16.3913                16.1971                17.4598
 Frc consts  --      4.7701                 6.2061                 9.0221
 IR Inten    --    139.8495               139.8884                16.2947

                     16                     17                     18
                      A                      A                      A
 Frequencies --   1071.4828              1177.1410              1227.5780
 Red. masses --      1.1573                12.9611                12.9797
 Frc consts  --      0.7829                10.5815                11.5243
 IR Inten    --    189.7223               380.4566               497.7243

                     19                     20                     21
                      A                      A                      A
 Frequencies --   1274.6353              1336.3394              3840.2539
 Red. masses --     13.2389                15.1980                 1.0662
 Frc consts  --     12.6729                15.9908                 9.2644
 IR Inten    --    729.6612               158.1561               136.1820

 - Thermochemistry -
 -------------------
 Temperature   298.150 Kelvin.  Pressure   1.00000 Atm.
 Atom     1 has atomic number  6 and mass  12.00000

 Molecular mass:   149.95985 amu.
 Principal axes and moments of inertia in atomic units:
                           1         2         3
     Eigenvalues --   524.150841581.439671738.05899
           X            0.87335   0.27923  -0.39910
           Y            0.48166  -0.37317   0.79293
           Z           -0.07248   0.88475   0.46040
 This molecule is an asymmetric top.
 Rotational symmetry number  1.
 Warning -- assumption of classical behavior for rotation
           may cause significant error
 Rotational temperatures (Kelvin)      0.16525     0.05477     0.04983
 Rotational constants (GHZ):           3.44317     1.14120     1.03837
 Zero-point vibrational energy      98691.8 (Joules/Mol)
                                   23.58791 (Kcal/Mol)
 Warning -- explicit consideration of  10 degrees of freedom as
           vibrations may cause significant error
 Vibrational temperatures:     40.50    91.95   183.64   222.04   388.61
          (Kelvin)            453.79   576.90   650.74   690.72   764.82
                              903.71   970.14  1011.18  1160.28  1347.42
                             1541.62  1693.64  1766.21  1833.92  1922.69
                             5525.27

 Zero-point correction=                           0.037590 (Hartree/Particle)
 Thermal correction to Energy=                    0.045887
 Thermal correction to Enthalpy=                  0.046831
 Thermal correction to Gibbs Free Energy=         0.002590
 Sum of electronic and zero-point Energies=           -962.025357
 Sum of electronic and thermal Energies=              -962.017059
 Sum of electronic and thermal Enthalpies=            -962.016115
 Sum of electronic and thermal Free Energies=         -962.060357

                     E (Thermal)             CV                S
                      KCal/Mol        Cal/Mol-Kelvin    Cal/Mol-Kelvin
 Total                   28.795             27.185             93.115
 Electronic               0.000              0.000              0.000
 Translational            0.889              2.981             40.926
 Rotational               0.889              2.981             28.756
 Vibrational             27.017             21.223             23.433
 Vibration     1          0.593              1.984              5.956
 Vibration     2          0.597              1.972              4.333
 Vibration     3          0.611              1.926              2.981
 Vibration     4          0.620              1.898              2.618
 Vibration     5          0.674              1.728              1.596
 Vibration     6          0.703              1.644              1.334
 Vibration     7          0.767              1.468              0.959
 Vibration     8          0.811              1.356              0.789
 Vibration     9          0.836              1.294              0.710
 Vibration    10          0.887              1.180              0.584

                           ! Non-Optimized Parameters !
 Normal termination of Gaussian 16 at Fri May 23 05:28:38 2025.
