 Gaussian 16, Revision C.01,
 Gaussian 16:  ES64L-G16RevC.01  3-Jul-2019

 ----------------------------------------------------------------------
 #P wb97xd/6-311++G(d,p) Symm(None) scf(xqc) pop(None) freq opt(CalcFC,
  Tight)
 ----------------------------------------------------------------------

 ------------------------------
 Gaussian input prepared by ASE
 ------------------------------
 Symbolic Z-matrix:
 Charge =  0 Multiplicity = 1

 SCF Done:  E(RwB97XD) =  -962.047781648     A.U. after   15 cycles
 SCF Done:  E(RwB97XD) =  -962.057988131     A.U. after   15 cycles
 SCF Done:  E(RwB97XD) =  -962.039849470     A.U. after   15 cycles
 SCF Done:  E(RwB97XD) =  -962.059061265     A.U. after   14 cycles
 SCF Done:  E(RwB97XD) =  -962.060314150     A.U. after   12 cycles
 SCF Done:  E(RwB97XD) =  -962.062757027     A.U. after   15 cycles
 SCF Done:  E(RwB97XD) =  -962.063259038     A.U. after   13 cycles
 SCF Done:  E(RwB97XD) =  -962.064095665     A.U. after   12 cycles
 SCF Done:  E(RwB97XD) =  -962.064299115     A.U. after   12 cycles
 SCF Done:  E(RwB97XD) =  -962.064386372     A.U. after   11 cycles
 SCF Done:  E(RwB97XD) =  -962.064971460     A.U. after   12 cycles
 SCF Done:  E(RwB97XD) =  -962.065010583     A.U. after   11 cycles
 SCF Done:  E(RwB97XD) =  -962.065021445     A.U. after   10 cycles
 SCF Done:  E(RwB97XD) =  -962.065024156     A.U. after   10 cycles
 SCF Done:  E(RwB97XD) =  -962.065025069     A.U. after    8 cycles
 SCF Done:  E(RwB97XD) =  -962.065025409     A.U. after    8 cycles
 SCF Done:  E(RwB97XD) =  -962.065025464     A.U. after    7 cycles
 SCF Done:  E(RwB97XD) =  -962.065025466     A.U. after    6 cycles
 SCF Done:  E(RwB97XD) =  -962.065025466     A.U. after    4 cycles
 Optimization completed.
    -- Stationary point found.
 Normal termination of Gaussian 16 at Fri May 23 05:28:56 2025.

 ----------------------------------------------------------------------
 #P Geom=AllCheck Guess=TCheck SCRF=Check GenChk RwB97XD/6-311++G(d,p)
 Freq
 ----------------------------------------------------------------------

 Structure from the checkpoint file:  "/tmp/Gau-275683.chk"
 ------------------------------
 Gaussian input prepared by ASE
 ------------------------------
 Charge =  0 Multiplicity = 1

                          Input orientation:
 ---------------------------------------------------------------------
 Center     Atomic      Atomic             Coordinates (Angstroms)
 Number     Number       Type             X           Y           Z
 ---------------------------------------------------------------------
      1          6           0       -0.598880    1.191266    0.313363
      2         16           0        1.778445   -0.114409   -0.106461
      3          8           0        0.056466    0.129417   -0.195221
      4          8           0        2.080348   -0.488591    1.256053
      5          8           0        2.269494    1.415231   -0.329342
      6          9           0       -1.834008    0.832067    0.626473
      7          9           0       -0.005430    1.677081    1.422559
      8          9           0       -0.665780    2.197634   -0.561815
      9          1           0        2.257538    1.913426    0.501917
 ---------------------------------------------------------------------

 SCF Done:  E(RwB97XD) =  -962.065025466     A.U. after    1 cycles

 Isotropic polarizability for W=    0.000000       44.43 Bohr**3.
 End of Minotr F.D. properties file   721 does not exist.

                      1                      2                      3
                      A                      A                      A
 Frequencies --     53.8758                79.7719               164.5424
 Red. masses --     15.6649                12.0542                12.0932
 Frc consts  --      0.0268                 0.0452                 0.1929
 IR Inten    --      0.5186                 0.4000                 0.5666

                      4                      5                      6
                      A                      A                      A
 Frequencies --    289.3218               295.3912               345.1904
 Red. masses --     14.5479                15.5497                 1.8793
 Frc consts  --      0.7175                 0.7994                 0.1319
 IR Inten    --     19.1062                 3.6614                 7.4441

                      7                      8                      9
                      A                      A                      A
 Frequencies --    441.2411               478.4611               501.8446
 Red. masses --     16.5296                 5.6306                 6.3742
 Frc consts  --      1.8961                 0.7595                 0.9458
 IR Inten    --      5.3757                18.3538               184.1413

                     10                     11                     12
                      A                      A                      A
 Frequencies --    528.9214               618.5618               680.1894
 Red. masses --      3.1232                17.4645                15.4962
 Frc consts  --      0.5148                 3.9371                 4.2241
 IR Inten    --    133.9244                 4.8982                13.3278

                     13                     14                     15
                      A                      A                      A
 Frequencies --    698.4544               785.9809               944.9245
 Red. masses --     15.8324                14.3802                16.9764
 Frc consts  --      4.5506                 5.2341                 8.9308
 IR Inten    --    108.8040               167.9784                60.3461

                     16                     17                     18
                      A                      A                      A
 Frequencies --   1111.3652              1172.1895              1216.8160
 Red. masses --      1.3328                 9.8046                11.9989
 Frc consts  --      0.9699                 7.9374                10.4674
 IR Inten    --    100.7648               249.5224               734.0076

                     19                     20                     21
                      A                      A                      A
 Frequencies --   1261.1295              1305.6339              3784.4929
 Red. masses --     10.4216                11.0991                 1.0654
 Frc consts  --      9.7657                11.1476                 8.9906
 IR Inten    --    553.3368               222.2273               117.9741

 - Thermochemistry -
 -------------------
 Temperature   298.150 Kelvin.  Pressure   1.00000 Atm.
 Atom     1 has atomic number  6 and mass  12.00000

 Molecular mass:   149.95985 amu.
 Principal axes and moments of inertia in atomic units:
                           1         2         3
     Eigenvalues --   543.460621410.994461536.11735
           X            0.92008   0.30754   0.24264
           Y           -0.39088   0.76151   0.51702
           Z           -0.02576  -0.57054   0.82086
 This molecule is an asymmetric top.
 Rotational symmetry number  1.
 Warning -- assumption of classical behavior for rotation
           may cause significant error
 Rotational temperatures (Kelvin)      0.15937     0.06139     0.05638
 Rotational constants (GHZ):           3.32083     1.27906     1.17487
 Zero-point vibrational energy     100236.9 (Joules/Mol)
                                   23.95719 (Kcal/Mol)
 Warning -- explicit consideration of  11 degrees of freedom as
           vibrations may cause significant error
 Vibrational temperatures:     77.52   114.77   236.74   416.27   425.00
          (Kelvin)            496.65   634.85   688.40   722.04   761.00
                              889.97   978.64  1004.92  1130.85  1359.54
                             1599.01  1686.52  1750.73  1814.48  1878.52
                             5445.04

 Zero-point correction=                           0.038178 (Hartree/Particle)
 Thermal correction to Energy=                    0.045989
 Thermal correction to Enthalpy=                  0.046933
 Thermal correction to Gibbs Free Energy=         0.004632
 Sum of electronic and zero-point Energies=           -962.026847
 Sum of electronic and thermal Energies=              -962.019036
 Sum of electronic and thermal Enthalpies=            -962.018092
 Sum of electronic and thermal Free Energies=         -962.060393

                     E (Thermal)             CV                S
                      KCal/Mol        Cal/Mol-Kelvin    Cal/Mol-Kelvin
 Total                   28.859             26.667             89.030
 Electronic               0.000              0.000              0.000
 Translational            0.889              2.981             40.926
 Rotational               0.889              2.981             28.556
 Vibrational             27.081             20.706             19.548
 Vibration     1          0.596              1.976              4.670
 Vibration     2          0.600              1.963              3.896
 Vibration     3          0.623              1.886              2.497
 Vibration     4          0.686              1.694              1.478
 Vibration     5          0.690              1.682              1.443
 Vibration     6          0.724              1.585              1.188
 Vibration     7          0.801              1.380              0.823
 Vibration     8          0.835              1.298              0.714
 Vibration     9          0.857              1.246              0.654
 Vibration    10          0.884              1.186              0.590
 Vibration    11          0.978              0.993              0.419

 Optimization completed.
    -- Stationary point found.
 Normal termination of Gaussian 16 at Fri May 23 05:29:30 2025.
