 Gaussian 16, Revision C.01,
 Gaussian 16:  ES64L-G16RevC.01  3-Jul-2019

 ----------------------------------------------------------------------
 #P wb97xd/6-311++G(d,p) Symm(None) scf(xqc) pop(None) freq opt(CalcFC,
  Tight)
 ----------------------------------------------------------------------

 ------------------------------
 Gaussian input prepared by ASE
 ------------------------------
 Symbolic Z-matrix:
 Charge =  0 Multiplicity = 1

 SCF Done:  E(RwB97XD) =  -962.033316785     A.U. after   14 cycles
 SCF Done:  E(RwB97XD) =  -962.033316815     A.U. after    8 cycles
 Optimization completed.
    -- Stationary point found.
 Normal termination of Gaussian 16 at Fri May 23 04:51:28 2025.

 ----------------------------------------------------------------------
 #P Geom=AllCheck Guess=TCheck SCRF=Check GenChk RwB97XD/6-311++G(d,p)
 Freq
 ----------------------------------------------------------------------

 Structure from the checkpoint file:  "/tmp/Gau-61826.chk"
 ------------------------------
 Gaussian input prepared by ASE
 ------------------------------
 Charge =  0 Multiplicity = 1

                          Input orientation:
 ---------------------------------------------------------------------
 Center     Atomic      Atomic             Coordinates (Angstroms)
 Number     Number       Type             X           Y           Z
 ---------------------------------------------------------------------
      1          6           0        0.000128    0.000044    0.000032
      2          9           0       -0.432989    0.681900   -1.054281
      3          9           0       -0.457407    0.560647    1.103075
      4         16           0        1.869497   -0.000005    0.000221
      5          8           0        2.300208   -0.497526    1.266674
      6          8           0        2.287110   -0.544863   -1.261138
      7          8           0        2.123750    1.583704   -0.000379
      8          9           0       -0.423406   -1.248378   -0.077416
      9          1           0        2.201882    1.908312   -0.906999
 ---------------------------------------------------------------------

 SCF Done:  E(RwB97XD) =  -962.033316815     A.U. after    1 cycles

 Isotropic polarizability for W=    0.000000       43.29 Bohr**3.
 End of Minotr F.D. properties file   721 does not exist.

                      1                      2                      3
                      A                      A                      A
 Frequencies --     55.7155               185.5410               194.2489
 Red. masses --     13.5865                 6.6956                16.6239
 Frc consts  --      0.0248                 0.1358                 0.3696
 IR Inten    --      1.2790                10.6933                 3.6875

                      4                      5                      6
                      A                      A                      A
 Frequencies --    299.1980               309.4991               332.7055
 Red. masses --     11.5388                 2.6817                14.1470
 Frc consts  --      0.6086                 0.1513                 0.9226
 IR Inten    --      0.6838                40.1660                 1.5821

                      7                      8                      9
                      A                      A                      A
 Frequencies --    361.9882               455.7627               488.3246
 Red. masses --      2.3043                 4.3381                14.4930
 Frc consts  --      0.1779                 0.5309                 2.0362
 IR Inten    --     47.9934                32.8250                23.8242

                     10                     11                     12
                      A                      A                      A
 Frequencies --    565.0349               567.7068               609.9090
 Red. masses --     17.0055                15.7487                20.3607
 Frc consts  --      3.1988                 2.9905                 4.4624
 IR Inten    --      0.4986                 1.2003               157.0027

                     13                     14                     15
                      A                      A                      A
 Frequencies --    773.6025               836.7558              1126.2608
 Red. masses --     17.2085                18.3094                 1.1926
 Frc consts  --      6.0678                 7.5530                 0.8913
 IR Inten    --     22.4326               215.3682                82.4505

                     16                     17                     18
                      A                      A                      A
 Frequencies --   1145.0784              1229.8953              1251.2139
 Red. masses --     14.0929                13.4712                13.9762
 Frc consts  --     10.8873                12.0058                12.8915
 IR Inten    --    308.9560               147.2485               107.0688

                     19                     20                     21
                      A                      A                      A
 Frequencies --   1258.5190              1444.0553              3834.7746
 Red. masses --     13.7844                14.3135                 1.0663
 Frc consts  --     12.8635                17.5859                 9.2388
 IR Inten    --    329.4500               309.8060               160.9980

 - Thermochemistry -
 -------------------
 Temperature   298.150 Kelvin.  Pressure   1.00000 Atm.
 Atom     1 has atomic number  6 and mass  12.00000

 Molecular mass:   149.95985 amu.
 Principal axes and moments of inertia in atomic units:
                           1         2         3
     Eigenvalues --   684.921551159.499571165.66876
           X            0.99758   0.04085  -0.05619
           Y            0.06934  -0.53548   0.84170
           Z           -0.00430   0.84356   0.53702
 This molecule is an asymmetric top.
 Rotational symmetry number  1.
 Warning -- assumption of classical behavior for rotation
           may cause significant error
 Rotational temperatures (Kelvin)      0.12646     0.07470     0.07430
 Rotational constants (GHZ):           2.63496     1.55648     1.54825
 Zero-point vibrational energy     103631.2 (Joules/Mol)
                                   24.76846 (Kcal/Mol)
 Warning -- explicit consideration of  12 degrees of freedom as
           vibrations may cause significant error
 Vibrational temperatures:     80.16   266.95   279.48   430.48   445.30
          (Kelvin)            478.69   520.82   655.74   702.59   812.96
                              816.80   877.52  1113.04  1203.90  1620.44
                             1647.51  1769.54  1800.22  1810.73  2077.67
                             5517.39

 Zero-point correction=                           0.039471 (Hartree/Particle)
 Thermal correction to Energy=                    0.047090
 Thermal correction to Enthalpy=                  0.048034
 Thermal correction to Gibbs Free Energy=         0.006694
 Sum of electronic and zero-point Energies=           -961.993846
 Sum of electronic and thermal Energies=              -961.986227
 Sum of electronic and thermal Enthalpies=            -961.985283
 Sum of electronic and thermal Free Energies=         -962.026623

                     E (Thermal)             CV                S
                      KCal/Mol        Cal/Mol-Kelvin    Cal/Mol-Kelvin
 Total                   29.549             26.388             87.008
 Electronic               0.000              0.000              0.000
 Translational            0.889              2.981             40.926
 Rotational               0.889              2.981             28.317
 Vibrational             27.772             20.427             17.766
 Vibration     1          0.596              1.975              4.603
 Vibration     2          0.632              1.860              2.272
 Vibration     3          0.635              1.848              2.187
 Vibration     4          0.692              1.675              1.421
 Vibration     5          0.699              1.656              1.365
 Vibration     6          0.715              1.610              1.247
 Vibration     7          0.736              1.551              1.114
 Vibration     8          0.814              1.348              0.779
 Vibration     9          0.844              1.276              0.688
 Vibration    10          0.921              1.107              0.514
 Vibration    11          0.924              1.101              0.509
 Vibration    12          0.969              1.011              0.433

 Optimization completed.
    -- Stationary point found.
 Normal termination of Gaussian 16 at Fri May 23 04:51:59 2025.
