 Gaussian 16, Revision C.01,
 Gaussian 16:  ES64L-G16RevC.01  3-Jul-2019

 ----------------------------------------------------------------------
 #P wb97xd/6-311++G(d,p) Symm(None) scf(xqc) pop(None) freq opt(CalcFC,
  Tight)
 ----------------------------------------------------------------------

 ------------------------------
 Gaussian input prepared by ASE
 ------------------------------
 Symbolic Z-matrix:
 Charge =  0 Multiplicity = 1

 SCF Done:  E(RwB97XD) =  -962.060464901     A.U. after   14 cycles
 SCF Done:  E(RwB97XD) =  -962.062561363     A.U. after   14 cycles
 SCF Done:  E(RwB97XD) =  -962.065654290     A.U. after   15 cycles
 SCF Done:  E(RwB97XD) =  -962.040077974     A.U. after   16 cycles
 SCF Done:  E(RwB97XD) =  -962.066675045     A.U. after   12 cycles
 SCF Done:  E(RwB97XD) =  -962.066755158     A.U. after   11 cycles
 SCF Done:  E(RwB97XD) =  -962.066768012     A.U. after   11 cycles
 SCF Done:  E(RwB97XD) =  -962.066800698     A.U. after   12 cycles
 SCF Done:  E(RwB97XD) =  -962.066820571     A.U. after   13 cycles
 SCF Done:  E(RwB97XD) =  -962.066840064     A.U. after   11 cycles
 SCF Done:  E(RwB97XD) =  -962.066875036     A.U. after   12 cycles
 SCF Done:  E(RwB97XD) =  -962.066887152     A.U. after   11 cycles
 SCF Done:  E(RwB97XD) =  -962.066892015     A.U. after   11 cycles
 SCF Done:  E(RwB97XD) =  -962.066892072     A.U. after    9 cycles
 SCF Done:  E(RwB97XD) =  -962.066892086     A.U. after    9 cycles
 SCF Done:  E(RwB97XD) =  -962.066892088     A.U. after    7 cycles
 Optimization completed.
    -- Stationary point found.
 Normal termination of Gaussian 16 at Fri May 23 05:28:07 2025.

 ----------------------------------------------------------------------
 #P Geom=AllCheck Guess=TCheck SCRF=Check GenChk RwB97XD/6-311++G(d,p)
 Freq
 ----------------------------------------------------------------------

 Structure from the checkpoint file:  "/tmp/Gau-172511.chk"
 ------------------------------
 Gaussian input prepared by ASE
 ------------------------------
 Charge =  0 Multiplicity = 1

                          Input orientation:
 ---------------------------------------------------------------------
 Center     Atomic      Atomic             Coordinates (Angstroms)
 Number     Number       Type             X           Y           Z
 ---------------------------------------------------------------------
      1          6           0       -0.696480   -0.903919    0.868762
      2         16           0        1.755753   -0.040743    0.189924
      3          8           0        0.029245    0.156413    0.457038
      4          8           0        2.337546   -0.249986    1.495120
      5          8           0        1.888682    1.507025   -0.228957
      6          9           0       -1.972317   -0.677388    0.587045
      7          9           0       -0.318658   -2.036963    0.249422
      8          9           0       -0.588468   -1.116528    2.180304
      9          1           0        1.650587    2.100745    0.498570
 ---------------------------------------------------------------------

 SCF Done:  E(RwB97XD) =  -962.066892088     A.U. after    1 cycles

 Isotropic polarizability for W=    0.000000       45.10 Bohr**3.
 End of Minotr F.D. properties file   721 does not exist.

                      1                      2                      3
                      A                      A                      A
 Frequencies --     23.9406                72.6634               143.5516
 Red. masses --     12.9801                15.1913                11.0839
 Frc consts  --      0.0044                 0.0473                 0.1346
 IR Inten    --      0.5245                 0.1269                 0.7962

                      4                      5                      6
                      A                      A                      A
 Frequencies --    238.4694               299.0565               344.8178
 Red. masses --      1.9385                13.3040                 3.7235
 Frc consts  --      0.0650                 0.7010                 0.2608
 IR Inten    --     55.8235                 2.8889                15.8314

                      7                      8                      9
                      A                      A                      A
 Frequencies --    418.6107               462.2951               490.6216
 Red. masses --      7.9033                 6.4155                 6.3110
 Frc consts  --      0.8160                 0.8078                 0.8950
 IR Inten    --     37.7682                75.6565                67.6092

                     10                     11                     12
                      A                      A                      A
 Frequencies --    535.5849               629.5055               676.7457
 Red. masses --     13.1034                17.1437                15.9137
 Frc consts  --      2.2146                 4.0027                 4.2941
 IR Inten    --    106.4985                 8.4226                 0.6839

                     13                     14                     15
                      A                      A                      A
 Frequencies --    710.7877               816.0936               942.4749
 Red. masses --     17.3489                14.1133                17.1799
 Frc consts  --      5.1642                 5.5381                 8.9911
 IR Inten    --    127.9701               226.6024                25.2034

                     16                     17                     18
                      A                      A                      A
 Frequencies --   1110.0675              1192.9005              1223.4025
 Red. masses --      1.3571                11.1383                 7.2907
 Frc consts  --      0.9853                 9.3385                 6.4292
 IR Inten    --    161.6438               372.9101               259.6878

                     19                     20                     21
                      A                      A                      A
 Frequencies --   1264.0464              1308.1142              3788.4791
 Red. masses --     11.9810                15.4423                 1.0654
 Frc consts  --     11.2790                15.5687                 9.0090
 IR Inten    --    710.8202               343.9033               119.0366

 - Thermochemistry -
 -------------------
 Temperature   298.150 Kelvin.  Pressure   1.00000 Atm.
 Atom     1 has atomic number  6 and mass  12.00000

 Molecular mass:   149.95985 amu.
 Principal axes and moments of inertia in atomic units:
                           1         2         3
     Eigenvalues --   523.290521546.639331686.93624
           X            0.86862   0.45747  -0.19031
           Y            0.46478  -0.61925   0.63286
           Z           -0.17167   0.63817   0.75052
 This molecule is an asymmetric top.
 Rotational symmetry number  1.
 Warning -- assumption of classical behavior for rotation
           may cause significant error
 Rotational temperatures (Kelvin)      0.16552     0.05600     0.05134
 Rotational constants (GHZ):           3.44883     1.16688     1.06983
 Zero-point vibrational energy      99841.7 (Joules/Mol)
                                   23.86274 (Kcal/Mol)
 Warning -- explicit consideration of  10 degrees of freedom as
           vibrations may cause significant error
 Vibrational temperatures:     34.45   104.55   206.54   343.10   430.28
          (Kelvin)            496.12   602.29   665.14   705.90   770.59
                              905.72   973.69  1022.66  1174.18  1356.01
                             1597.14  1716.32  1760.20  1818.68  1882.08
                             5450.78

 Zero-point correction=                           0.038028 (Hartree/Particle)
 Thermal correction to Energy=                    0.046036
 Thermal correction to Enthalpy=                  0.046980
 Thermal correction to Gibbs Free Energy=         0.003448
 Sum of electronic and zero-point Energies=           -962.028864
 Sum of electronic and thermal Energies=              -962.020856
 Sum of electronic and thermal Enthalpies=            -962.019912
 Sum of electronic and thermal Free Energies=         -962.063444

                     E (Thermal)             CV                S
                      KCal/Mol        Cal/Mol-Kelvin    Cal/Mol-Kelvin
 Total                   28.888             26.776             91.622
 Electronic               0.000              0.000              0.000
 Translational            0.889              2.981             40.926
 Rotational               0.889              2.981             28.703
 Vibrational             27.110             20.814             21.993
 Vibration     1          0.593              1.985              6.277
 Vibration     2          0.599              1.967              4.080
 Vibration     3          0.616              1.910              2.756
 Vibration     4          0.656              1.782              1.814
 Vibration     5          0.692              1.675              1.422
 Vibration     6          0.723              1.586              1.190
 Vibration     7          0.781              1.430              0.897
 Vibration     8          0.820              1.334              0.759
 Vibration     9          0.846              1.271              0.682
 Vibration    10          0.891              1.171              0.575

 Optimization completed.
    -- Stationary point found.
 Normal termination of Gaussian 16 at Fri May 23 05:28:40 2025.
