 Gaussian 16, Revision C.01,
 Gaussian 16:  ES64L-G16RevC.01  3-Jul-2019

 ----------------------------------------------------------------------
 #P wb97xd/6-311++G(d,p) Symm(None) scf(xqc) pop(None) freq opt(CalcFC,
  Tight)
 ----------------------------------------------------------------------

 ------------------------------
 Gaussian input prepared by ASE
 ------------------------------
 Symbolic Z-matrix:
 Charge =  0 Multiplicity = 1

 SCF Done:  E(RwB97XD) =  -962.057644701     A.U. after   15 cycles
 SCF Done:  E(RwB97XD) =  -962.060266424     A.U. after   13 cycles
 SCF Done:  E(RwB97XD) =  -962.059779673     A.U. after   13 cycles
 SCF Done:  E(RwB97XD) =  -962.061089337     A.U. after   12 cycles
 SCF Done:  E(RwB97XD) =  -962.061275858     A.U. after   11 cycles
 SCF Done:  E(RwB97XD) =  -962.063886539     A.U. after   15 cycles
 SCF Done:  E(RwB97XD) =  -962.015526555     A.U. after   14 cycles
 SCF Done:  E(RwB97XD) =  -962.066237246     A.U. after   13 cycles
 SCF Done:  E(RwB97XD) =  -962.066782350     A.U. after   12 cycles
 SCF Done:  E(RwB97XD) =  -962.062558707     A.U. after   13 cycles
 SCF Done:  E(RwB97XD) =  -962.067152717     A.U. after   12 cycles
 SCF Done:  E(RwB97XD) =  -962.067174363     A.U. after   12 cycles
 SCF Done:  E(RwB97XD) =  -962.067200588     A.U. after   11 cycles
 SCF Done:  E(RwB97XD) =  -962.067201007     A.U. after    9 cycles
 SCF Done:  E(RwB97XD) =  -962.067201044     A.U. after    7 cycles
 SCF Done:  E(RwB97XD) =  -962.067201045     A.U. after    7 cycles
 SCF Done:  E(RwB97XD) =  -962.067201045     A.U. after    5 cycles
 Optimization completed.
    -- Stationary point found.
 Normal termination of Gaussian 16 at Fri May 23 05:28:17 2025.

 ----------------------------------------------------------------------
 #P Geom=AllCheck Guess=TCheck SCRF=Check GenChk RwB97XD/6-311++G(d,p)
 Freq
 ----------------------------------------------------------------------

 Structure from the checkpoint file:  "/tmp/Gau-40369.chk"
 ------------------------------
 Gaussian input prepared by ASE
 ------------------------------
 Charge =  0 Multiplicity = 1

                          Input orientation:
 ---------------------------------------------------------------------
 Center     Atomic      Atomic             Coordinates (Angstroms)
 Number     Number       Type             X           Y           Z
 ---------------------------------------------------------------------
      1          6           0       -0.599626   -0.233232   -1.116496
      2         16           0        1.892464   -0.124191   -0.186474
      3          8           0        0.160190    0.086479   -0.050356
      4          8           0        2.244811   -0.519181    1.156362
      5          8           0        2.230172    1.442393   -0.378793
      6          9           0       -1.866371    0.005352   -0.818868
      7          9           0       -0.274004    0.480483   -2.204494
      8          9           0       -0.474917   -1.526457   -1.450583
      9          1           0        2.025473    1.952041    0.419403
 ---------------------------------------------------------------------

 SCF Done:  E(RwB97XD) =  -962.067201045     A.U. after    1 cycles

 Isotropic polarizability for W=    0.000000       45.30 Bohr**3.
 End of Minotr F.D. properties file   721 does not exist.

                      1                      2                      3
                      A                      A                      A
 Frequencies --     32.2274                55.8033               149.8591
 Red. masses --     11.8333                14.1762                17.4051
 Frc consts  --      0.0072                 0.0260                 0.2303
 IR Inten    --      1.0436                 0.4310                 1.2655

                      4                      5                      6
                      A                      A                      A
 Frequencies --    233.1584               300.9611               338.1690
 Red. masses --      1.9388                15.1713                 3.7227
 Frc consts  --      0.0621                 0.8096                 0.2508
 IR Inten    --     38.2502                11.4126                11.7290

                      7                      8                      9
                      A                      A                      A
 Frequencies --    428.7258               463.7257               484.9341
 Red. masses --      8.6672                10.2973                 3.7144
 Frc consts  --      0.9386                 1.3047                 0.5146
 IR Inten    --     45.1137                13.5731               140.9114

                     10                     11                     12
                      A                      A                      A
 Frequencies --    531.1921               625.5874               675.9845
 Red. masses --     14.6224                17.1450                15.5859
 Frc consts  --      2.4309                 3.9533                 4.1962
 IR Inten    --    111.0471                 5.9209                 0.1596

                     13                     14                     15
                      A                      A                      A
 Frequencies --    714.2542               805.0195               938.6019
 Red. masses --     17.3054                14.2375                16.9677
 Frc consts  --      5.2016                 5.4362                 8.8072
 IR Inten    --    150.3670               208.1438                19.4107

                     16                     17                     18
                      A                      A                      A
 Frequencies --   1105.7575              1182.1009              1236.7034
 Red. masses --      1.3125                12.5518                 9.2565
 Frc consts  --      0.9456                10.3340                 8.3412
 IR Inten    --    105.4670               374.1022               556.7216

                     19                     20                     21
                      A                      A                      A
 Frequencies --   1267.3327              1309.4642              3786.5885
 Red. masses --     11.4617                14.1468                 1.0654
 Frc consts  --     10.8463                14.2921                 9.0004
 IR Inten    --    670.7746               175.9330               121.0716

 - Thermochemistry -
 -------------------
 Temperature   298.150 Kelvin.  Pressure   1.00000 Atm.
 Atom     1 has atomic number  6 and mass  12.00000

 Molecular mass:   149.95985 amu.
 Principal axes and moments of inertia in atomic units:
                           1         2         3
     Eigenvalues --   525.414371560.300951714.00846
           X            0.88448   0.10899  -0.45367
           Y            0.14508   0.85988   0.48944
           Z            0.44344  -0.49872   0.74474
 This molecule is an asymmetric top.
 Rotational symmetry number  1.
 Warning -- assumption of classical behavior for rotation
           may cause significant error
 Rotational temperatures (Kelvin)      0.16485     0.05551     0.05053
 Rotational constants (GHZ):           3.43489     1.15666     1.05294
 Zero-point vibrational energy      99685.7 (Joules/Mol)
                                   23.82546 (Kcal/Mol)
 Warning -- explicit consideration of  10 degrees of freedom as
           vibrations may cause significant error
 Vibrational temperatures:     46.37    80.29   215.61   335.46   433.02
          (Kelvin)            486.55   616.84   667.20   697.71   764.27
                              900.08   972.59  1027.65  1158.24  1350.44
                             1590.94  1700.78  1779.34  1823.41  1884.03
                             5448.06

 Zero-point correction=                           0.037968 (Hartree/Particle)
 Thermal correction to Energy=                    0.045996
 Thermal correction to Enthalpy=                  0.046941
 Thermal correction to Gibbs Free Energy=         0.003437
 Sum of electronic and zero-point Energies=           -962.029233
 Sum of electronic and thermal Energies=              -962.021205
 Sum of electronic and thermal Enthalpies=            -962.020260
 Sum of electronic and thermal Free Energies=         -962.063764

                     E (Thermal)             CV                S
                      KCal/Mol        Cal/Mol-Kelvin    Cal/Mol-Kelvin
 Total                   28.863             26.817             91.560
 Electronic               0.000              0.000              0.000
 Translational            0.889              2.981             40.926
 Rotational               0.889              2.981             28.732
 Vibrational             27.086             20.856             21.903
 Vibration     1          0.594              1.983              5.687
 Vibration     2          0.596              1.975              4.600
 Vibration     3          0.618              1.903              2.674
 Vibration     4          0.654              1.790              1.854
 Vibration     5          0.693              1.672              1.412
 Vibration     6          0.718              1.599              1.221
 Vibration     7          0.790              1.408              0.863
 Vibration     8          0.821              1.331              0.755
 Vibration     9          0.841              1.283              0.697
 Vibration    10          0.886              1.181              0.585

 Optimization completed.
    -- Stationary point found.
 Normal termination of Gaussian 16 at Fri May 23 05:28:48 2025.
