 Gaussian 16, Revision C.01,
 Gaussian 16:  ES64L-G16RevC.01  3-Jul-2019

 ----------------------------------------------------------------------
 #P wb97xd/6-311++G(d,p) Symm(None) scf(xqc) pop(None) freq opt(CalcFC,
  Tight)
 ----------------------------------------------------------------------

 ------------------------------
 Gaussian input prepared by ASE
 ------------------------------
 Symbolic Z-matrix:
 Charge =  0 Multiplicity = 1

 SCF Done:  E(RwB97XD) =  -962.053777256     A.U. after   14 cycles
 SCF Done:  E(RwB97XD) =  -962.056521967     A.U. after   15 cycles
 SCF Done:  E(RwB97XD) =  -962.059209743     A.U. after   15 cycles
 SCF Done:  E(RwB97XD) =  -962.035494234     A.U. after   15 cycles
 SCF Done:  E(RwB97XD) =  -962.063571392     A.U. after   13 cycles
 SCF Done:  E(RwB97XD) =  -962.063512884     A.U. after   15 cycles
 SCF Done:  E(RwB97XD) =  -962.064327485     A.U. after   14 cycles
 SCF Done:  E(RwB97XD) =  -962.064438102     A.U. after   13 cycles
 SCF Done:  E(RwB97XD) =  -962.063230659     A.U. after   15 cycles
 SCF Done:  E(RwB97XD) =  -962.061919261     A.U. after   13 cycles
 SCF Done:  E(RwB97XD) =  -962.066486257     A.U. after   12 cycles
 SCF Done:  E(RwB97XD) =  -962.066728800     A.U. after   12 cycles
 SCF Done:  E(RwB97XD) =  -962.066763643     A.U. after   11 cycles
 SCF Done:  E(RwB97XD) =  -962.066774658     A.U. after   11 cycles
 SCF Done:  E(RwB97XD) =  -962.066797972     A.U. after   11 cycles
 SCF Done:  E(RwB97XD) =  -962.066798925     A.U. after   10 cycles
 SCF Done:  E(RwB97XD) =  -962.066799179     A.U. after    8 cycles
 SCF Done:  E(RwB97XD) =  -962.066799197     A.U. after    7 cycles
 SCF Done:  E(RwB97XD) =  -962.066799199     A.U. after    6 cycles
 Optimization completed.
    -- Stationary point found.
 Normal termination of Gaussian 16 at Fri May 23 05:29:43 2025.

 ----------------------------------------------------------------------
 #P Geom=AllCheck Guess=TCheck SCRF=Check GenChk RwB97XD/6-311++G(d,p)
 Freq
 ----------------------------------------------------------------------

 Structure from the checkpoint file:  "/tmp/Gau-2598.chk"
 ------------------------------
 Gaussian input prepared by ASE
 ------------------------------
 Charge =  0 Multiplicity = 1

                          Input orientation:
 ---------------------------------------------------------------------
 Center     Atomic      Atomic             Coordinates (Angstroms)
 Number     Number       Type             X           Y           Z
 ---------------------------------------------------------------------
      1          6           0       -0.766913    1.031871    0.511052
      2         16           0        1.732717   -0.008255    0.281484
      3          8           0        0.042410    0.137416   -0.095711
      4          8           0        1.890074    0.282475    1.690741
      5          8           0        2.267835    1.263582   -0.562849
      6          9           0       -1.883052    1.135870   -0.194697
      7          9           0       -1.083276    0.678882    1.752599
      8          9           0       -0.198673    2.256892    0.576123
      9          1           0        2.084769    2.099906   -0.108838
 ---------------------------------------------------------------------

 SCF Done:  E(RwB97XD) =  -962.066799199     A.U. after    1 cycles

 Isotropic polarizability for W=    0.000000       44.28 Bohr**3.
 End of Minotr F.D. properties file   721 does not exist.

                      1                      2                      3
                      A                      A                      A
 Frequencies --     61.6483                95.7450               154.5366
 Red. masses --     13.9152                12.6577                10.7543
 Frc consts  --      0.0312                 0.0684                 0.1513
 IR Inten    --      0.1956                 0.6694                 1.4957

                      4                      5                      6
                      A                      A                      A
 Frequencies --    273.9259               299.3335               338.1932
 Red. masses --      3.6653                16.9176                 2.2972
 Frc consts  --      0.1620                 0.8931                 0.1548
 IR Inten    --     15.6017                11.1964                15.1355

                      7                      8                      9
                      A                      A                      A
 Frequencies --    454.7207               476.7581               502.6092
 Red. masses --     17.4115                 4.9190                 4.7996
 Frc consts  --      2.1212                 0.6588                 0.7144
 IR Inten    --      3.9525                28.9703               237.9575

                     10                     11                     12
                      A                      A                      A
 Frequencies --    513.9437               625.6714               688.6372
 Red. masses --      7.4955                16.9657                15.3695
 Frc consts  --      1.1665                 3.9131                 4.2943
 IR Inten    --     59.6921                 5.7391                30.3109

                     13                     14                     15
                      A                      A                      A
 Frequencies --    699.4054               791.9657               941.0773
 Red. masses --     15.7741                15.1872                16.7361
 Frc consts  --      4.5462                 5.6123                 8.7328
 IR Inten    --     89.0850               206.9459                59.2811

                     16                     17                     18
                      A                      A                      A
 Frequencies --   1107.4550              1168.4901              1215.4148
 Red. masses --      1.3619                 9.4216                 9.4968
 Frc consts  --      0.9841                 7.5792                 8.2656
 IR Inten    --    139.7551               372.4456               273.4531

                     19                     20                     21
                      A                      A                      A
 Frequencies --   1263.1077              1307.7006              3785.9316
 Red. masses --     11.9911                11.6077                 1.0653
 Frc consts  --     11.2718                11.6953                 8.9960
 IR Inten    --    597.8738               375.0524               115.3551

 - Thermochemistry -
 -------------------
 Temperature   298.150 Kelvin.  Pressure   1.00000 Atm.
 Atom     1 has atomic number  6 and mass  12.00000

 Molecular mass:   149.95985 amu.
 Principal axes and moments of inertia in atomic units:
                           1         2         3
     Eigenvalues --   549.459711392.548521521.26234
           X            0.97331  -0.05994   0.22153
           Y           -0.22268  -0.48005   0.84851
           Z           -0.05549   0.87519   0.48058
 This molecule is an asymmetric top.
 Rotational symmetry number  1.
 Warning -- assumption of classical behavior for rotation
           may cause significant error
 Rotational temperatures (Kelvin)      0.15763     0.06220     0.05694
 Rotational constants (GHZ):           3.28457     1.29600     1.18634
 Zero-point vibrational energy     100284.6 (Joules/Mol)
                                   23.96859 (Kcal/Mol)
 Warning -- explicit consideration of  10 degrees of freedom as
           vibrations may cause significant error
 Vibrational temperatures:     88.70   137.76   222.34   394.12   430.67
          (Kelvin)            486.58   654.24   685.95   723.14   739.45
                              900.20   990.80  1006.29  1139.46  1354.00
                             1593.38  1681.20  1748.71  1817.33  1881.49
                             5447.11

 Zero-point correction=                           0.038196 (Hartree/Particle)
 Thermal correction to Energy=                    0.045991
 Thermal correction to Enthalpy=                  0.046936
 Thermal correction to Gibbs Free Energy=         0.004844
 Sum of electronic and zero-point Energies=           -962.028603
 Sum of electronic and thermal Energies=              -962.020808
 Sum of electronic and thermal Enthalpies=            -962.019864
 Sum of electronic and thermal Free Energies=         -962.061955

                     E (Thermal)             CV                S
                      KCal/Mol        Cal/Mol-Kelvin    Cal/Mol-Kelvin
 Total                   28.860             26.671             88.589
 Electronic               0.000              0.000              0.000
 Translational            0.889              2.981             40.926
 Rotational               0.889              2.981             28.544
 Vibrational             27.083             20.710             19.119
 Vibration     1          0.597              1.973              4.404
 Vibration     2          0.603              1.952              3.539
 Vibration     3          0.620              1.898              2.616
 Vibration     4          0.676              1.721              1.571
 Vibration     5          0.692              1.675              1.421
 Vibration     6          0.718              1.599              1.221
 Vibration     7          0.813              1.350              0.782
 Vibration     8          0.833              1.302              0.719
 Vibration     9          0.858              1.244              0.652
 Vibration    10          0.869              1.219              0.624

 Optimization completed.
    -- Stationary point found.
 Normal termination of Gaussian 16 at Fri May 23 05:30:16 2025.
