 Gaussian 16, Revision C.01,
 Gaussian 16:  ES64L-G16RevC.01  3-Jul-2019

 ----------------------------------------------------------------------
 #P wb97xd/6-311++G(d,p) Symm(None) scf(xqc) pop(None) freq opt(CalcFC,
  Tight)
 ----------------------------------------------------------------------

 ------------------------------
 Gaussian input prepared by ASE
 ------------------------------
 Symbolic Z-matrix:
 Charge =  0 Multiplicity = 1

 SCF Done:  E(RwB97XD) =  -962.067200925     A.U. after   14 cycles
 SCF Done:  E(RwB97XD) =  -962.067200959     A.U. after    8 cycles
 Optimization completed.
    -- Stationary point found.
 Normal termination of Gaussian 16 at Fri May 23 05:27:00 2025.

 ----------------------------------------------------------------------
 #P Geom=AllCheck Guess=TCheck SCRF=Check GenChk RwB97XD/6-311++G(d,p)
 Freq
 ----------------------------------------------------------------------

 Structure from the checkpoint file:  "/tmp/Gau-96245.chk"
 ------------------------------
 Gaussian input prepared by ASE
 ------------------------------
 Charge =  0 Multiplicity = 1

                          Input orientation:
 ---------------------------------------------------------------------
 Center     Atomic      Atomic             Coordinates (Angstroms)
 Number     Number       Type             X           Y           Z
 ---------------------------------------------------------------------
      1          6           0       -0.630752   -0.278621   -1.157793
      2         16           0        1.750615    0.000168   -0.000168
      3          8           0        0.000271   -0.001042    0.000213
      4          8           0        2.042862   -0.500616    1.321639
      5          8           0        1.910374    1.606301   -0.000062
      6          9           0       -1.936194   -0.215566   -0.952744
      7          9           0       -0.308374    0.585593   -2.131645
      8          9           0       -0.327746   -1.503945   -1.612042
      9          1           0        1.584835    1.996931    0.824685
 ---------------------------------------------------------------------

 SCF Done:  E(RwB97XD) =  -962.067200959     A.U. after    1 cycles

 Isotropic polarizability for W=    0.000000       45.30 Bohr**3.
 End of Minotr F.D. properties file   721 does not exist.

                      1                      2                      3
                      A                      A                      A
 Frequencies --     32.9061                55.9680               149.9738
 Red. masses --     11.8175                14.1360                17.4319
 Frc consts  --      0.0075                 0.0261                 0.2310
 IR Inten    --      1.0344                 0.4122                 1.2655

                      4                      5                      6
                      A                      A                      A
 Frequencies --    232.4858               301.0598               337.7596
 Red. masses --      1.9209                15.1684                 3.7363
 Frc consts  --      0.0612                 0.8100                 0.2511
 IR Inten    --     38.7121                11.5521                11.9661

                      7                      8                      9
                      A                      A                      A
 Frequencies --    428.6076               463.8161               484.7320
 Red. masses --      8.7700                10.3361                 3.7423
 Frc consts  --      0.9492                 1.3101                 0.5181
 IR Inten    --     45.0889                13.4387               140.3941

                     10                     11                     12
                      A                      A                      A
 Frequencies --    531.3046               625.6448               675.9883
 Red. masses --     14.6899                17.1463                15.5895
 Frc consts  --      2.4432                 3.9544                 4.1972
 IR Inten    --    110.3777                 5.8805                 0.1531

                     13                     14                     15
                      A                      A                      A
 Frequencies --    714.3586               804.2081               938.6174
 Red. masses --     17.3146                14.2438                16.9734
 Frc consts  --      5.2059                 5.4276                 8.8104
 IR Inten    --    150.7387               207.7582                19.4624

                     16                     17                     18
                      A                      A                      A
 Frequencies --   1105.9188              1182.3448              1236.6354
 Red. masses --      1.3120                12.5557                 9.2559
 Frc consts  --      0.9454                10.3414                 8.3398
 IR Inten    --    105.7853               374.1049               557.5771

                     19                     20                     21
                      A                      A                      A
 Frequencies --   1267.4842              1310.0321              3785.7765
 Red. masses --     11.4801                14.1581                 1.0654
 Frc consts  --     10.8663                14.3159                 8.9966
 IR Inten    --    674.5621               171.7358               121.0420

 - Thermochemistry -
 -------------------
 Temperature   298.150 Kelvin.  Pressure   1.00000 Atm.
 Atom     1 has atomic number  6 and mass  12.00000

 Molecular mass:   149.95985 amu.
 Principal axes and moments of inertia in atomic units:
                           1         2         3
     Eigenvalues --   525.368751560.372641713.97043
           X            0.82351   0.04361  -0.56563
           Y            0.19120   0.91737   0.34910
           Z            0.53412  -0.39563   0.74713
 This molecule is an asymmetric top.
 Rotational symmetry number  1.
 Warning -- assumption of classical behavior for rotation
           may cause significant error
 Rotational temperatures (Kelvin)      0.16486     0.05551     0.05053
 Rotational constants (GHZ):           3.43519     1.15661     1.05296
 Zero-point vibrational energy      99682.6 (Joules/Mol)
                                   23.82470 (Kcal/Mol)
 Warning -- explicit consideration of  10 degrees of freedom as
           vibrations may cause significant error
 Vibrational temperatures:     47.34    80.53   215.78   334.50   433.16
          (Kelvin)            485.96   616.67   667.33   697.42   764.43
                              900.16   972.60  1027.80  1157.08  1350.46
                             1591.17  1701.13  1779.24  1823.63  1884.84
                             5446.89

 Zero-point correction=                           0.037967 (Hartree/Particle)
 Thermal correction to Energy=                    0.045995
 Thermal correction to Enthalpy=                  0.046939
 Thermal correction to Gibbs Free Energy=         0.003455
 Sum of electronic and zero-point Energies=           -962.029234
 Sum of electronic and thermal Energies=              -962.021206
 Sum of electronic and thermal Enthalpies=            -962.020262
 Sum of electronic and thermal Free Energies=         -962.063746

                     E (Thermal)             CV                S
                      KCal/Mol        Cal/Mol-Kelvin    Cal/Mol-Kelvin
 Total                   28.862             26.819             91.519
 Electronic               0.000              0.000              0.000
 Translational            0.889              2.981             40.926
 Rotational               0.889              2.981             28.731
 Vibrational             27.085             20.858             21.861
 Vibration     1          0.594              1.983              5.646
 Vibration     2          0.596              1.975              4.595
 Vibration     3          0.618              1.903              2.673
 Vibration     4          0.653              1.791              1.860
 Vibration     5          0.693              1.672              1.411
 Vibration     6          0.718              1.600              1.223
 Vibration     7          0.790              1.408              0.863
 Vibration     8          0.821              1.330              0.755
 Vibration     9          0.841              1.284              0.697
 Vibration    10          0.886              1.181              0.584

 Optimization completed.
    -- Stationary point found.
 Normal termination of Gaussian 16 at Fri May 23 05:27:39 2025.
