 Gaussian 16, Revision C.01,
 Gaussian 16:  ES64L-G16RevC.01  3-Jul-2019

 ----------------------------------------------------------------------
 #P wb97xd/6-311++G(d,p) Symm(None) scf(xqc) pop(None) freq opt(CalcFC,
  Tight)
 ----------------------------------------------------------------------

 ------------------------------
 Gaussian input prepared by ASE
 ------------------------------
 Symbolic Z-matrix:
 Charge =  0 Multiplicity = 1

 SCF Done:  E(RwB97XD) =  -962.029468013     A.U. after   14 cycles
 SCF Done:  E(RwB97XD) =  -962.032509106     A.U. after   14 cycles
 SCF Done:  E(RwB97XD) =  -961.980977440     A.U. after   16 cycles
 SCF Done:  E(RwB97XD) =  -962.033125245     A.U. after   12 cycles
 SCF Done:  E(RwB97XD) =  -962.033309914     A.U. after   11 cycles
 SCF Done:  E(RwB97XD) =  -962.033317540     A.U. after   10 cycles
 SCF Done:  E(RwB97XD) =  -962.033318423     A.U. after    9 cycles
 SCF Done:  E(RwB97XD) =  -962.033318463     A.U. after    7 cycles
 SCF Done:  E(RwB97XD) =  -962.033318464     A.U. after    6 cycles
 Optimization completed.
    -- Stationary point found.
 Normal termination of Gaussian 16 at Fri May 23 04:52:19 2025.

 ----------------------------------------------------------------------
 #P Geom=AllCheck Guess=TCheck SCRF=Check GenChk RwB97XD/6-311++G(d,p)
 Freq
 ----------------------------------------------------------------------

 Structure from the checkpoint file:  "/tmp/Gau-52227.chk"
 ------------------------------
 Gaussian input prepared by ASE
 ------------------------------
 Charge =  0 Multiplicity = 1

                          Input orientation:
 ---------------------------------------------------------------------
 Center     Atomic      Atomic             Coordinates (Angstroms)
 Number     Number       Type             X           Y           Z
 ---------------------------------------------------------------------
      1          6           0        0.064476    0.046589   -0.002608
      2          9           0       -0.410392    0.625265   -1.088870
      3          9           0       -0.280815    0.758754    1.064016
      4         16           0        1.928851   -0.060037   -0.087364
      5          8           0        2.372367   -0.618354    1.159188
      6          8           0        2.272302   -0.590767   -1.366967
      7          8           0        2.271973    1.506609   -0.114265
      8          9           0       -0.425079   -1.175149    0.105091
      9          1           0        2.410591    1.832910    0.784475
 ---------------------------------------------------------------------

 SCF Done:  E(RwB97XD) =  -962.033318464     A.U. after    1 cycles

 Isotropic polarizability for W=    0.000000       43.29 Bohr**3.
 End of Minotr F.D. properties file   721 does not exist.

                      1                      2                      3
                      A                      A                      A
 Frequencies --     55.7371               185.4491               194.3618
 Red. masses --     13.5683                 6.7356                16.3282
 Frc consts  --      0.0248                 0.1365                 0.3634
 IR Inten    --      1.2805                10.4861                 3.8446

                      4                      5                      6
                      A                      A                      A
 Frequencies --    299.2945               309.4772               332.7409
 Red. masses --     11.6479                 2.6596                14.0583
 Frc consts  --      0.6147                 0.1501                 0.9171
 IR Inten    --      0.6661                40.5492                 1.6333

                      7                      8                      9
                      A                      A                      A
 Frequencies --    361.7444               455.3994               488.5574
 Red. masses --      2.3066                 4.3834                14.5036
 Frc consts  --      0.1778                 0.5356                 2.0397
 IR Inten    --     48.0640                32.5483                23.7697

                     10                     11                     12
                      A                      A                      A
 Frequencies --    565.0067               567.6926               610.1263
 Red. masses --     16.9518                15.7970                20.3602
 Frc consts  --      3.1884                 2.9995                 4.4655
 IR Inten    --      0.5217                 1.1809               157.1194

                     13                     14                     15
                      A                      A                      A
 Frequencies --    773.7169               836.5892              1125.9363
 Red. masses --     17.2096                18.3266                 1.1934
 Frc consts  --      6.0699                 7.5571                 0.8914
 IR Inten    --     22.5946               215.3656                81.9213

                     16                     17                     18
                      A                      A                      A
 Frequencies --   1145.2639              1229.9443              1251.3239
 Red. masses --     13.9856                13.4521                13.9774
 Frc consts  --     10.8080                11.9898                12.8948
 IR Inten    --    308.6268               149.3003               105.2223

                     19                     20                     21
                      A                      A                      A
 Frequencies --   1258.4512              1444.8585              3835.0706
 Red. masses --     13.7950                14.3459                 1.0663
 Frc consts  --     12.8720                17.6453                 9.2402
 IR Inten    --    330.1298               309.6257               161.0961

 - Thermochemistry -
 -------------------
 Temperature   298.150 Kelvin.  Pressure   1.00000 Atm.
 Atom     1 has atomic number  6 and mass  12.00000

 Molecular mass:   149.95985 amu.
 Principal axes and moments of inertia in atomic units:
                           1         2         3
     Eigenvalues --   684.928831159.491151165.65840
           X            0.99906   0.02815  -0.03294
           Y            0.01236   0.54352   0.83931
           Z           -0.04153   0.83893  -0.54266
 This molecule is an asymmetric top.
 Rotational symmetry number  1.
 Warning -- assumption of classical behavior for rotation
           may cause significant error
 Rotational temperatures (Kelvin)      0.12646     0.07470     0.07430
 Rotational constants (GHZ):           2.63493     1.55649     1.54826
 Zero-point vibrational energy     103636.9 (Joules/Mol)
                                   24.76982 (Kcal/Mol)
 Warning -- explicit consideration of  12 degrees of freedom as
           vibrations may cause significant error
 Vibrational temperatures:     80.19   266.82   279.64   430.62   445.27
          (Kelvin)            478.74   520.47   655.22   702.93   812.92
                              816.78   877.84  1113.21  1203.67  1619.97
                             1647.78  1769.62  1800.38  1810.63  2078.83
                             5517.81

 Zero-point correction=                           0.039473 (Hartree/Particle)
 Thermal correction to Energy=                    0.047092
 Thermal correction to Enthalpy=                  0.048037
 Thermal correction to Gibbs Free Energy=         0.006696
 Sum of electronic and zero-point Energies=           -961.993845
 Sum of electronic and thermal Energies=              -961.986226
 Sum of electronic and thermal Enthalpies=            -961.985282
 Sum of electronic and thermal Free Energies=         -962.026622

                     E (Thermal)             CV                S
                      KCal/Mol        Cal/Mol-Kelvin    Cal/Mol-Kelvin
 Total                   29.551             26.389             87.008
 Electronic               0.000              0.000              0.000
 Translational            0.889              2.981             40.926
 Rotational               0.889              2.981             28.317
 Vibrational             27.773             20.427             17.765
 Vibration     1          0.596              1.975              4.603
 Vibration     2          0.632              1.860              2.273
 Vibration     3          0.635              1.848              2.186
 Vibration     4          0.692              1.675              1.421
 Vibration     5          0.699              1.656              1.365
 Vibration     6          0.715              1.610              1.247
 Vibration     7          0.736              1.551              1.115
 Vibration     8          0.814              1.349              0.780
 Vibration     9          0.844              1.275              0.687
 Vibration    10          0.921              1.107              0.514
 Vibration    11          0.924              1.101              0.509
 Vibration    12          0.969              1.010              0.433

 Optimization completed.
    -- Stationary point found.
 Normal termination of Gaussian 16 at Fri May 23 04:52:51 2025.
