 Gaussian 16, Revision C.01,
 Gaussian 16:  ES64L-G16RevC.01  3-Jul-2019

 ----------------------------------------------------------------------
 #P wb97xd/6-311++G(d,p) Symm(None) scf(xqc) pop(None) freq opt(CalcFC,
  Tight)
 ----------------------------------------------------------------------

 ------------------------------
 Gaussian input prepared by ASE
 ------------------------------
 Symbolic Z-matrix:
 Charge =  0 Multiplicity = 1

 SCF Done:  E(RwB97XD) =  -962.060997344     A.U. after   14 cycles
 SCF Done:  E(RwB97XD) =  -962.063022906     A.U. after   15 cycles
 SCF Done:  E(RwB97XD) =  -962.043118173     A.U. after   15 cycles
 SCF Done:  E(RwB97XD) =  -962.063143656     A.U. after   13 cycles
 SCF Done:  E(RwB97XD) =  -962.063074890     A.U. after   13 cycles
 SCF Done:  E(RwB97XD) =  -962.063458963     A.U. after   12 cycles
 SCF Done:  E(RwB97XD) =  -962.063462094     A.U. after   11 cycles
 SCF Done:  E(RwB97XD) =  -962.063463316     A.U. after   10 cycles
 SCF Done:  E(RwB97XD) =  -962.063463443     A.U. after    9 cycles
 SCF Done:  E(RwB97XD) =  -962.063463447     A.U. after    7 cycles
 SCF Done:  E(RwB97XD) =  -962.063463447     A.U. after    5 cycles
 SCF Done:  E(RwB97XD) =  -962.063463447     A.U. after    5 cycles
 Optimization completed.
    -- Stationary point found.
 Normal termination of Gaussian 16 at Fri May 23 05:27:58 2025.

 ----------------------------------------------------------------------
 #P Geom=AllCheck Guess=TCheck SCRF=Check GenChk RwB97XD/6-311++G(d,p)
 Freq
 ----------------------------------------------------------------------

 Structure from the checkpoint file:  "/tmp/Gau-40353.chk"
 ------------------------------
 Gaussian input prepared by ASE
 ------------------------------
 Charge =  0 Multiplicity = 1

                          Input orientation:
 ---------------------------------------------------------------------
 Center     Atomic      Atomic             Coordinates (Angstroms)
 Number     Number       Type             X           Y           Z
 ---------------------------------------------------------------------
      1          6           0       -0.633566   -0.291003   -1.132595
      2         16           0        1.738022   -0.029430    0.037772
      3          8           0       -0.026362   -0.170572    0.052985
      4          8           0        2.097408   -0.362455    1.385419
      5          8           0        1.785358    1.593921   -0.013372
      6          9           0       -1.941687   -0.219988   -0.974338
      7          9           0       -0.256857    0.704387   -1.984131
      8          9           0       -0.337508   -1.439041   -1.755378
      9          1           0        1.492411    1.920288   -0.875428
 ---------------------------------------------------------------------

 SCF Done:  E(RwB97XD) =  -962.063463447     A.U. after    1 cycles

 Isotropic polarizability for W=    0.000000       45.56 Bohr**3.
 End of Minotr F.D. properties file   721 does not exist.

                      1                      2                      3
                      A                      A                      A
 Frequencies --     52.6941                82.6371               156.7938
 Red. masses --     11.6977                13.5939                14.9020
 Frc consts  --      0.0191                 0.0547                 0.2159
 IR Inten    --      3.7796                 2.4550                 5.0186

                      4                      5                      6
                      A                      A                      A
 Frequencies --    260.7850               281.5317               378.4673
 Red. masses --      4.0387                 8.6615                 1.4637
 Frc consts  --      0.1618                 0.4045                 0.1235
 IR Inten    --     22.3666                20.4608                97.0716

                      7                      8                      9
                      A                      A                      A
 Frequencies --    401.4661               451.3319               482.8684
 Red. masses --     17.4398                11.1004                12.0726
 Frc consts  --      1.6561                 1.3322                 1.6585
 IR Inten    --     61.1412                23.1854                13.1285

                     10                     11                     12
                      A                      A                      A
 Frequencies --    527.9544               626.6366               667.7741
 Red. masses --     16.5484                17.0731                16.2895
 Frc consts  --      2.7177                 3.9500                 4.2797
 IR Inten    --     90.3877                 5.2421                 4.2165

                     13                     14                     15
                      A                      A                      A
 Frequencies --    702.8286               792.8941               928.6495
 Red. masses --     17.2787                12.3166                17.3112
 Frc consts  --      5.0287                 4.5622                 8.7959
 IR Inten    --    133.2982               116.3010                25.9093

                     16                     17                     18
                      A                      A                      A
 Frequencies --   1088.4981              1145.4875              1233.9464
 Red. masses --      1.3354                 5.4189                12.3566
 Frc consts  --      0.9322                 4.1893                11.0851
 IR Inten    --    329.7106               196.4990               524.1083

                     19                     20                     21
                      A                      A                      A
 Frequencies --   1285.1857              1337.9754              3822.3527
 Red. masses --     14.0594                14.1521                 1.0661
 Frc consts  --     13.6820                14.9269                 9.1775
 IR Inten    --    816.8886               102.4596               133.0166

 - Thermochemistry -
 -------------------
 Temperature   298.150 Kelvin.  Pressure   1.00000 Atm.
 Atom     1 has atomic number  6 and mass  12.00000

 Molecular mass:   149.95985 amu.
 Principal axes and moments of inertia in atomic units:
                           1         2         3
     Eigenvalues --   517.202011546.933981698.21415
           X            0.81965   0.06530  -0.56913
           Y            0.18378   0.91099   0.36921
           Z            0.54258  -0.40722   0.73470
 This molecule is an asymmetric top.
 Rotational symmetry number  1.
 Warning -- assumption of classical behavior for rotation
           may cause significant error
 Rotational temperatures (Kelvin)      0.16747     0.05599     0.05100
 Rotational constants (GHZ):           3.48943     1.16666     1.06273
 Zero-point vibrational energy      99940.6 (Joules/Mol)
                                   23.88637 (Kcal/Mol)
 Warning -- explicit consideration of  10 degrees of freedom as
           vibrations may cause significant error
 Vibrational temperatures:     75.81   118.90   225.59   375.21   405.06
          (Kelvin)            544.53   577.62   649.37   694.74   759.61
                              901.59   960.78  1011.21  1140.80  1336.12
                             1566.11  1648.10  1775.37  1849.10  1925.05
                             5499.51

 Zero-point correction=                           0.038065 (Hartree/Particle)
 Thermal correction to Energy=                    0.045981
 Thermal correction to Enthalpy=                  0.046925
 Thermal correction to Gibbs Free Energy=         0.004343
 Sum of electronic and zero-point Energies=           -962.025398
 Sum of electronic and thermal Energies=              -962.017483
 Sum of electronic and thermal Enthalpies=            -962.016538
 Sum of electronic and thermal Free Energies=         -962.059120

                     E (Thermal)             CV                S
                      KCal/Mol        Cal/Mol-Kelvin    Cal/Mol-Kelvin
 Total                   28.853             26.883             89.621
 Electronic               0.000              0.000              0.000
 Translational            0.889              2.981             40.926
 Rotational               0.889              2.981             28.698
 Vibrational             27.076             20.921             19.997
 Vibration     1          0.596              1.977              4.714
 Vibration     2          0.600              1.961              3.827
 Vibration     3          0.620              1.895              2.588
 Vibration     4          0.669              1.744              1.657
 Vibration     5          0.681              1.708              1.524
 Vibration     6          0.749              1.516              1.045
 Vibration     7          0.767              1.467              0.957
 Vibration     8          0.810              1.358              0.792
 Vibration     9          0.839              1.288              0.702
 Vibration    10          0.883              1.188              0.592

                           ! Non-Optimized Parameters !
 Normal termination of Gaussian 16 at Fri May 23 05:28:33 2025.
