 Gaussian 16, Revision C.01,
 Gaussian 16:  ES64L-G16RevC.01  3-Jul-2019

 ----------------------------------------------------------------------
 #P wb97xd/6-311++G(d,p) Symm(None) scf(xqc) pop(None) freq opt(CalcFC,
  Tight)
 ----------------------------------------------------------------------

 ------------------------------
 Gaussian input prepared by ASE
 ------------------------------
 Symbolic Z-matrix:
 Charge =  0 Multiplicity = 1

 SCF Done:  E(RwB97XD) =  -962.048030173     A.U. after   14 cycles
 SCF Done:  E(RwB97XD) =  -962.051258183     A.U. after   14 cycles
 SCF Done:  E(RwB97XD) =  -962.052379715     A.U. after   14 cycles
 SCF Done:  E(RwB97XD) =  -962.057667848     A.U. after   15 cycles
 SCF Done:  E(RwB97XD) =  -962.060527188     A.U. after   13 cycles
 SCF Done:  E(RwB97XD) =  -962.059848591     A.U. after   14 cycles
 SCF Done:  E(RwB97XD) =  -962.060807027     A.U. after   13 cycles
 SCF Done:  E(RwB97XD) =  -962.061015762     A.U. after   12 cycles
 SCF Done:  E(RwB97XD) =  -962.061097410     A.U. after   12 cycles
 SCF Done:  E(RwB97XD) =  -962.061120451     A.U. after   11 cycles
 SCF Done:  E(RwB97XD) =  -962.061127078     A.U. after    9 cycles
 SCF Done:  E(RwB97XD) =  -962.061127256     A.U. after    8 cycles
 SCF Done:  E(RwB97XD) =  -962.061127382     A.U. after    8 cycles
 SCF Done:  E(RwB97XD) =  -962.061127604     A.U. after    8 cycles
 SCF Done:  E(RwB97XD) =  -962.061127930     A.U. after    9 cycles
 SCF Done:  E(RwB97XD) =  -962.061128183     A.U. after   10 cycles
 SCF Done:  E(RwB97XD) =  -962.061128264     A.U. after    9 cycles
 SCF Done:  E(RwB97XD) =  -962.061128275     A.U. after    6 cycles
 SCF Done:  E(RwB97XD) =  -962.061128275     A.U. after    5 cycles
 Optimization completed.
    -- Stationary point found.
 Normal termination of Gaussian 16 at Fri May 23 05:28:49 2025.

 ----------------------------------------------------------------------
 #P Geom=AllCheck Guess=TCheck SCRF=Check GenChk RwB97XD/6-311++G(d,p)
 Freq
 ----------------------------------------------------------------------

 Structure from the checkpoint file:  "/tmp/Gau-204376.chk"
 ------------------------------
 Gaussian input prepared by ASE
 ------------------------------
 Charge =  0 Multiplicity = 1

                          Input orientation:
 ---------------------------------------------------------------------
 Center     Atomic      Atomic             Coordinates (Angstroms)
 Number     Number       Type             X           Y           Z
 ---------------------------------------------------------------------
      1          6           0       -0.757324    1.149974    0.386719
      2         16           0        1.712247   -0.024018    0.051317
      3          8           0       -0.001534    0.173774   -0.169960
      4          8           0        1.994567   -0.320514    1.428222
      5          8           0        2.143899    1.547349   -0.103513
      6          9           0       -2.028998    0.778782    0.324603
      7          9           0       -0.442812    1.395476    1.654844
      8          9           0       -0.633439    2.303537   -0.292611
      9          1           0        1.930612    1.891186   -0.980866
 ---------------------------------------------------------------------

 SCF Done:  E(RwB97XD) =  -962.061128275     A.U. after    1 cycles

 Isotropic polarizability for W=    0.000000       44.90 Bohr**3.
 End of Minotr F.D. properties file   721 does not exist.

                      1                      2                      3
                      A                      A                      A
 Frequencies --     38.9074                84.8469               144.2722
 Red. masses --     11.5559                12.4500                14.6161
 Frc consts  --      0.0103                 0.0528                 0.1792
 IR Inten    --      3.6688                 2.0923                 0.0762

                      4                      5                      6
                      A                      A                      A
 Frequencies --    260.2796               287.2916               365.1967
 Red. masses --      4.4614                11.0237                 1.3922
 Frc consts  --      0.1781                 0.5361                 0.1094
 IR Inten    --     17.0867                15.9676                93.9725

                      7                      8                      9
                      A                      A                      A
 Frequencies --    428.7678               453.4011               490.3926
 Red. masses --     10.5175                11.8861                16.2656
 Frc consts  --      1.1392                 1.4396                 2.3047
 IR Inten    --     61.3650                11.4342               142.8916

                     10                     11                     12
                      A                      A                      A
 Frequencies --    513.9427               624.1444               681.8421
 Red. masses --     15.0395                17.2074                16.7871
 Frc consts  --      2.3405                 3.9495                 4.5983
 IR Inten    --     12.9469                 5.2367                30.0700

                     13                     14                     15
                      A                      A                      A
 Frequencies --    699.0683               768.4029               943.8549
 Red. masses --     16.6702                13.6184                17.5416
 Frc consts  --      4.7999                 4.7376                 9.2072
 IR Inten    --     93.4212                98.5342                72.4223

                     16                     17                     18
                      A                      A                      A
 Frequencies --   1066.9328              1184.2294              1210.7983
 Red. masses --      1.1714                12.3663                13.2445
 Frc consts  --      0.7856                10.2179                11.4401
 IR Inten    --    113.0529               589.2834               475.2835

                     19                     20                     21
                      A                      A                      A
 Frequencies --   1255.9794              1325.7531              3832.8218
 Red. masses --     12.8158                15.3133                 1.0663
 Frc consts  --     11.9113                15.8578                 9.2294
 IR Inten    --    483.5667               226.5515               126.7337

 - Thermochemistry -
 -------------------
 Temperature   298.150 Kelvin.  Pressure   1.00000 Atm.
 Atom     1 has atomic number  6 and mass  12.00000

 Molecular mass:   149.95985 amu.
 Principal axes and moments of inertia in atomic units:
                           1         2         3
     Eigenvalues --   545.561751418.395871545.62806
           X            0.94472   0.26833   0.18844
           Y           -0.32782   0.76138   0.55931
           Z            0.00661  -0.59017   0.80725
 This molecule is an asymmetric top.
 Rotational symmetry number  1.
 Warning -- assumption of classical behavior for rotation
           may cause significant error
 Rotational temperatures (Kelvin)      0.15876     0.06106     0.05604
 Rotational constants (GHZ):           3.30804     1.27238     1.16764
 Zero-point vibrational energy      99655.7 (Joules/Mol)
                                   23.81828 (Kcal/Mol)
 Warning -- explicit consideration of  10 degrees of freedom as
           vibrations may cause significant error
 Vibrational temperatures:     55.98   122.08   207.58   374.48   413.35
          (Kelvin)            525.44   616.90   652.34   705.57   739.45
                              898.00   981.02  1005.80  1105.56  1358.00
                             1535.08  1703.84  1742.07  1807.07  1907.46
                             5514.58

 Zero-point correction=                           0.037957 (Hartree/Particle)
 Thermal correction to Energy=                    0.045907
 Thermal correction to Enthalpy=                  0.046851
 Thermal correction to Gibbs Free Energy=         0.004019
 Sum of electronic and zero-point Energies=           -962.023171
 Sum of electronic and thermal Energies=              -962.015221
 Sum of electronic and thermal Enthalpies=            -962.014277
 Sum of electronic and thermal Free Energies=         -962.057109

                     E (Thermal)             CV                S
                      KCal/Mol        Cal/Mol-Kelvin    Cal/Mol-Kelvin
 Total                   28.807             26.903             90.147
 Electronic               0.000              0.000              0.000
 Translational            0.889              2.981             40.926
 Rotational               0.889              2.981             28.571
 Vibrational             27.030             20.941             20.650
 Vibration     1          0.594              1.981              5.314
 Vibration     2          0.601              1.960              3.776
 Vibration     3          0.616              1.909              2.746
 Vibration     4          0.668              1.745              1.660
 Vibration     5          0.684              1.697              1.490
 Vibration     6          0.738              1.544              1.100
 Vibration     7          0.790              1.408              0.863
 Vibration     8          0.812              1.353              0.786
 Vibration     9          0.846              1.271              0.683
 Vibration    10          0.869              1.219              0.624

 Optimization completed.
    -- Stationary point found.
 Normal termination of Gaussian 16 at Fri May 23 05:29:22 2025.
