 Gaussian 16, Revision C.01,
 Gaussian 16:  ES64L-G16RevC.01  3-Jul-2019

 ----------------------------------------------------------------------
 #P wb97xd/6-311++G(d,p) Symm(None) scf(xqc) pop(None) freq opt(CalcFC,
  Tight)
 ----------------------------------------------------------------------

 ------------------------------
 Gaussian input prepared by ASE
 ------------------------------
 Symbolic Z-matrix:
 Charge =  0 Multiplicity = 1

 SCF Done:  E(RwB97XD) =  -962.048530531     A.U. after   15 cycles
 SCF Done:  E(RwB97XD) =  -962.056846420     A.U. after   15 cycles
 SCF Done:  E(RwB97XD) =  -962.044230876     A.U. after   14 cycles
 SCF Done:  E(RwB97XD) =  -962.058372244     A.U. after   15 cycles
 SCF Done:  E(RwB97XD) =  -962.061193006     A.U. after   15 cycles
 SCF Done:  E(RwB97XD) =  -962.039606479     A.U. after   15 cycles
 SCF Done:  E(RwB97XD) =  -962.065709950     A.U. after   13 cycles
 SCF Done:  E(RwB97XD) =  -962.066202233     A.U. after   11 cycles
 SCF Done:  E(RwB97XD) =  -962.065175936     A.U. after   14 cycles
 SCF Done:  E(RwB97XD) =  -962.057979695     A.U. after   14 cycles
 SCF Done:  E(RwB97XD) =  -962.066856667     A.U. after   13 cycles
 SCF Done:  E(RwB97XD) =  -962.066863791     A.U. after   13 cycles
 SCF Done:  E(RwB97XD) =  -962.066874895     A.U. after   11 cycles
 SCF Done:  E(RwB97XD) =  -962.066892515     A.U. after   13 cycles
 SCF Done:  E(RwB97XD) =  -962.066896157     A.U. after   11 cycles
 SCF Done:  E(RwB97XD) =  -962.066896859     A.U. after   11 cycles
 SCF Done:  E(RwB97XD) =  -962.066896872     A.U. after    9 cycles
 SCF Done:  E(RwB97XD) =  -962.066896872     A.U. after    5 cycles
 SCF Done:  E(RwB97XD) =  -962.066896872     A.U. after    5 cycles
 Optimization completed.
    -- Stationary point found.
 Normal termination of Gaussian 16 at Fri May 23 05:28:58 2025.

 ----------------------------------------------------------------------
 #P Geom=AllCheck Guess=TCheck SCRF=Check GenChk RwB97XD/6-311++G(d,p)
 Freq
 ----------------------------------------------------------------------

 Structure from the checkpoint file:  "/tmp/Gau-144976.chk"
 ------------------------------
 Gaussian input prepared by ASE
 ------------------------------
 Charge =  0 Multiplicity = 1

                          Input orientation:
 ---------------------------------------------------------------------
 Center     Atomic      Atomic             Coordinates (Angstroms)
 Number     Number       Type             X           Y           Z
 ---------------------------------------------------------------------
      1          6           0       -0.622388   -0.789156    0.824409
      2         16           0        1.911088   -0.233299    0.123162
      3          8           0        0.201541    0.139289    0.295535
      4          8           0        2.436535   -0.315514    1.465898
      5          8           0        2.189274    1.229028   -0.487446
      6          9           0       -1.865994   -0.506557    0.460943
      7          9           0       -0.322919   -2.026703    0.389672
      8          9           0       -0.571100   -0.815588    2.156150
      9          1           0        1.982156    1.931638    0.146523
 ---------------------------------------------------------------------

 SCF Done:  E(RwB97XD) =  -962.066896872     A.U. after    1 cycles

 Isotropic polarizability for W=    0.000000       45.10 Bohr**3.
 End of Minotr F.D. properties file   721 does not exist.

                      1                      2                      3
                      A                      A                      A
 Frequencies --     29.9546                72.6640               143.0056
 Red. masses --     12.9295                15.2199                11.0170
 Frc consts  --      0.0068                 0.0473                 0.1327
 IR Inten    --      0.5276                 0.1162                 0.7946

                      4                      5                      6
                      A                      A                      A
 Frequencies --    238.6655               299.4384               345.9394
 Red. masses --      1.9588                13.4058                 3.6819
 Frc consts  --      0.0657                 0.7082                 0.2596
 IR Inten    --     55.1812                 3.0024                15.8259

                      7                      8                      9
                      A                      A                      A
 Frequencies --    418.8070               462.6370               490.7932
 Red. masses --      7.9143                 6.3127                 6.3244
 Frc consts  --      0.8179                 0.7961                 0.8976
 IR Inten    --     36.8022                76.6096                66.7564

                     10                     11                     12
                      A                      A                      A
 Frequencies --    535.8356               629.4879               676.9947
 Red. masses --     13.0084                17.1325                15.9274
 Frc consts  --      2.2006                 3.9999                 4.3010
 IR Inten    --    107.5814                 8.5126                 0.6925

                     13                     14                     15
                      A                      A                      A
 Frequencies --    710.9852               815.5326               942.7535
 Red. masses --     17.3584                14.0490                17.1820
 Frc consts  --      5.1699                 5.5053                 8.9974
 IR Inten    --    128.1855               226.6605                25.4410

                     16                     17                     18
                      A                      A                      A
 Frequencies --   1109.5613              1193.2425              1223.5457
 Red. masses --      1.3540                11.0566                 7.4300
 Frc consts  --      0.9821                 9.2753                 6.5536
 IR Inten    --    160.1909               373.6594               261.9734

                     19                     20                     21
                      A                      A                      A
 Frequencies --   1264.2635              1310.8017              3788.6008
 Red. masses --     11.9916                15.5341                 1.0654
 Frc consts  --     11.2928                15.7257                 9.0096
 IR Inten    --    712.5395               339.6049               118.8671

 - Thermochemistry -
 -------------------
 Temperature   298.150 Kelvin.  Pressure   1.00000 Atm.
 Atom     1 has atomic number  6 and mass  12.00000

 Molecular mass:   149.95985 amu.
 Principal axes and moments of inertia in atomic units:
                           1         2         3
     Eigenvalues --   523.229631545.619691685.61296
           X            0.90965   0.38680  -0.15143
           Y            0.36343  -0.56457   0.74107
           Z           -0.20115   0.72914   0.65413
 This molecule is an asymmetric top.
 Rotational symmetry number  1.
 Warning -- assumption of classical behavior for rotation
           may cause significant error
 Rotational temperatures (Kelvin)      0.16554     0.05604     0.05138
 Rotational constants (GHZ):           3.44923     1.16765     1.07067
 Zero-point vibrational energy      99909.2 (Joules/Mol)
                                   23.87887 (Kcal/Mol)
 Warning -- explicit consideration of  10 degrees of freedom as
           vibrations may cause significant error
 Vibrational temperatures:     43.10   104.55   205.75   343.39   430.83
          (Kelvin)            497.73   602.57   665.63   706.14   770.95
                              905.69   974.04  1022.95  1173.37  1356.41
                             1596.41  1716.81  1760.41  1818.99  1885.95
                             5450.95

 Zero-point correction=                           0.038053 (Hartree/Particle)
 Thermal correction to Energy=                    0.046046
 Thermal correction to Enthalpy=                  0.046991
 Thermal correction to Gibbs Free Energy=         0.003672
 Sum of electronic and zero-point Energies=           -962.028843
 Sum of electronic and thermal Energies=              -962.020850
 Sum of electronic and thermal Enthalpies=            -962.019906
 Sum of electronic and thermal Free Energies=         -962.063224

                     E (Thermal)             CV                S
                      KCal/Mol        Cal/Mol-Kelvin    Cal/Mol-Kelvin
 Total                   28.895             26.768             91.171
 Electronic               0.000              0.000              0.000
 Translational            0.889              2.981             40.926
 Rotational               0.889              2.981             28.701
 Vibrational             27.117             20.806             21.543
 Vibration     1          0.594              1.984              5.832
 Vibration     2          0.599              1.967              4.080
 Vibration     3          0.616              1.910              2.763
 Vibration     4          0.657              1.781              1.813
 Vibration     5          0.692              1.675              1.420
 Vibration     6          0.724              1.584              1.185
 Vibration     7          0.782              1.429              0.896
 Vibration     8          0.820              1.333              0.758
 Vibration     9          0.847              1.270              0.682
 Vibration    10          0.891              1.171              0.574

 Optimization completed on the basis of negligible forces.
    -- Stationary point found.
 Normal termination of Gaussian 16 at Fri May 23 05:29:25 2025.
