 Gaussian 16, Revision C.01,
 Gaussian 16:  ES64L-G16RevC.01  3-Jul-2019

 ----------------------------------------------------------------------
 #P wb97xd/6-311++G(d,p) Symm(None) scf(xqc) pop(None) freq opt(CalcFC,
  Tight)
 ----------------------------------------------------------------------

 ------------------------------
 Gaussian input prepared by ASE
 ------------------------------
 Symbolic Z-matrix:
 Charge =  0 Multiplicity = 2

 SCF Done:  E(UwB97XD) =  -1099.89559374     A.U. after   16 cycles
 SCF Done:  E(UwB97XD) =  -1099.90182945     A.U. after   14 cycles
 SCF Done:  E(UwB97XD) =  -1099.84649263     A.U. after   15 cycles
 SCF Done:  E(UwB97XD) =  -1099.90268078     A.U. after   13 cycles
 SCF Done:  E(UwB97XD) =  -1099.90295574     A.U. after   13 cycles
 SCF Done:  E(UwB97XD) =  -1099.90302107     A.U. after   12 cycles
 SCF Done:  E(UwB97XD) =  -1099.90302474     A.U. after   11 cycles
 SCF Done:  E(UwB97XD) =  -1099.90302488     A.U. after    9 cycles
 SCF Done:  E(UwB97XD) =  -1099.90302488     A.U. after    6 cycles
 SCF Done:  E(UwB97XD) =  -1099.90302488     A.U. after    5 cycles
 Optimization completed.
    -- Stationary point found.
 Normal termination of Gaussian 16 at Fri May 23 02:18:57 2025.

 ----------------------------------------------------------------------
 #P Geom=AllCheck Guess=TCheck SCRF=Check GenChk UwB97XD/6-311++G(d,p)
 Freq
 ----------------------------------------------------------------------

 Structure from the checkpoint file:  "/tmp/Gau-105166.chk"
 ------------------------------
 Gaussian input prepared by ASE
 ------------------------------
 Charge =  0 Multiplicity = 2

                          Input orientation:
 ---------------------------------------------------------------------
 Center     Atomic      Atomic             Coordinates (Angstroms)
 Number     Number       Type             X           Y           Z
 ---------------------------------------------------------------------
      1          6           0       -0.565753   -1.391833   -0.331488
      2          6           0       -0.058951   -0.021486    0.053787
      3          9           0       -0.503347    0.875230   -0.841483
      4          9           0       -0.474992    0.357400    1.272510
      5         16           0        1.810783    0.040609    0.022321
      6          8           0        2.310248   -0.532159    1.230607
      7          8           0        2.204067   -0.392422   -1.291367
      8          8           0        2.010743    1.626162    0.142759
      9          9           0       -0.111648   -2.380901    0.404056
     10          9           0       -1.867533   -1.457752   -0.506967
     11          1           0        1.968932    2.038845   -0.729833
 ---------------------------------------------------------------------

 SCF Done:  E(UwB97XD) =  -1099.90302488     A.U. after    1 cycles

 Isotropic polarizability for W=    0.000000       54.23 Bohr**3.
 End of Minotr F.D. properties file   721 does not exist.

                      1                      2                      3
                      A                      A                      A
 Frequencies --     42.1218                57.9966               128.2498
 Red. masses --     16.2407                13.2376                14.5315
 Frc consts  --      0.0170                 0.0262                 0.1408
 IR Inten    --      0.8246                 1.0109                 1.3758

                      4                      5                      6
                      A                      A                      A
 Frequencies --    192.0302               218.0744               234.2086
 Red. masses --      9.6057                17.7132                 7.6184
 Frc consts  --      0.2087                 0.4963                 0.2462
 IR Inten    --      8.4346                 1.0369                12.3443

                      7                      8                      9
                      A                      A                      A
 Frequencies --    288.0817               317.9604               326.3902
 Red. masses --     16.4254                 6.2326                 4.6991
 Frc consts  --      0.8032                 0.3712                 0.2949
 IR Inten    --      3.5720                10.1694                19.1140

                     10                     11                     12
                      A                      A                      A
 Frequencies --    371.5293               436.6470               479.7795
 Red. masses --      2.2568                 5.2988                 6.5257
 Frc consts  --      0.1835                 0.5952                 0.8850
 IR Inten    --     40.2791                39.3735                 7.8581

                     13                     14                     15
                      A                      A                      A
 Frequencies --    491.6799               589.8787               598.3277
 Red. masses --     13.0889                17.1495                17.9361
 Frc consts  --      1.8643                 3.5158                 3.7832
 IR Inten    --     30.7597                36.5964                84.0672

                     16                     17                     18
                      A                      A                      A
 Frequencies --    635.4083               764.3951               824.8333
 Red. masses --     16.9339                14.3882                16.8479
 Frc consts  --      4.0282                 4.9533                 6.7535
 IR Inten    --     42.7567                14.2368               246.0923

                     19                     20                     21
                      A                      A                      A
 Frequencies --   1014.8921              1127.6190              1134.2147
 Red. masses --     13.6430                 2.7953                 1.7846
 Frc consts  --      8.2794                 2.0941                 1.3526
 IR Inten    --     54.0529               257.1365                52.7677

                     22                     23                     24
                      A                      A                      A
 Frequencies --   1178.0679              1214.9199              1306.6236
 Red. masses --     13.2343                16.8373                13.3967
 Frc consts  --     10.8216                14.6426                13.4756
 IR Inten    --    190.0829                32.5319               264.1853

                     25                     26                     27
                      A                      A                      A
 Frequencies --   1377.9380              1440.0783              3835.2631
 Red. masses --     12.7938                14.2428                 1.0662
 Frc consts  --     14.3122                17.4027                 9.2405
 IR Inten    --     78.3902               288.0830               159.5131

 - Thermochemistry -
 -------------------
 Temperature   298.150 Kelvin.  Pressure   1.00000 Atm.
 Atom     1 has atomic number  6 and mass  12.00000

 Molecular mass:   180.95825 amu.
 Principal axes and moments of inertia in atomic units:
                           1         2         3
     Eigenvalues --   966.556861871.779202105.86216
           X            0.87253  -0.47244  -0.12444
           Y            0.48648   0.86361   0.13236
           Z            0.04494  -0.17603   0.98336
 This molecule is an asymmetric top.
 Rotational symmetry number  1.
 Warning -- assumption of classical behavior for rotation
           may cause significant error
 Rotational temperatures (Kelvin)      0.08961     0.04627     0.04113
 Rotational constants (GHZ):           1.86719     0.96418     0.85701
 Zero-point vibrational energy     123378.1 (Joules/Mol)
                                   29.48808 (Kcal/Mol)
 Warning -- explicit consideration of  15 degrees of freedom as
           vibrations may cause significant error
 Vibrational temperatures:     60.60    83.44   184.52   276.29   313.76
          (Kelvin)            336.97   414.49   457.47   469.60   534.55
                              628.24   690.30   707.42   848.70   860.86
                              914.21  1099.79  1186.75  1460.20  1622.39
                             1631.88  1694.98  1748.00  1879.94  1982.55
                             2071.95  5518.09

 Zero-point correction=                           0.046992 (Hartree/Particle)
 Thermal correction to Energy=                    0.056864
 Thermal correction to Enthalpy=                  0.057808
 Thermal correction to Gibbs Free Energy=         0.009945
 Sum of electronic and zero-point Energies=          -1099.856033
 Sum of electronic and thermal Energies=             -1099.846161
 Sum of electronic and thermal Enthalpies=           -1099.845217
 Sum of electronic and thermal Free Energies=        -1099.893079

                     E (Thermal)             CV                S
                      KCal/Mol        Cal/Mol-Kelvin    Cal/Mol-Kelvin
 Total                   35.683             33.741            100.735
 Electronic               0.000              0.000              1.377
 Translational            0.889              2.981             41.486
 Rotational               0.889              2.981             29.723
 Vibrational             33.905             27.780             28.149
 Vibration     1          0.595              1.980              5.157
 Vibration     2          0.596              1.974              4.524
 Vibration     3          0.611              1.925              2.972
 Vibration     4          0.634              1.851              2.208
 Vibration     5          0.646              1.814              1.975
 Vibration     6          0.654              1.789              1.846
 Vibration     7          0.685              1.696              1.485
 Vibration     8          0.704              1.639              1.321
 Vibration     9          0.710              1.623              1.278
 Vibration    10          0.743              1.531              1.073
 Vibration    11          0.797              1.390              0.837
 Vibration    12          0.836              1.295              0.711
 Vibration    13          0.847              1.268              0.679
 Vibration    14          0.947              1.053              0.467
 Vibration    15          0.956              1.035              0.453

 Optimization completed.
    -- Stationary point found.
 Normal termination of Gaussian 16 at Fri May 23 02:20:27 2025.
