 Gaussian 16, Revision C.01,
 Gaussian 16:  ES64L-G16RevC.01  3-Jul-2019

 ----------------------------------------------------------------------
 #P wb97xd/6-311++G(d,p) Symm(None) scf(xqc) pop(None) freq opt(CalcFC,
  Tight)
 ----------------------------------------------------------------------

 ------------------------------
 Gaussian input prepared by ASE
 ------------------------------
 Symbolic Z-matrix:
 Charge =  0 Multiplicity = 2

 SCF Done:  E(UwB97XD) =  -1099.89535229     A.U. after   17 cycles
 SCF Done:  E(UwB97XD) =  -1099.90162358     A.U. after   14 cycles
 SCF Done:  E(UwB97XD) =  -1099.90251253     A.U. after   13 cycles
 SCF Done:  E(UwB97XD) =  -1099.90276897     A.U. after   13 cycles
 SCF Done:  E(UwB97XD) =  -1099.90289799     A.U. after   12 cycles
 SCF Done:  E(UwB97XD) =  -1099.90301079     A.U. after   12 cycles
 SCF Done:  E(UwB97XD) =  -1099.90304010     A.U. after   12 cycles
 SCF Done:  E(UwB97XD) =  -1099.90304703     A.U. after   11 cycles
 SCF Done:  E(UwB97XD) =  -1099.90304764     A.U. after   10 cycles
 SCF Done:  E(UwB97XD) =  -1099.90304766     A.U. after    8 cycles
 SCF Done:  E(UwB97XD) =  -1099.90304766     A.U. after    6 cycles
 Optimization completed.
    -- Stationary point found.
 Normal termination of Gaussian 16 at Fri May 23 02:21:33 2025.

 ----------------------------------------------------------------------
 #P Geom=AllCheck Guess=TCheck SCRF=Check GenChk UwB97XD/6-311++G(d,p)
 Freq
 ----------------------------------------------------------------------

 Structure from the checkpoint file:  "/tmp/Gau-174703.chk"
 ------------------------------
 Gaussian input prepared by ASE
 ------------------------------
 Charge =  0 Multiplicity = 2

                          Input orientation:
 ---------------------------------------------------------------------
 Center     Atomic      Atomic             Coordinates (Angstroms)
 Number     Number       Type             X           Y           Z
 ---------------------------------------------------------------------
      1          6           0       -0.615729    0.332572    1.409561
      2          6           0       -0.050407    0.016168    0.045750
      3          9           0       -0.422373   -1.213386   -0.309762
      4          9           0       -0.481139    0.883154   -0.900407
      5         16           0        1.821223    0.052273    0.010910
      6          8           0        2.286091   -0.490456    1.249090
      7          8           0        2.213775   -0.443541   -1.278053
      8          8           0        2.079688    1.633425    0.066581
      9          9           0       -0.294811    1.511225    1.892605
     10          9           0       -1.900434    0.078740    1.536167
     11          1           0        2.086664    2.002399   -0.826394
 ---------------------------------------------------------------------

 SCF Done:  E(UwB97XD) =  -1099.90304766     A.U. after    1 cycles

 Isotropic polarizability for W=    0.000000       54.34 Bohr**3.
 End of Minotr F.D. properties file   721 does not exist.

                      1                      2                      3
                      A                      A                      A
 Frequencies --     45.1228                58.8377               128.9299
 Red. masses --     14.9027                14.2979                16.8140
 Frc consts  --      0.0179                 0.0292                 0.1647
 IR Inten    --      1.0302                 1.2521                 0.7618

                      4                      5                      6
                      A                      A                      A
 Frequencies --    184.9377               216.9031               242.2889
 Red. masses --      5.4991                18.1946                15.6695
 Frc consts  --      0.1108                 0.5043                 0.5420
 IR Inten    --     15.9726                 1.0538                 8.2537

                      7                      8                      9
                      A                      A                      A
 Frequencies --    284.8912               312.5079               327.0430
 Red. masses --      9.9309                 6.8610                 3.3563
 Frc consts  --      0.4749                 0.3948                 0.2115
 IR Inten    --      1.1910                 9.6852                28.7376

                     10                     11                     12
                      A                      A                      A
 Frequencies --    360.8034               438.5562               456.4659
 Red. masses --      2.6141                14.8893                 4.2663
 Frc consts  --      0.2005                 1.6872                 0.5237
 IR Inten    --     41.8319                11.9101                37.5934

                     13                     14                     15
                      A                      A                      A
 Frequencies --    507.5414               590.8581               595.6128
 Red. masses --     14.3090                16.8701                18.3450
 Frc consts  --      2.1717                 3.4700                 3.8344
 IR Inten    --     16.8187                44.7519                66.4189

                     16                     17                     18
                      A                      A                      A
 Frequencies --    631.4613               760.3554               830.3649
 Red. masses --     16.7257                14.4619                17.2350
 Frc consts  --      3.9294                 4.9262                 7.0016
 IR Inten    --     48.2940                13.1746               200.6889

                     19                     20                     21
                      A                      A                      A
 Frequencies --   1013.3282              1098.5129              1132.5900
 Red. masses --     13.3713                12.8379                 1.1971
 Frc consts  --      8.0896                 9.1276                 0.9048
 IR Inten    --    121.8533               190.9116                83.6881

                     22                     23                     24
                      A                      A                      A
 Frequencies --   1186.3122              1232.9069              1302.2206
 Red. masses --     13.7978                15.4950                13.3003
 Frc consts  --     11.4409                13.8772                13.2887
 IR Inten    --     35.2288               235.8815               250.1489

                     25                     26                     27
                      A                      A                      A
 Frequencies --   1380.6336              1438.4812              3835.3966
 Red. masses --     12.7741                14.0144                 1.0663
 Frc consts  --     14.3462                17.0857                 9.2412
 IR Inten    --     79.1204               273.2325               162.2436

 - Thermochemistry -
 -------------------
 Temperature   298.150 Kelvin.  Pressure   1.00000 Atm.
 Atom     1 has atomic number  6 and mass  12.00000

 Molecular mass:   180.95825 amu.
 Principal axes and moments of inertia in atomic units:
                           1         2         3
     Eigenvalues --   978.323211845.183662088.16661
           X            0.91207   0.36154  -0.19342
           Y           -0.08073   0.62083   0.77978
           Z           -0.40200   0.69560  -0.59543
 This molecule is an asymmetric top.
 Rotational symmetry number  1.
 Warning -- assumption of classical behavior for rotation
           may cause significant error
 Rotational temperatures (Kelvin)      0.08853     0.04694     0.04148
 Rotational constants (GHZ):           1.84473     0.97808     0.86427
 Zero-point vibrational energy     123178.7 (Joules/Mol)
                                   29.44041 (Kcal/Mol)
 Warning -- explicit consideration of  15 degrees of freedom as
           vibrations may cause significant error
 Vibrational temperatures:     64.92    84.65   185.50   266.08   312.08
          (Kelvin)            348.60   409.89   449.63   470.54   519.12
                              630.98   656.75   730.24   850.11   856.95
                              908.53  1093.98  1194.71  1457.95  1580.51
                             1629.54  1706.84  1773.88  1873.61  1986.42
                             2069.65  5518.28

 Zero-point correction=                           0.046916 (Hartree/Particle)
 Thermal correction to Energy=                    0.056811
 Thermal correction to Enthalpy=                  0.057755
 Thermal correction to Gibbs Free Energy=         0.009914
 Sum of electronic and zero-point Energies=          -1099.856131
 Sum of electronic and thermal Energies=             -1099.846237
 Sum of electronic and thermal Enthalpies=           -1099.845292
 Sum of electronic and thermal Free Energies=        -1099.893134

                     E (Thermal)             CV                S
                      KCal/Mol        Cal/Mol-Kelvin    Cal/Mol-Kelvin
 Total                   35.650             33.809            100.691
 Electronic               0.000              0.000              1.377
 Translational            0.889              2.981             41.486
 Rotational               0.889              2.981             29.712
 Vibrational             33.872             27.848             28.116
 Vibration     1          0.595              1.979              5.020
 Vibration     2          0.596              1.974              4.496
 Vibration     3          0.611              1.924              2.962
 Vibration     4          0.631              1.860              2.278
 Vibration     5          0.646              1.815              1.985
 Vibration     6          0.658              1.775              1.786
 Vibration     7          0.683              1.702              1.504
 Vibration     8          0.701              1.650              1.349
 Vibration     9          0.711              1.621              1.275
 Vibration    10          0.735              1.553              1.119
 Vibration    11          0.799              1.386              0.831
 Vibration    12          0.815              1.347              0.776
 Vibration    13          0.863              1.233              0.640
 Vibration    14          0.948              1.051              0.466
 Vibration    15          0.953              1.041              0.457

 Optimization completed.
    -- Stationary point found.
 Normal termination of Gaussian 16 at Fri May 23 02:23:21 2025.
