 Gaussian 16, Revision C.01,
 Gaussian 16:  ES64L-G16RevC.01  3-Jul-2019

 ----------------------------------------------------------------------
 #P wb97xd/6-311++G(d,p) Symm(None) scf(xqc) pop(None) freq opt(CalcFC,
  Tight)
 ----------------------------------------------------------------------

 ------------------------------
 Gaussian input prepared by ASE
 ------------------------------
 Symbolic Z-matrix:
 Charge =  0 Multiplicity = 2

 SCF Done:  E(UwB97XD) =  -1099.90090827     A.U. after   17 cycles
 SCF Done:  E(UwB97XD) =  -1099.90195434     A.U. after   14 cycles
 SCF Done:  E(UwB97XD) =  -1099.90231576     A.U. after   14 cycles
 SCF Done:  E(UwB97XD) =  -1099.90238853     A.U. after   13 cycles
 SCF Done:  E(UwB97XD) =  -1099.90238376     A.U. after   13 cycles
 SCF Done:  E(UwB97XD) =  -1099.90240269     A.U. after   13 cycles
 SCF Done:  E(UwB97XD) =  -1099.90240235     A.U. after   11 cycles
 SCF Done:  E(UwB97XD) =  -1099.90240277     A.U. after   11 cycles
 SCF Done:  E(UwB97XD) =  -1099.90240278     A.U. after    8 cycles
 Optimization completed.
    -- Stationary point found.
 Normal termination of Gaussian 16 at Fri May 23 02:18:27 2025.

 ----------------------------------------------------------------------
 #P Geom=AllCheck Guess=TCheck SCRF=Check GenChk UwB97XD/6-311++G(d,p)
 Freq
 ----------------------------------------------------------------------

 Structure from the checkpoint file:  "/tmp/Gau-205615.chk"
 ------------------------------
 Gaussian input prepared by ASE
 ------------------------------
 Charge =  0 Multiplicity = 2

                          Input orientation:
 ---------------------------------------------------------------------
 Center     Atomic      Atomic             Coordinates (Angstroms)
 Number     Number       Type             X           Y           Z
 ---------------------------------------------------------------------
      1          6           0       -0.542722    0.862727   -1.180458
      2          6           0        0.030520    0.053794   -0.037103
      3          9           0       -0.360275    0.591379    1.125398
      4          9           0       -0.360247   -1.231106   -0.074691
      5         16           0        1.901284    0.043900   -0.038908
      6          8           0        2.317503   -0.721483    1.102482
      7          8           0        2.345349   -0.209039   -1.373298
      8          8           0        2.157772    1.603376    0.250790
      9          9           0       -0.453846    0.301961   -2.361495
     10          9           0       -1.740134    1.361468   -0.955539
     11          1           0        2.213799    1.761138    1.202310
 ---------------------------------------------------------------------

 SCF Done:  E(UwB97XD) =  -1099.90240278     A.U. after    1 cycles

 Isotropic polarizability for W=    0.000000       54.35 Bohr**3.
 End of Minotr F.D. properties file   721 does not exist.

                      1                      2                      3
                      A                      A                      A
 Frequencies --     41.5111                54.2916               134.1280
 Red. masses --     14.0427                15.2194                16.9513
 Frc consts  --      0.0143                 0.0264                 0.1797
 IR Inten    --      1.6568                 0.3682                 0.8577

                      4                      5                      6
                      A                      A                      A
 Frequencies --    182.8161               223.5061               245.3048
 Red. masses --      6.2998                18.0732                12.6840
 Frc consts  --      0.1241                 0.5319                 0.4497
 IR Inten    --     11.5477                 0.7343                 9.7459

                      7                      8                      9
                      A                      A                      A
 Frequencies --    292.0816               312.8501               331.4321
 Red. masses --     15.0087                 5.5844                10.5610
 Frc consts  --      0.7544                 0.3220                 0.6835
 IR Inten    --      2.4293                12.6538                 4.1373

                     10                     11                     12
                      A                      A                      A
 Frequencies --    351.5570               436.4685               469.1805
 Red. masses --      1.7600                 5.4420                 7.1914
 Frc consts  --      0.1282                 0.6108                 0.9327
 IR Inten    --     57.8707                41.5299                11.0921

                     13                     14                     15
                      A                      A                      A
 Frequencies --    506.2705               581.4773               591.4510
 Red. masses --     13.4956                16.5039                16.5340
 Frc consts  --      2.0380                 3.2878                 3.4077
 IR Inten    --     20.1563                71.2964                 3.9420

                     16                     17                     18
                      A                      A                      A
 Frequencies --    626.1337               760.3585               825.6236
 Red. masses --     18.4300                14.4960                17.2876
 Frc consts  --      4.2571                 4.9378                 6.9430
 IR Inten    --     81.0977                 4.9187               226.4476

                     19                     20                     21
                      A                      A                      A
 Frequencies --   1003.3075              1117.9091              1129.9882
 Red. masses --     13.3420                 4.2376                 1.4747
 Frc consts  --      7.9130                 3.1202                 1.1095
 IR Inten    --    132.9196               145.1386                36.9328

                     22                     23                     24
                      A                      A                      A
 Frequencies --   1194.9445              1221.0907              1307.4002
 Red. masses --     13.0015                16.8619                13.2910
 Frc consts  --     10.9380                14.8133                13.3852
 IR Inten    --    202.8013               109.2573               247.1764

                     25                     26                     27
                      A                      A                      A
 Frequencies --   1380.7259              1440.8855              3834.4963
 Red. masses --     12.8510                14.2484                 1.0663
 Frc consts  --     14.4345                17.4291                 9.2370
 IR Inten    --     83.9984               291.2690               162.8556

 - Thermochemistry -
 -------------------
 Temperature   298.150 Kelvin.  Pressure   1.00000 Atm.
 Atom     1 has atomic number  6 and mass  12.00000

 Molecular mass:   180.95825 amu.
 Principal axes and moments of inertia in atomic units:
                           1         2         3
     Eigenvalues --   986.695251894.519592066.22686
           X            0.90922  -0.38654   0.15460
           Y           -0.17869  -0.02692   0.98354
           Z            0.37602   0.92188   0.09355
 This molecule is an asymmetric top.
 Rotational symmetry number  1.
 Warning -- assumption of classical behavior for rotation
           may cause significant error
 Rotational temperatures (Kelvin)      0.08778     0.04572     0.04192
 Rotational constants (GHZ):           1.82908     0.95261     0.87345
 Zero-point vibrational energy     123198.6 (Joules/Mol)
                                   29.44516 (Kcal/Mol)
 Warning -- explicit consideration of  15 degrees of freedom as
           vibrations may cause significant error
 Vibrational temperatures:     59.73    78.11   192.98   263.03   321.58
          (Kelvin)            352.94   420.24   450.12   476.86   505.81
                              627.98   675.05   728.41   836.62   850.97
                              900.87  1093.99  1187.89  1443.54  1608.42
                             1625.80  1719.26  1756.88  1881.06  1986.56
                             2073.11  5516.98

 Zero-point correction=                           0.046924 (Hartree/Particle)
 Thermal correction to Energy=                    0.056815
 Thermal correction to Enthalpy=                  0.057759
 Thermal correction to Gibbs Free Energy=         0.009822
 Sum of electronic and zero-point Energies=          -1099.855479
 Sum of electronic and thermal Energies=             -1099.845588
 Sum of electronic and thermal Enthalpies=           -1099.844644
 Sum of electronic and thermal Free Energies=        -1099.892581

                     E (Thermal)             CV                S
                      KCal/Mol        Cal/Mol-Kelvin    Cal/Mol-Kelvin
 Total                   35.652             33.813            100.892
 Electronic               0.000              0.000              1.377
 Translational            0.889              2.981             41.486
 Rotational               0.889              2.981             29.736
 Vibrational             33.874             27.851             28.292
 Vibration     1          0.594              1.981              5.186
 Vibration     2          0.596              1.976              4.655
 Vibration     3          0.613              1.919              2.886
 Vibration     4          0.630              1.863              2.299
 Vibration     5          0.649              1.805              1.931
 Vibration     6          0.660              1.771              1.764
 Vibration     7          0.687              1.688              1.462
 Vibration     8          0.701              1.649              1.347
 Vibration     9          0.714              1.613              1.253
 Vibration    10          0.728              1.572              1.159
 Vibration    11          0.797              1.391              0.838
 Vibration    12          0.826              1.318              0.740
 Vibration    13          0.861              1.236              0.643
 Vibration    14          0.938              1.071              0.483
 Vibration    15          0.949              1.050              0.465

 Optimization completed.
    -- Stationary point found.
 Normal termination of Gaussian 16 at Fri May 23 02:19:48 2025.
