 Gaussian 16, Revision C.01,
 Gaussian 16:  ES64L-G16RevC.01  3-Jul-2019

 ----------------------------------------------------------------------
 #P wb97xd/6-311++G(d,p) Symm(None) scf(xqc) pop(None) freq opt(CalcFC,
  Tight)
 ----------------------------------------------------------------------

 ------------------------------
 Gaussian input prepared by ASE
 ------------------------------
 Symbolic Z-matrix:
 Charge =  0 Multiplicity = 2

 SCF Done:  E(UwB97XD) =  -1099.91643532     A.U. after   17 cycles
 SCF Done:  E(UwB97XD) =  -1099.91643542     A.U. after   10 cycles
 SCF Done:  E(UwB97XD) =  -1099.91643542     A.U. after    5 cycles
 Optimization completed.
    -- Stationary point found.
 Normal termination of Gaussian 16 at Fri May 23 02:18:41 2025.

 ----------------------------------------------------------------------
 #P Geom=AllCheck Guess=TCheck SCRF=Check GenChk UwB97XD/6-311++G(d,p)
 Freq
 ----------------------------------------------------------------------

 Structure from the checkpoint file:  "/tmp/Gau-243045.chk"
 ------------------------------
 Gaussian input prepared by ASE
 ------------------------------
 Charge =  0 Multiplicity = 2

                          Input orientation:
 ---------------------------------------------------------------------
 Center     Atomic      Atomic             Coordinates (Angstroms)
 Number     Number       Type             X           Y           Z
 ---------------------------------------------------------------------
      1          6           0        3.393366   -0.907615    1.910260
      2          6           0        1.956951   -0.536351    1.611129
      3          9           0        1.250287   -0.092427    2.619360
      4         16           0        1.426356   -0.000247    0.000020
      5          8           0        2.237484   -0.713030   -0.947393
      6          8           0       -0.000455    0.001325    0.000347
      7          8           0        1.872576    1.547034   -0.000585
      8          9           0        3.729062   -2.052954    1.329679
      9          9           0        4.235640    0.042468    1.454635
     10          9           0        3.569812   -1.018223    3.221116
     11          1           0        2.779728    1.629836   -0.323865
 ---------------------------------------------------------------------

 SCF Done:  E(UwB97XD) =  -1099.91643542     A.U. after    1 cycles

 Isotropic polarizability for W=    0.000000       53.46 Bohr**3.
 End of Minotr F.D. properties file   721 does not exist.

                      1                      2                      3
                      A                      A                      A
 Frequencies --     31.2450                53.6112               117.8545
 Red. masses --     17.7001                11.7917                 8.4396
 Frc consts  --      0.0102                 0.0200                 0.0691
 IR Inten    --      0.3509                 2.5148                 7.6579

                      4                      5                      6
                      A                      A                      A
 Frequencies --    148.5980               241.7453               261.3286
 Red. masses --     15.7104                13.9886                 8.6303
 Frc consts  --      0.2044                 0.4817                 0.3473
 IR Inten    --      1.9077                 1.7634                 2.2161

                      7                      8                      9
                      A                      A                      A
 Frequencies --    301.0660               320.0115               352.9525
 Red. masses --     12.7285                 3.9683                 2.0278
 Frc consts  --      0.6798                 0.2394                 0.1488
 IR Inten    --      9.6671                30.1420                60.1076

                     10                     11                     12
                      A                      A                      A
 Frequencies --    433.4738               450.5596               484.8611
 Red. masses --      5.8761                 6.7438                11.9174
 Frc consts  --      0.6505                 0.8066                 1.6507
 IR Inten    --     21.8416                30.5282                 2.6141

                     13                     14                     15
                      A                      A                      A
 Frequencies --    509.6167               585.2892               604.2171
 Red. masses --     15.8462                16.8065                17.9571
 Frc consts  --      2.4247                 3.3921                 3.8625
 IR Inten    --     11.4559                 3.3435                76.7680

                     16                     17                     18
                      A                      A                      A
 Frequencies --    612.3213               746.1958               813.9268
 Red. masses --     15.3525                17.1967                17.1867
 Frc consts  --      3.3915                 5.6416                 6.7083
 IR Inten    --     76.1316                12.0177               188.5183

                     19                     20                     21
                      A                      A                      A
 Frequencies --   1003.1614              1130.8230              1150.2425
 Red. masses --     13.3911                 1.6265                 3.2784
 Frc consts  --      7.9398                 1.2254                 2.5556
 IR Inten    --     55.3453               272.3128                83.4633

                     22                     23                     24
                      A                      A                      A
 Frequencies --   1193.9946              1226.4906              1265.8508
 Red. masses --     17.2804                13.5503                12.8008
 Frc consts  --     14.5147                12.0096                12.0851
 IR Inten    --     97.1515               354.6349               224.4156

                     25                     26                     27
                      A                      A                      A
 Frequencies --   1405.1548              1444.2641              3827.5732
 Red. masses --     12.9265                14.1512                 1.0663
 Frc consts  --     15.0376                17.3914                 9.2041
 IR Inten    --    115.6346               300.1860               145.8724

 - Thermochemistry -
 -------------------
 Temperature   298.150 Kelvin.  Pressure   1.00000 Atm.
 Atom     1 has atomic number  6 and mass  12.00000

 Molecular mass:   180.95825 amu.
 Principal axes and moments of inertia in atomic units:
                           1         2         3
     Eigenvalues --   922.148411990.073682234.91898
           X            0.67439  -0.63226   0.38137
           Y           -0.34688   0.18466   0.91955
           Z            0.65182   0.75242   0.09478
 This molecule is an asymmetric top.
 Rotational symmetry number  1.
 Warning -- assumption of classical behavior for rotation
           may cause significant error
 Rotational temperatures (Kelvin)      0.09393     0.04352     0.03875
 Rotational constants (GHZ):           1.95710     0.90687     0.80752
 Zero-point vibrational energy     123911.8 (Joules/Mol)
                                   29.61562 (Kcal/Mol)
 Warning -- explicit consideration of  16 degrees of freedom as
           vibrations may cause significant error
 Vibrational temperatures:     44.95    77.13   169.57   213.80   347.82
          (Kelvin)            375.99   433.17   460.43   507.82   623.67
                              648.25   697.61   733.22   842.10   869.33
                              880.99  1073.61  1171.06  1443.33  1627.00
                             1654.94  1717.89  1764.65  1821.28  2021.70
                             2077.97  5507.02

 Zero-point correction=                           0.047195 (Hartree/Particle)
 Thermal correction to Energy=                    0.056999
 Thermal correction to Enthalpy=                  0.057943
 Thermal correction to Gibbs Free Energy=         0.009792
 Sum of electronic and zero-point Energies=          -1099.869240
 Sum of electronic and thermal Energies=             -1099.859436
 Sum of electronic and thermal Enthalpies=           -1099.858492
 Sum of electronic and thermal Free Energies=        -1099.906644

                     E (Thermal)             CV                S
                      KCal/Mol        Cal/Mol-Kelvin    Cal/Mol-Kelvin
 Total                   35.768             33.514            101.343
 Electronic               0.000              0.000              1.377
 Translational            0.889              2.981             41.486
 Rotational               0.889              2.981             29.796
 Vibrational             33.990             27.553             28.684
 Vibration     1          0.594              1.983              5.749
 Vibration     2          0.596              1.976              4.680
 Vibration     3          0.608              1.934              3.135
 Vibration     4          0.618              1.904              2.690
 Vibration     5          0.658              1.776              1.790
 Vibration     6          0.669              1.744              1.653
 Vibration     7          0.693              1.672              1.411
 Vibration     8          0.706              1.635              1.310
 Vibration     9          0.729              1.569              1.153
 Vibration    10          0.794              1.397              0.847
 Vibration    11          0.809              1.360              0.794
 Vibration    12          0.841              1.284              0.697
 Vibration    13          0.865              1.229              0.635
 Vibration    14          0.942              1.063              0.476
 Vibration    15          0.963              1.023              0.442
 Vibration    16          0.972              1.006              0.429

 Optimization completed.
    -- Stationary point found.
 Normal termination of Gaussian 16 at Fri May 23 02:20:02 2025.
