 Gaussian 16, Revision C.01,
 Gaussian 16:  ES64L-G16RevC.01  3-Jul-2019

 ----------------------------------------------------------------------
 #P wb97xd/6-311++G(d,p) Symm(None) scf(xqc) pop(None) freq opt(CalcFC,
  Tight)
 ----------------------------------------------------------------------

 ------------------------------
 Gaussian input prepared by ASE
 ------------------------------
 Symbolic Z-matrix:
 Charge =  0 Multiplicity = 2

 SCF Done:  E(UwB97XD) =  -1099.89665601     A.U. after   16 cycles
 SCF Done:  E(UwB97XD) =  -1099.90015575     A.U. after   14 cycles
 SCF Done:  E(UwB97XD) =  -1099.89930322     A.U. after   15 cycles
 SCF Done:  E(UwB97XD) =  -1099.90077966     A.U. after   13 cycles
 SCF Done:  E(UwB97XD) =  -1099.90079846     A.U. after   12 cycles
 SCF Done:  E(UwB97XD) =  -1099.90081056     A.U. after   13 cycles
 SCF Done:  E(UwB97XD) =  -1099.90093484     A.U. after   14 cycles
 SCF Done:  E(UwB97XD) =  -1099.90062642     A.U. after   16 cycles
 SCF Done:  E(UwB97XD) =  -1099.90099762     A.U. after   15 cycles
 SCF Done:  E(UwB97XD) =  -1099.90100167     A.U. after   11 cycles
 SCF Done:  E(UwB97XD) =  -1099.90100616     A.U. after   12 cycles
 SCF Done:  E(UwB97XD) =  -1099.90100624     A.U. after    8 cycles
 SCF Done:  E(UwB97XD) =  -1099.90100638     A.U. after    9 cycles
 SCF Done:  E(UwB97XD) =  -1099.90100709     A.U. after   12 cycles
 SCF Done:  E(UwB97XD) =  -1099.90100711     A.U. after    9 cycles
 SCF Done:  E(UwB97XD) =  -1099.90100711     A.U. after    5 cycles
 SCF Done:  E(UwB97XD) =  -1099.90100711     A.U. after    5 cycles
 Optimization completed.
    -- Stationary point found.
 Normal termination of Gaussian 16 at Fri May 23 02:20:35 2025.

 ----------------------------------------------------------------------
 #P Geom=AllCheck Guess=TCheck SCRF=Check GenChk UwB97XD/6-311++G(d,p)
 Freq
 ----------------------------------------------------------------------

 Structure from the checkpoint file:  "/tmp/Gau-109567.chk"
 ------------------------------
 Gaussian input prepared by ASE
 ------------------------------
 Charge =  0 Multiplicity = 2

                          Input orientation:
 ---------------------------------------------------------------------
 Center     Atomic      Atomic             Coordinates (Angstroms)
 Number     Number       Type             X           Y           Z
 ---------------------------------------------------------------------
      1          6           0       -0.441882    0.907593   -1.147518
      2          6           0        0.058356    0.023120   -0.022360
      3          9           0       -0.365587    0.505676    1.143716
      4          9           0       -0.365576   -1.245919   -0.155326
      5         16           0        1.928274   -0.053095    0.027014
      6          8           0        2.287806   -0.798247    1.190458
      7          8           0        2.393456   -0.364077   -1.297845
      8          8           0        2.239201    1.495835    0.328573
      9          9           0       -0.349319    0.391721   -2.350258
     10          9           0       -1.612723    1.467109   -0.936562
     11          1           0        2.491758    1.944331   -0.488550
 ---------------------------------------------------------------------

 SCF Done:  E(UwB97XD) =  -1099.90100711     A.U. after    1 cycles

 Isotropic polarizability for W=    0.000000       54.48 Bohr**3.
 End of Minotr F.D. properties file   721 does not exist.

                      1                      2                      3
                      A                      A                      A
 Frequencies --     33.8273                52.9700               134.5935
 Red. masses --     13.5055                15.5363                12.2884
 Frc consts  --      0.0091                 0.0257                 0.1312
 IR Inten    --      0.9195                 0.9310                 3.3492

                      4                      5                      6
                      A                      A                      A
 Frequencies --    185.0846               222.7241               240.8138
 Red. masses --     16.8571                14.1614                 5.9189
 Frc consts  --      0.3402                 0.4139                 0.2022
 IR Inten    --      2.9140                 2.7685                 7.7128

                      7                      8                      9
                      A                      A                      A
 Frequencies --    288.7391               292.3690               320.5329
 Red. masses --      2.2647                13.3518                16.2001
 Frc consts  --      0.1112                 0.6724                 0.9807
 IR Inten    --     58.2740                17.1533                 2.0149

                     10                     11                     12
                      A                      A                      A
 Frequencies --    344.4852               437.7119               463.1477
 Red. masses --      3.2281                 4.3168                10.8618
 Frc consts  --      0.2257                 0.4873                 1.3728
 IR Inten    --     36.7831                13.3037                25.6335

                     13                     14                     15
                      A                      A                      A
 Frequencies --    506.5471               579.6311               592.5425
 Red. masses --     15.5438                16.8803                16.0620
 Frc consts  --      2.3499                 3.3414                 3.3227
 IR Inten    --     19.9127                65.5520                 4.1800

                     16                     17                     18
                      A                      A                      A
 Frequencies --    624.9058               760.8380               822.6767
 Red. masses --     17.1560                14.2458                17.7773
 Frc consts  --      3.9473                 4.8587                 7.0888
 IR Inten    --     79.9535                 4.7739               237.0606

                     19                     20                     21
                      A                      A                      A
 Frequencies --    999.4314              1117.8713              1120.7380
 Red. masses --     13.3608                 1.9353                 2.5741
 Frc consts  --      7.8630                 1.4249                 1.9050
 IR Inten    --    127.2819               145.4655                28.2012

                     22                     23                     24
                      A                      A                      A
 Frequencies --   1207.4560              1225.2575              1306.8163
 Red. masses --     15.2949                12.9306                13.3934
 Frc consts  --     13.1383                11.4373                13.4763
 IR Inten    --    240.5387                70.5336               241.5684

                     25                     26                     27
                      A                      A                      A
 Frequencies --   1379.0161              1438.5919              3840.7497
 Red. masses --     12.8566                14.2757                 1.0664
 Frc consts  --     14.4051                17.4069                 9.2684
 IR Inten    --     90.2709               293.8586               154.8380

 - Thermochemistry -
 -------------------
 Temperature   298.150 Kelvin.  Pressure   1.00000 Atm.
 Atom     1 has atomic number  6 and mass  12.00000

 Molecular mass:   180.95825 amu.
 Principal axes and moments of inertia in atomic units:
                           1         2         3
     Eigenvalues --   992.780231890.238892058.63822
           X            0.89286  -0.41559   0.17346
           Y           -0.23296  -0.09658   0.96768
           Z            0.38541   0.90441   0.18305
 This molecule is an asymmetric top.
 Rotational symmetry number  1.
 Warning -- assumption of classical behavior for rotation
           may cause significant error
 Rotational temperatures (Kelvin)      0.08724     0.04582     0.04207
 Rotational constants (GHZ):           1.81787     0.95477     0.87667
 Zero-point vibrational energy     122856.9 (Joules/Mol)
                                   29.36350 (Kcal/Mol)
 Warning -- explicit consideration of  15 degrees of freedom as
           vibrations may cause significant error
 Vibrational temperatures:     48.67    76.21   193.65   266.30   320.45
          (Kelvin)            346.48   415.43   420.65   461.18   495.64
                              629.77   666.37   728.81   833.96   852.54
                              899.10  1094.68  1183.65  1437.96  1608.37
                             1612.49  1737.26  1762.87  1880.22  1984.10
                             2069.81  5525.98

 Zero-point correction=                           0.046794 (Hartree/Particle)
 Thermal correction to Energy=                    0.056763
 Thermal correction to Enthalpy=                  0.057707
 Thermal correction to Gibbs Free Energy=         0.009437
 Sum of electronic and zero-point Energies=          -1099.854213
 Sum of electronic and thermal Energies=             -1099.844244
 Sum of electronic and thermal Enthalpies=           -1099.843300
 Sum of electronic and thermal Free Energies=        -1099.891570

                     E (Thermal)             CV                S
                      KCal/Mol        Cal/Mol-Kelvin    Cal/Mol-Kelvin
 Total                   35.619             33.922            101.593
 Electronic               0.000              0.000              1.377
 Translational            0.889              2.981             41.486
 Rotational               0.889              2.981             29.736
 Vibrational             33.842             27.961             28.994
 Vibration     1          0.594              1.983              5.591
 Vibration     2          0.596              1.976              4.703
 Vibration     3          0.613              1.919              2.879
 Vibration     4          0.631              1.860              2.277
 Vibration     5          0.648              1.806              1.937
 Vibration     6          0.658              1.778              1.797
 Vibration     7          0.685              1.695              1.481
 Vibration     8          0.688              1.688              1.460
 Vibration     9          0.706              1.634              1.307
 Vibration    10          0.723              1.586              1.191
 Vibration    11          0.798              1.388              0.834
 Vibration    12          0.821              1.332              0.757
 Vibration    13          0.862              1.235              0.642
 Vibration    14          0.936              1.075              0.486
 Vibration    15          0.950              1.048              0.463

 Optimization completed on the basis of negligible forces.
    -- Stationary point found.
 Normal termination of Gaussian 16 at Fri May 23 02:22:04 2025.
