 Gaussian 16, Revision C.01,
 Gaussian 16:  ES64L-G16RevC.01  3-Jul-2019

 ----------------------------------------------------------------------
 #P wb97xd/6-311++G(d,p) Symm(None) scf(xqc) pop(None) freq opt(CalcFC,
  Tight)
 ----------------------------------------------------------------------

 ------------------------------
 Gaussian input prepared by ASE
 ------------------------------
 Symbolic Z-matrix:
 Charge =  0 Multiplicity = 2

 SCF Done:  E(UwB97XD) =  -1099.91236112     A.U. after   17 cycles
 SCF Done:  E(UwB97XD) =  -1099.91540881     A.U. after   17 cycles
 SCF Done:  E(UwB97XD) =  -1099.88555727     A.U. after   16 cycles
 SCF Done:  E(UwB97XD) =  -1099.91587817     A.U. after   15 cycles
 SCF Done:  E(UwB97XD) =  -1099.91604134     A.U. after   14 cycles
 SCF Done:  E(UwB97XD) =  -1099.91606751     A.U. after   13 cycles
 SCF Done:  E(UwB97XD) =  -1099.91607771     A.U. after   12 cycles
 SCF Done:  E(UwB97XD) =  -1099.91608773     A.U. after   13 cycles
 SCF Done:  E(UwB97XD) =  -1099.91608825     A.U. after   10 cycles
 SCF Done:  E(UwB97XD) =  -1099.91608828     A.U. after    9 cycles
 SCF Done:  E(UwB97XD) =  -1099.91608828     A.U. after    7 cycles
 Optimization completed.
    -- Stationary point found.
 Normal termination of Gaussian 16 at Fri May 23 02:20:43 2025.

 ----------------------------------------------------------------------
 #P Geom=AllCheck Guess=TCheck SCRF=Check GenChk UwB97XD/6-311++G(d,p)
 Freq
 ----------------------------------------------------------------------

 Structure from the checkpoint file:  "/tmp/Gau-143282.chk"
 ------------------------------
 Gaussian input prepared by ASE
 ------------------------------
 Charge =  0 Multiplicity = 2

                          Input orientation:
 ---------------------------------------------------------------------
 Center     Atomic      Atomic             Coordinates (Angstroms)
 Number     Number       Type             X           Y           Z
 ---------------------------------------------------------------------
      1          6           0        3.388997   -0.918385    1.918129
      2          6           0        2.013110   -0.401629    1.559960
      3          9           0        1.396753    0.284179    2.495997
      4         16           0        1.465065   -0.050816   -0.093727
      5          8           0        2.323075   -0.769298   -0.980117
      6          8           0        0.032171   -0.156309   -0.099984
      7          8           0        1.842206    1.509500   -0.224040
      8          9           0        3.645866   -2.060556    1.294027
      9          9           0        4.343533   -0.037621    1.591333
     10          9           0        3.449460   -1.121215    3.233601
     11          1           0        1.057613    2.050840   -0.067528
 ---------------------------------------------------------------------

 SCF Done:  E(UwB97XD) =  -1099.91608828     A.U. after    1 cycles

 Isotropic polarizability for W=    0.000000       53.62 Bohr**3.
 End of Minotr F.D. properties file   721 does not exist.

                      1                      2                      3
                      A                      A                      A
 Frequencies --     34.1362                42.5640               124.1714
 Red. masses --     15.7221                13.0460                16.0567
 Frc consts  --      0.0108                 0.0139                 0.1459
 IR Inten    --      0.9800                 0.7296                 1.1476

                      4                      5                      6
                      A                      A                      A
 Frequencies --    146.0454               233.5922               249.6837
 Red. masses --      9.8887                 5.6708                 8.6679
 Frc consts  --      0.1243                 0.1823                 0.3184
 IR Inten    --      3.6537                16.8967                13.4121

                      7                      8                      9
                      A                      A                      A
 Frequencies --    295.2844               307.8210               337.0284
 Red. masses --      5.4852                 2.4868                 6.0781
 Frc consts  --      0.2818                 0.1388                 0.4068
 IR Inten    --      5.6115                43.7708                17.3227

                     10                     11                     12
                      A                      A                      A
 Frequencies --    427.4076               453.2094               483.6903
 Red. masses --      7.2244                 5.9459                11.5374
 Frc consts  --      0.7776                 0.7196                 1.5904
 IR Inten    --     15.1081                18.1728                19.5730

                     13                     14                     15
                      A                      A                      A
 Frequencies --    510.5525               587.2156               602.5991
 Red. masses --     15.3131                16.2832                16.2459
 Frc consts  --      2.3518                 3.3082                 3.4758
 IR Inten    --     10.5326                 4.1794                46.5714

                     16                     17                     18
                      A                      A                      A
 Frequencies --    610.3952               748.2946               814.6785
 Red. masses --     17.7197                16.9064                17.7198
 Frc consts  --      3.8898                 5.5776                 6.9292
 IR Inten    --     99.9567                16.6804               208.6846

                     19                     20                     21
                      A                      A                      A
 Frequencies --   1013.0017              1125.2558              1165.8156
 Red. masses --     13.6021                 1.2070                13.1376
 Frc consts  --      8.2239                 0.9004                10.5203
 IR Inten    --     64.1843                64.0950               248.8134

                     22                     23                     24
                      A                      A                      A
 Frequencies --   1194.5300              1229.6610              1250.8141
 Red. masses --     14.8337                13.4111                12.7779
 Frc consts  --     12.4708                11.9478                11.7786
 IR Inten    --    135.4917               355.0791               221.2490

                     25                     26                     27
                      A                      A                      A
 Frequencies --   1393.7408              1441.5591              3836.4283
 Red. masses --     12.9092                14.1653                 1.0664
 Frc consts  --     14.7746                17.3436                 9.2471
 IR Inten    --    116.6693               296.6440               170.7432

 - Thermochemistry -
 -------------------
 Temperature   298.150 Kelvin.  Pressure   1.00000 Atm.
 Atom     1 has atomic number  6 and mass  12.00000

 Molecular mass:   180.95825 amu.
 Principal axes and moments of inertia in atomic units:
                           1         2         3
     Eigenvalues --   912.163762036.115692274.65183
           X            0.65568  -0.55235   0.51477
           Y           -0.33471   0.39849   0.85392
           Z            0.67679   0.73220  -0.07640
 This molecule is an asymmetric top.
 Rotational symmetry number  1.
 Warning -- assumption of classical behavior for rotation
           may cause significant error
 Rotational temperatures (Kelvin)      0.09495     0.04254     0.03808
 Rotational constants (GHZ):           1.97853     0.88636     0.79341
 Zero-point vibrational energy     123569.3 (Joules/Mol)
                                   29.53377 (Kcal/Mol)
 Warning -- explicit consideration of  16 degrees of freedom as
           vibrations may cause significant error
 Vibrational temperatures:     49.11    61.24   178.65   210.13   336.09
          (Kelvin)            359.24   424.85   442.89   484.91   614.94
                              652.07   695.92   734.57   844.87   867.01
                              878.22  1076.63  1172.14  1457.48  1618.99
                             1677.35  1718.66  1769.21  1799.64  2005.28
                             2074.08  5519.76

 Zero-point correction=                           0.047065 (Hartree/Particle)
 Thermal correction to Energy=                    0.056949
 Thermal correction to Enthalpy=                  0.057893
 Thermal correction to Gibbs Free Energy=         0.009474
 Sum of electronic and zero-point Energies=          -1099.869023
 Sum of electronic and thermal Energies=             -1099.859140
 Sum of electronic and thermal Enthalpies=           -1099.858196
 Sum of electronic and thermal Free Energies=        -1099.906615

                     E (Thermal)             CV                S
                      KCal/Mol        Cal/Mol-Kelvin    Cal/Mol-Kelvin
 Total                   35.736             33.614            101.906
 Electronic               0.000              0.000              1.377
 Translational            0.889              2.981             41.486
 Rotational               0.889              2.981             29.825
 Vibrational             33.958             27.652             29.218
 Vibration     1          0.594              1.983              5.573
 Vibration     2          0.595              1.980              5.136
 Vibration     3          0.610              1.929              3.034
 Vibration     4          0.617              1.907              2.723
 Vibration     5          0.654              1.790              1.851
 Vibration     6          0.662              1.763              1.733
 Vibration     7          0.690              1.683              1.443
 Vibration     8          0.698              1.659              1.374
 Vibration     9          0.718              1.602              1.226
 Vibration    10          0.789              1.411              0.867
 Vibration    11          0.812              1.354              0.786
 Vibration    12          0.840              1.286              0.700
 Vibration    13          0.866              1.227              0.632
 Vibration    14          0.944              1.059              0.472
 Vibration    15          0.961              1.026              0.445
 Vibration    16          0.969              1.010              0.432

 Optimization completed.
    -- Stationary point found.
 Normal termination of Gaussian 16 at Fri May 23 02:22:06 2025.
