 Gaussian 16, Revision C.01,
 Gaussian 16:  ES64L-G16RevC.01  3-Jul-2019

 ----------------------------------------------------------------------
 #P wb97xd/6-311++G(d,p) Symm(None) scf(xqc) pop(None) freq opt(CalcFC,
  Tight)
 ----------------------------------------------------------------------

 ------------------------------
 Gaussian input prepared by ASE
 ------------------------------
 Symbolic Z-matrix:
 Charge =  0 Multiplicity = 2

 SCF Done:  E(UwB97XD) =  -1099.89702894     A.U. after   16 cycles
 SCF Done:  E(UwB97XD) =  -1099.90109112     A.U. after   14 cycles
 SCF Done:  E(UwB97XD) =  -1099.89980737     A.U. after   15 cycles
 SCF Done:  E(UwB97XD) =  -1099.90280100     A.U. after   14 cycles
 SCF Done:  E(UwB97XD) =  -1099.90301097     A.U. after   13 cycles
 SCF Done:  E(UwB97XD) =  -1099.90302221     A.U. after   11 cycles
 SCF Done:  E(UwB97XD) =  -1099.90302256     A.U. after   10 cycles
 SCF Done:  E(UwB97XD) =  -1099.90302256     A.U. after    7 cycles
 Optimization completed.
    -- Stationary point found.
 Normal termination of Gaussian 16 at Fri May 23 02:23:57 2025.

 ----------------------------------------------------------------------
 #P Geom=AllCheck Guess=TCheck SCRF=Check GenChk UwB97XD/6-311++G(d,p)
 Freq
 ----------------------------------------------------------------------

 Structure from the checkpoint file:  "/tmp/Gau-278347.chk"
 ------------------------------
 Gaussian input prepared by ASE
 ------------------------------
 Charge =  0 Multiplicity = 2

                          Input orientation:
 ---------------------------------------------------------------------
 Center     Atomic      Atomic             Coordinates (Angstroms)
 Number     Number       Type             X           Y           Z
 ---------------------------------------------------------------------
      1          6           0       -0.521712   -1.317654   -0.354086
      2          6           0        0.088080    0.014420    0.015839
      3          9           0       -0.230407    0.916381   -0.926628
      4          9           0       -0.349329    0.469751    1.200403
      5         16           0        1.955180   -0.090871    0.076495
      6          8           0        2.343357   -0.663168    1.325183
      7          8           0        2.369157   -0.602536   -1.202008
      8          8           0        2.291651    1.473912    0.158651
      9          9           0       -0.194153   -2.317868    0.431873
     10          9           0       -1.814363   -1.273549   -0.592537
     11          1           0        2.326304    1.858685   -0.726912
 ---------------------------------------------------------------------

 SCF Done:  E(UwB97XD) =  -1099.90302256     A.U. after    1 cycles

 Isotropic polarizability for W=    0.000000       54.24 Bohr**3.
 End of Minotr F.D. properties file   721 does not exist.

                      1                      2                      3
                      A                      A                      A
 Frequencies --     41.1418                57.4950               127.7794
 Red. masses --     16.2170                13.2666                14.0977
 Frc consts  --      0.0162                 0.0258                 0.1356
 IR Inten    --      0.8379                 1.0280                 1.5060

                      4                      5                      6
                      A                      A                      A
 Frequencies --    190.1724               217.6195               232.6414
 Red. masses --      8.6273                17.3845                 7.1786
 Frc consts  --      0.1838                 0.4851                 0.2289
 IR Inten    --      9.8456                 1.1607                13.4686

                      7                      8                      9
                      A                      A                      A
 Frequencies --    288.0227               317.7400               325.2040
 Red. masses --     16.2460                 5.4487                 4.5386
 Frc consts  --      0.7941                 0.3241                 0.2828
 IR Inten    --      3.3036                12.8452                20.4464

                     10                     11                     12
                      A                      A                      A
 Frequencies --    367.2296               434.8180               478.7883
 Red. masses --      2.3945                 5.7538                 7.0711
 Frc consts  --      0.1903                 0.6409                 0.9551
 IR Inten    --     38.3868                36.8920                 6.5864

                     13                     14                     15
                      A                      A                      A
 Frequencies --    491.2944               589.7678               598.2410
 Red. masses --     13.3842                17.1557                17.9482
 Frc consts  --      1.9034                 3.5158                 3.7846
 IR Inten    --     30.5823                37.4003                83.0613

                     16                     17                     18
                      A                      A                      A
 Frequencies --    635.2540               764.3060               825.0988
 Red. masses --     16.9247                14.3879                16.8602
 Frc consts  --      4.0241                 4.9520                 6.7628
 IR Inten    --     42.4564                14.2131               246.2976

                     19                     20                     21
                      A                      A                      A
 Frequencies --   1014.7335              1127.6379              1133.9162
 Red. masses --     13.6397                 2.6295                 1.8602
 Frc consts  --      8.2748                 1.9700                 1.4092
 IR Inten    --     53.8181               254.7479                55.1957

                     22                     23                     24
                      A                      A                      A
 Frequencies --   1177.6002              1214.5031              1306.2215
 Red. masses --     13.2686                16.8069                13.3962
 Frc consts  --     10.8410                14.6061                13.4668
 IR Inten    --    190.3772                32.6176               263.0964

                     25                     26                     27
                      A                      A                      A
 Frequencies --   1377.4466              1439.5222              3835.6539
 Red. masses --     12.7937                14.2360                 1.0662
 Frc consts  --     14.3020                17.3810                 9.2423
 IR Inten    --     79.0089               288.0683               159.2979

 - Thermochemistry -
 -------------------
 Temperature   298.150 Kelvin.  Pressure   1.00000 Atm.
 Atom     1 has atomic number  6 and mass  12.00000

 Molecular mass:   180.95825 amu.
 Principal axes and moments of inertia in atomic units:
                           1         2         3
     Eigenvalues --   966.538201871.777432105.87204
           X            0.90980  -0.38362  -0.15839
           Y            0.40831   0.89574   0.17587
           Z            0.07441  -0.22468   0.97159
 This molecule is an asymmetric top.
 Rotational symmetry number  1.
 Warning -- assumption of classical behavior for rotation
           may cause significant error
 Rotational temperatures (Kelvin)      0.08961     0.04627     0.04113
 Rotational constants (GHZ):           1.86722     0.96419     0.85700
 Zero-point vibrational energy     123274.3 (Joules/Mol)
                                   29.46326 (Kcal/Mol)
 Warning -- explicit consideration of  15 degrees of freedom as
           vibrations may cause significant error
 Vibrational temperatures:     59.19    82.72   183.85   273.62   313.11
          (Kelvin)            334.72   414.40   457.16   467.90   528.36
                              625.61   688.87   706.86   848.54   860.74
                              913.99  1099.67  1187.13  1459.98  1622.42
                             1631.45  1694.30  1747.40  1879.36  1981.84
                             2071.15  5518.65

 Zero-point correction=                           0.046953 (Hartree/Particle)
 Thermal correction to Energy=                    0.056843
 Thermal correction to Enthalpy=                  0.057788
 Thermal correction to Gibbs Free Energy=         0.009858
 Sum of electronic and zero-point Energies=          -1099.856070
 Sum of electronic and thermal Energies=             -1099.846179
 Sum of electronic and thermal Enthalpies=           -1099.845235
 Sum of electronic and thermal Free Energies=        -1099.893164

                     E (Thermal)             CV                S
                      KCal/Mol        Cal/Mol-Kelvin    Cal/Mol-Kelvin
 Total                   35.670             33.769            100.876
 Electronic               0.000              0.000              1.377
 Translational            0.889              2.981             41.486
 Rotational               0.889              2.981             29.723
 Vibrational             33.892             27.807             28.290
 Vibration     1          0.594              1.981              5.203
 Vibration     2          0.596              1.975              4.541
 Vibration     3          0.611              1.925              2.979
 Vibration     4          0.633              1.853              2.226
 Vibration     5          0.646              1.814              1.979
 Vibration     6          0.653              1.791              1.858
 Vibration     7          0.685              1.696              1.486
 Vibration     8          0.704              1.640              1.322
 Vibration     9          0.709              1.625              1.284
 Vibration    10          0.740              1.540              1.091
 Vibration    11          0.795              1.394              0.843
 Vibration    12          0.835              1.297              0.713
 Vibration    13          0.847              1.269              0.680
 Vibration    14          0.947              1.054              0.468
 Vibration    15          0.956              1.036              0.453

 Optimization completed.
    -- Stationary point found.
 Normal termination of Gaussian 16 at Fri May 23 02:26:37 2025.
