 Gaussian 16, Revision C.01,
 Gaussian 16:  ES64L-G16RevC.01  3-Jul-2019

 ----------------------------------------------------------------------
 #P wb97xd/6-311++G(d,p) Symm(None) scf(xqc) pop(None) freq opt(CalcFC,
  Tight)
 ----------------------------------------------------------------------

 ------------------------------
 Gaussian input prepared by ASE
 ------------------------------
 Symbolic Z-matrix:
 Charge =  0 Multiplicity = 2

 SCF Done:  E(UwB97XD) =  -1099.90212117     A.U. after   16 cycles
 SCF Done:  E(UwB97XD) =  -1099.90280267     A.U. after   13 cycles
 SCF Done:  E(UwB97XD) =  -1099.90283695     A.U. after   13 cycles
 SCF Done:  E(UwB97XD) =  -1099.90284228     A.U. after   12 cycles
 SCF Done:  E(UwB97XD) =  -1099.90284252     A.U. after   10 cycles
 SCF Done:  E(UwB97XD) =  -1099.90284254     A.U. after    9 cycles
 SCF Done:  E(UwB97XD) =  -1099.90284254     A.U. after    7 cycles
 Optimization completed.
    -- Stationary point found.
 Normal termination of Gaussian 16 at Fri May 23 02:18:27 2025.

 ----------------------------------------------------------------------
 #P Geom=AllCheck Guess=TCheck SCRF=Check GenChk UwB97XD/6-311++G(d,p)
 Freq
 ----------------------------------------------------------------------

 Structure from the checkpoint file:  "/tmp/Gau-105167.chk"
 ------------------------------
 Gaussian input prepared by ASE
 ------------------------------
 Charge =  0 Multiplicity = 2

                          Input orientation:
 ---------------------------------------------------------------------
 Center     Atomic      Atomic             Coordinates (Angstroms)
 Number     Number       Type             X           Y           Z
 ---------------------------------------------------------------------
      1          6           0       -0.543364   -1.381461   -0.273005
      2          6           0        0.013347    0.001744   -0.033643
      3          9           0       -0.410675    0.817808   -0.998165
      4          9           0       -0.373882    0.513813    1.157576
      5         16           0        1.883402   -0.002779   -0.043183
      6          8           0        2.334148   -0.642280    1.161430
      7          8           0        2.295281   -0.397551   -1.353378
      8          8           0        2.131844    1.576515    0.078100
      9          9           0       -0.190899   -2.292067    0.604434
     10          9           0       -1.831612   -1.412187   -0.533590
     11          1           0        2.201414    1.830020    1.007839
 ---------------------------------------------------------------------

 SCF Done:  E(UwB97XD) =  -1099.90284254     A.U. after    1 cycles

 Isotropic polarizability for W=    0.000000       54.28 Bohr**3.
 End of Minotr F.D. properties file   721 does not exist.

                      1                      2                      3
                      A                      A                      A
 Frequencies --     29.8344                59.0587               130.8045
 Red. masses --     15.2328                13.7461                12.7891
 Frc consts  --      0.0080                 0.0282                 0.1289
 IR Inten    --      1.3929                 1.1773                 1.6206

                      4                      5                      6
                      A                      A                      A
 Frequencies --    193.2956               215.2206               232.0102
 Red. masses --     10.8060                17.4032                 9.1147
 Frc consts  --      0.2379                 0.4749                 0.2891
 IR Inten    --      8.4057                 1.8891                 9.3432

                      7                      8                      9
                      A                      A                      A
 Frequencies --    287.4722               307.7831               325.1394
 Red. masses --     12.0814                 3.0797                 6.5037
 Frc consts  --      0.5882                 0.1719                 0.4051
 IR Inten    --      1.0173                35.8085                10.0453

                     10                     11                     12
                      A                      A                      A
 Frequencies --    367.3349               435.3364               477.0055
 Red. masses --      2.6721                 5.7793                 7.5032
 Frc consts  --      0.2124                 0.6453                 1.0059
 IR Inten    --     44.6340                 6.6532                42.7592

                     13                     14                     15
                      A                      A                      A
 Frequencies --    492.9482               590.2038               595.6698
 Red. masses --     13.1124                17.0612                17.7238
 Frc consts  --      1.8773                 3.5016                 3.7052
 IR Inten    --     16.5211                52.0403                54.5468

                     16                     17                     18
                      A                      A                      A
 Frequencies --    631.5963               760.8298               823.5206
 Red. masses --     16.8633                14.5776                16.9428
 Frc consts  --      3.9634                 4.9718                 6.7699
 IR Inten    --     51.9913                13.6931               251.0720

                     19                     20                     21
                      A                      A                      A
 Frequencies --   1013.5438              1099.5844              1130.7867
 Red. masses --     13.7555                13.0428                 1.1870
 Frc consts  --      8.3255                 9.2914                 0.8943
 IR Inten    --     54.2353               217.0603                73.6989

                     22                     23                     24
                      A                      A                      A
 Frequencies --   1194.4121              1222.9904              1309.6762
 Red. masses --     15.2091                14.9969                13.4002
 Frc consts  --     12.7838                13.2159                13.5422
 IR Inten    --    196.6804                45.0095               257.1594

                     25                     26                     27
                      A                      A                      A
 Frequencies --   1381.7803              1437.8154              3835.5944
 Red. masses --     12.8530                13.9039                 1.0663
 Frc consts  --     14.4588                16.9354                 9.2422
 IR Inten    --     71.4355               296.3689               164.9477

 - Thermochemistry -
 -------------------
 Temperature   298.150 Kelvin.  Pressure   1.00000 Atm.
 Atom     1 has atomic number  6 and mass  12.00000

 Molecular mass:   180.95825 amu.
 Principal axes and moments of inertia in atomic units:
                           1         2         3
     Eigenvalues --   965.585131885.497162105.56366
           X            0.88925  -0.43126  -0.15247
           Y            0.45676   0.85503   0.24554
           Z            0.02448  -0.28799   0.95732
 This molecule is an asymmetric top.
 Rotational symmetry number  1.
 Warning -- assumption of classical behavior for rotation
           may cause significant error
 Rotational temperatures (Kelvin)      0.08970     0.04594     0.04114
 Rotational constants (GHZ):           1.86906     0.95717     0.85713
 Zero-point vibrational energy     123103.2 (Joules/Mol)
                                   29.42237 (Kcal/Mol)
 Warning -- explicit consideration of  15 degrees of freedom as
           vibrations may cause significant error
 Vibrational temperatures:     42.93    84.97   188.20   278.11   309.65
          (Kelvin)            333.81   413.61   442.83   467.80   528.51
                              626.35   686.30   709.24   849.17   857.04
                              908.73  1094.66  1184.86  1458.26  1582.06
                             1626.95  1718.49  1759.61  1884.33  1988.07
                             2068.70  5518.56

 Zero-point correction=                           0.046888 (Hartree/Particle)
 Thermal correction to Energy=                    0.056812
 Thermal correction to Enthalpy=                  0.057756
 Thermal correction to Gibbs Free Energy=         0.009536
 Sum of electronic and zero-point Energies=          -1099.855955
 Sum of electronic and thermal Energies=             -1099.846031
 Sum of electronic and thermal Enthalpies=           -1099.845087
 Sum of electronic and thermal Free Energies=        -1099.893306

                     E (Thermal)             CV                S
                      KCal/Mol        Cal/Mol-Kelvin    Cal/Mol-Kelvin
 Total                   35.650             33.816            101.487
 Electronic               0.000              0.000              1.377
 Translational            0.889              2.981             41.486
 Rotational               0.889              2.981             29.729
 Vibrational             33.872             27.854             28.895
 Vibration     1          0.594              1.984              5.840
 Vibration     2          0.596              1.974              4.488
 Vibration     3          0.612              1.923              2.934
 Vibration     4          0.635              1.849              2.196
 Vibration     5          0.645              1.818              1.999
 Vibration     6          0.653              1.792              1.863
 Vibration     7          0.685              1.697              1.489
 Vibration     8          0.698              1.659              1.374
 Vibration     9          0.709              1.625              1.284
 Vibration    10          0.740              1.539              1.091
 Vibration    11          0.796              1.393              0.841
 Vibration    12          0.834              1.301              0.718
 Vibration    13          0.849              1.266              0.676
 Vibration    14          0.948              1.053              0.467
 Vibration    15          0.953              1.041              0.457

 Optimization completed.
    -- Stationary point found.
 Normal termination of Gaussian 16 at Fri May 23 02:20:10 2025.
