 Gaussian 16, Revision C.01,
 Gaussian 16:  ES64L-G16RevC.01  3-Jul-2019

 ----------------------------------------------------------------------
 #P wb97xd/6-311++G(d,p) Symm(None) scf(xqc) pop(None) freq opt(CalcFC,
  Tight)
 ----------------------------------------------------------------------

 ------------------------------
 Gaussian input prepared by ASE
 ------------------------------
 Symbolic Z-matrix:
 Charge =  0 Multiplicity = 2

 SCF Done:  E(UwB97XD) =  -1099.90247448     A.U. after   17 cycles
 SCF Done:  E(UwB97XD) =  -1099.90247196     A.U. after   11 cycles
 SCF Done:  E(UwB97XD) =  -1099.90247459     A.U. after   11 cycles
 SCF Done:  E(UwB97XD) =  -1099.90247463     A.U. after    8 cycles
 SCF Done:  E(UwB97XD) =  -1099.90247463     A.U. after    8 cycles
 SCF Done:  E(UwB97XD) =  -1099.90247463     A.U. after    7 cycles
 SCF Done:  E(UwB97XD) =  -1099.90247463     A.U. after    4 cycles
 Optimization completed.
    -- Stationary point found.
 Normal termination of Gaussian 16 at Fri May 23 02:19:37 2025.

 ----------------------------------------------------------------------
 #P Geom=AllCheck Guess=TCheck SCRF=Check GenChk UwB97XD/6-311++G(d,p)
 Freq
 ----------------------------------------------------------------------

 Structure from the checkpoint file:  "/tmp/Gau-174701.chk"
 ------------------------------
 Gaussian input prepared by ASE
 ------------------------------
 Charge =  0 Multiplicity = 2

                          Input orientation:
 ---------------------------------------------------------------------
 Center     Atomic      Atomic             Coordinates (Angstroms)
 Number     Number       Type             X           Y           Z
 ---------------------------------------------------------------------
      1          6           0       -0.566432    0.386222    1.348747
      2          6           0       -0.000248    0.000338    0.000088
      3          9           0       -0.387081   -1.242988   -0.294484
      4          9           0       -0.421358    0.822636   -0.976198
      5         16           0        1.873039    0.000270    0.000214
      6          8           0        2.287735   -0.560408    1.258366
      7          8           0        2.286932   -0.501568   -1.270127
      8          8           0        2.173519    1.574557   -0.000601
      9          9           0       -0.116696    1.532719    1.833486
     10          9           0       -1.872227    0.298702    1.441037
     11          1           0        2.251820    1.901972    0.905036
 ---------------------------------------------------------------------

 SCF Done:  E(UwB97XD) =  -1099.90247463     A.U. after    1 cycles

 Isotropic polarizability for W=    0.000000       54.22 Bohr**3.
 End of Minotr F.D. properties file   721 does not exist.

                      1                      2                      3
                      A                      A                      A
 Frequencies --     56.3302                64.6339               133.5767
 Red. masses --     17.3485                12.1738                12.2593
 Frc consts  --      0.0324                 0.0300                 0.1289
 IR Inten    --      0.3080                 1.8091                 4.4567

                      4                      5                      6
                      A                      A                      A
 Frequencies --    194.8559               216.9012               238.2597
 Red. masses --     13.6430                15.9399                 9.0495
 Frc consts  --      0.3052                 0.4418                 0.3027
 IR Inten    --      4.5275                 2.0203                 2.8922

                      7                      8                      9
                      A                      A                      A
 Frequencies --    285.5270               302.5975               317.2616
 Red. masses --     16.1396                 2.5780                 9.3075
 Frc consts  --      0.7752                 0.1391                 0.5520
 IR Inten    --      9.2998                49.5572                 8.6874

                     10                     11                     12
                      A                      A                      A
 Frequencies --    370.7370               432.9963               459.4069
 Red. masses --      2.5239                14.7487                 4.2018
 Frc consts  --      0.2044                 1.6292                 0.5225
 IR Inten    --     51.0923                 8.6453                37.6692

                     13                     14                     15
                      A                      A                      A
 Frequencies --    507.4896               591.0392               598.9115
 Red. masses --     15.5969                16.1349                19.2449
 Frc consts  --      2.3667                 3.3209                 4.0672
 IR Inten    --     11.9799                36.9454                89.6449

                     16                     17                     18
                      A                      A                      A
 Frequencies --    637.2684               763.4591               832.3379
 Red. masses --     16.0621                14.2413                17.3667
 Frc consts  --      3.8432                 4.8907                 7.0887
 IR Inten    --     34.3209                12.8154               203.0580

                     19                     20                     21
                      A                      A                      A
 Frequencies --   1012.1680              1124.7365              1135.9596
 Red. masses --     12.6293                 7.7912                 1.2783
 Frc consts  --      7.6231                 5.8071                 0.9719
 IR Inten    --    109.0468               195.5664                96.1492

                     22                     23                     24
                      A                      A                      A
 Frequencies --   1184.0085              1228.1357              1286.7194
 Red. masses --     13.7686                15.9523                12.7193
 Frc consts  --     11.3723                14.1764                12.4074
 IR Inten    --     50.0188               253.1419               177.3909

                     25                     26                     27
                      A                      A                      A
 Frequencies --   1376.4209              1440.2867              3834.4423
 Red. masses --     12.8383                13.9700                 1.0663
 Frc consts  --     14.3304                17.0743                 9.2370
 IR Inten    --    110.3897               269.9870               148.4694

 - Thermochemistry -
 -------------------
 Temperature   298.150 Kelvin.  Pressure   1.00000 Atm.
 Atom     1 has atomic number  6 and mass  12.00000

 Molecular mass:   180.95825 amu.
 Principal axes and moments of inertia in atomic units:
                           1         2         3
     Eigenvalues --   983.278391812.372312085.03137
           X            0.91813   0.37113  -0.13891
           Y           -0.12883   0.61104   0.78105
           Z           -0.37475   0.69921  -0.60882
 This molecule is an asymmetric top.
 Rotational symmetry number  1.
 Warning -- assumption of classical behavior for rotation
           may cause significant error
 Rotational temperatures (Kelvin)      0.08809     0.04779     0.04154
 Rotational constants (GHZ):           1.83543     0.99579     0.86557
 Zero-point vibrational energy     123373.7 (Joules/Mol)
                                   29.48702 (Kcal/Mol)
 Warning -- explicit consideration of  15 degrees of freedom as
           vibrations may cause significant error
 Vibrational temperatures:     81.05    92.99   192.19   280.35   312.07
          (Kelvin)            342.80   410.81   435.37   456.47   533.41
                              622.99   660.98   730.16   850.37   861.70
                              916.89  1098.45  1197.55  1456.28  1618.24
                             1634.39  1703.52  1767.01  1851.30  1980.36
                             2072.25  5516.91

 Zero-point correction=                           0.046991 (Hartree/Particle)
 Thermal correction to Energy=                    0.056839
 Thermal correction to Enthalpy=                  0.057783
 Thermal correction to Gibbs Free Energy=         0.010288
 Sum of electronic and zero-point Energies=          -1099.855484
 Sum of electronic and thermal Energies=             -1099.845636
 Sum of electronic and thermal Enthalpies=           -1099.844692
 Sum of electronic and thermal Free Energies=        -1099.892187

                     E (Thermal)             CV                S
                      KCal/Mol        Cal/Mol-Kelvin    Cal/Mol-Kelvin
 Total                   35.667             33.775             99.962
 Electronic               0.000              0.000              1.377
 Translational            0.889              2.981             41.486
 Rotational               0.889              2.981             29.698
 Vibrational             33.889             27.813             27.401
 Vibration     1          0.596              1.975              4.582
 Vibration     2          0.597              1.971              4.310
 Vibration     3          0.613              1.920              2.894
 Vibration     4          0.636              1.847              2.181
 Vibration     5          0.646              1.815              1.985
 Vibration     6          0.656              1.782              1.816
 Vibration     7          0.683              1.701              1.500
 Vibration     8          0.694              1.669              1.402
 Vibration     9          0.704              1.641              1.324
 Vibration    10          0.743              1.532              1.077
 Vibration    11          0.794              1.398              0.849
 Vibration    12          0.817              1.340              0.768
 Vibration    13          0.863              1.233              0.640
 Vibration    14          0.948              1.051              0.465
 Vibration    15          0.957              1.034              0.452

 Optimization completed.
    -- Stationary point found.
 Normal termination of Gaussian 16 at Fri May 23 02:21:54 2025.
