 Gaussian 16, Revision C.01,
 Gaussian 16:  ES64L-G16RevC.01  3-Jul-2019

 ----------------------------------------------------------------------
 #P wb97xd/6-311++G(d,p) Symm(None) scf(xqc) pop(None) freq opt(CalcFC,
  Tight)
 ----------------------------------------------------------------------

 ------------------------------
 Gaussian input prepared by ASE
 ------------------------------
 Symbolic Z-matrix:
 Charge =  0 Multiplicity = 2

 SCF Done:  E(UwB97XD) =  -1099.89832024     A.U. after   16 cycles
 SCF Done:  E(UwB97XD) =  -1099.90167692     A.U. after   14 cycles
 SCF Done:  E(UwB97XD) =  -1099.86632846     A.U. after   15 cycles
 SCF Done:  E(UwB97XD) =  -1099.90245557     A.U. after   13 cycles
 SCF Done:  E(UwB97XD) =  -1099.90300659     A.U. after   13 cycles
 SCF Done:  E(UwB97XD) =  -1099.90304182     A.U. after   12 cycles
 SCF Done:  E(UwB97XD) =  -1099.90304584     A.U. after   11 cycles
 SCF Done:  E(UwB97XD) =  -1099.90304614     A.U. after   10 cycles
 SCF Done:  E(UwB97XD) =  -1099.90304616     A.U. after    8 cycles
 SCF Done:  E(UwB97XD) =  -1099.90304616     A.U. after    6 cycles
 SCF Done:  E(UwB97XD) =  -1099.90304616     A.U. after    5 cycles
 Optimization completed.
    -- Stationary point found.
 Normal termination of Gaussian 16 at Fri May 23 02:20:05 2025.

 ----------------------------------------------------------------------
 #P Geom=AllCheck Guess=TCheck SCRF=Check GenChk UwB97XD/6-311++G(d,p)
 Freq
 ----------------------------------------------------------------------

 Structure from the checkpoint file:  "/tmp/Gau-105165.chk"
 ------------------------------
 Gaussian input prepared by ASE
 ------------------------------
 Charge =  0 Multiplicity = 2

                          Input orientation:
 ---------------------------------------------------------------------
 Center     Atomic      Atomic             Coordinates (Angstroms)
 Number     Number       Type             X           Y           Z
 ---------------------------------------------------------------------
      1          6           0       -0.537522    0.410775    1.339323
      2          6           0        0.071530    0.050557    0.005537
      3          9           0       -0.387766   -1.139723   -0.380244
      4          9           0       -0.228223    0.955940   -0.955128
      5         16           0        1.938132   -0.079602    0.072555
      6          8           0        2.284891   -0.664321    1.330216
      7          8           0        2.354999   -0.605276   -1.196773
      8          8           0        2.332220    1.472177    0.153683
      9          9           0       -0.139987    1.554071    1.849590
     10          9           0       -1.844748    0.272326    1.393501
     11          1           0        2.420239    1.841460   -0.734839
 ---------------------------------------------------------------------

 SCF Done:  E(UwB97XD) =  -1099.90304616     A.U. after    1 cycles

 Isotropic polarizability for W=    0.000000       54.33 Bohr**3.
 End of Minotr F.D. properties file   721 does not exist.

                      1                      2                      3
                      A                      A                      A
 Frequencies --     45.8294                58.8166               128.3825
 Red. masses --     15.0796                14.1109                16.8606
 Frc consts  --      0.0187                 0.0288                 0.1637
 IR Inten    --      0.9758                 1.2943                 0.7481

                      4                      5                      6
                      A                      A                      A
 Frequencies --    185.8262               216.8200               241.9431
 Red. masses --      5.7065                18.2144                15.5186
 Frc consts  --      0.1161                 0.5045                 0.5352
 IR Inten    --     15.2949                 1.0122                 8.4726

                      7                      8                      9
                      A                      A                      A
 Frequencies --    285.0511               312.0913               326.8206
 Red. masses --     10.2233                 6.4961                 3.3758
 Frc consts  --      0.4894                 0.3728                 0.2124
 IR Inten    --      1.1846                10.5800                28.4875

                     10                     11                     12
                      A                      A                      A
 Frequencies --    361.1289               438.4796               456.7058
 Red. masses --      2.6169                14.9317                 4.2128
 Frc consts  --      0.2011                 1.6914                 0.5177
 IR Inten    --     41.7044                11.8924                38.0259

                     13                     14                     15
                      A                      A                      A
 Frequencies --    507.6133               590.8118               595.4985
 Red. masses --     14.2974                16.9053                18.3227
 Frc consts  --      2.1706                 3.4767                 3.8283
 IR Inten    --     16.8179                46.7470                64.9169

                     16                     17                     18
                      A                      A                      A
 Frequencies --    631.3243               760.3056               829.9900
 Red. masses --     16.7128                14.4594                17.2519
 Frc consts  --      3.9247                 4.9247                 7.0022
 IR Inten    --     47.4460                13.3350               201.6651

                     19                     20                     21
                      A                      A                      A
 Frequencies --   1013.1725              1098.4826              1132.1585
 Red. masses --     13.3680                12.8250                 1.1974
 Frc consts  --      8.0851                 9.1179                 0.9043
 IR Inten    --    121.9898               191.3205                83.2382

                     22                     23                     24
                      A                      A                      A
 Frequencies --   1186.2947              1232.8240              1302.6109
 Red. masses --     13.7585                15.4935                13.3006
 Frc consts  --     11.4079                13.8740                13.2969
 IR Inten    --     34.8090               236.4149               249.3092

                     25                     26                     27
                      A                      A                      A
 Frequencies --   1380.9133              1438.3792              3833.4282
 Red. masses --     12.7743                14.0233                 1.0662
 Frc consts  --     14.3523                17.0941                 9.2317
 IR Inten    --     79.0928               273.3269               162.2236

 - Thermochemistry -
 -------------------
 Temperature   298.150 Kelvin.  Pressure   1.00000 Atm.
 Atom     1 has atomic number  6 and mass  12.00000

 Molecular mass:   180.95825 amu.
 Principal axes and moments of inertia in atomic units:
                           1         2         3
     Eigenvalues --   978.306151845.158642088.29653
           X            0.92200   0.37645  -0.09058
           Y           -0.15997   0.58338   0.79629
           Z           -0.35261   0.71969  -0.59810
 This molecule is an asymmetric top.
 Rotational symmetry number  1.
 Warning -- assumption of classical behavior for rotation
           may cause significant error
 Rotational temperatures (Kelvin)      0.08853     0.04694     0.04148
 Rotational constants (GHZ):           1.84476     0.97810     0.86422
 Zero-point vibrational energy     123165.7 (Joules/Mol)
                                   29.43732 (Kcal/Mol)
 Warning -- explicit consideration of  15 degrees of freedom as
           vibrations may cause significant error
 Vibrational temperatures:     65.94    84.62   184.71   267.36   311.96
          (Kelvin)            348.10   410.12   449.03   470.22   519.58
                              630.87   657.10   730.34   850.05   856.79
                              908.33  1093.91  1194.17  1457.73  1580.47
                             1628.92  1706.81  1773.76  1874.17  1986.83
                             2069.51  5515.45

 Zero-point correction=                           0.046911 (Hartree/Particle)
 Thermal correction to Energy=                    0.056805
 Thermal correction to Enthalpy=                  0.057749
 Thermal correction to Gibbs Free Energy=         0.009920
 Sum of electronic and zero-point Energies=          -1099.856135
 Sum of electronic and thermal Energies=             -1099.846241
 Sum of electronic and thermal Enthalpies=           -1099.845297
 Sum of electronic and thermal Free Energies=        -1099.893126

                     E (Thermal)             CV                S
                      KCal/Mol        Cal/Mol-Kelvin    Cal/Mol-Kelvin
 Total                   35.646             33.810            100.665
 Electronic               0.000              0.000              1.377
 Translational            0.889              2.981             41.486
 Rotational               0.889              2.981             29.712
 Vibrational             33.868             27.849             28.089
 Vibration     1          0.595              1.979              4.990
 Vibration     2          0.596              1.974              4.497
 Vibration     3          0.611              1.925              2.970
 Vibration     4          0.632              1.859              2.269
 Vibration     5          0.646              1.815              1.985
 Vibration     6          0.658              1.776              1.789
 Vibration     7          0.683              1.701              1.503
 Vibration     8          0.700              1.651              1.351
 Vibration     9          0.710              1.622              1.276
 Vibration    10          0.735              1.552              1.117
 Vibration    11          0.799              1.386              0.831
 Vibration    12          0.815              1.346              0.776
 Vibration    13          0.863              1.233              0.639
 Vibration    14          0.948              1.051              0.466
 Vibration    15          0.953              1.041              0.457

 Optimization completed.
    -- Stationary point found.
 Normal termination of Gaussian 16 at Fri May 23 02:21:38 2025.
