 Gaussian 16, Revision C.01,
 Gaussian 16:  ES64L-G16RevC.01  3-Jul-2019

 ----------------------------------------------------------------------
 #P wb97xd/6-311++G(d,p) Symm(None) scf(xqc) pop(None) freq opt(CalcFC,
  Tight)
 ----------------------------------------------------------------------

 ------------------------------
 Gaussian input prepared by ASE
 ------------------------------
 Symbolic Z-matrix:
 Charge =  0 Multiplicity = 2

 SCF Done:  E(UwB97XD) =  -1099.89099876     A.U. after   17 cycles
 SCF Done:  E(UwB97XD) =  -1099.89750517     A.U. after   14 cycles
 SCF Done:  E(UwB97XD) =  -1099.89907730     A.U. after   14 cycles
 SCF Done:  E(UwB97XD) =  -1099.89984231     A.U. after   15 cycles
 SCF Done:  E(UwB97XD) =  -1099.90013692     A.U. after   14 cycles
 SCF Done:  E(UwB97XD) =  -1099.90024789     A.U. after   13 cycles
 SCF Done:  E(UwB97XD) =  -1099.90033318     A.U. after   12 cycles
 SCF Done:  E(UwB97XD) =  -1099.90042126     A.U. after   13 cycles
 SCF Done:  E(UwB97XD) =  -1099.90052234     A.U. after   13 cycles
 SCF Done:  E(UwB97XD) =  -1099.90066750     A.U. after   13 cycles
 SCF Done:  E(UwB97XD) =  -1099.90084455     A.U. after   13 cycles
 SCF Done:  E(UwB97XD) =  -1099.90095653     A.U. after   13 cycles
 SCF Done:  E(UwB97XD) =  -1099.90100593     A.U. after   13 cycles
 SCF Done:  E(UwB97XD) =  -1099.90100701     A.U. after   11 cycles
 SCF Done:  E(UwB97XD) =  -1099.90100793     A.U. after   11 cycles
 SCF Done:  E(UwB97XD) =  -1099.90100797     A.U. after   10 cycles
 SCF Done:  E(UwB97XD) =  -1099.90100797     A.U. after    6 cycles
 Optimization completed.
    -- Stationary point found.
 Normal termination of Gaussian 16 at Fri May 23 02:21:27 2025.

 ----------------------------------------------------------------------
 #P Geom=AllCheck Guess=TCheck SCRF=Check GenChk UwB97XD/6-311++G(d,p)
 Freq
 ----------------------------------------------------------------------

 Structure from the checkpoint file:  "/tmp/Gau-109566.chk"
 ------------------------------
 Gaussian input prepared by ASE
 ------------------------------
 Charge =  0 Multiplicity = 2

                          Input orientation:
 ---------------------------------------------------------------------
 Center     Atomic      Atomic             Coordinates (Angstroms)
 Number     Number       Type             X           Y           Z
 ---------------------------------------------------------------------
      1          6           0       -0.630973    0.841986   -1.125674
      2          6           0       -0.042649   -0.020030   -0.025990
      3          9           0       -0.498660    0.393233    1.154510
      4          9           0       -0.349995   -1.318925   -0.187848
      5         16           0        1.826745    0.074496    0.008690
      6          8           0        2.264322   -0.667229    1.147377
      7          8           0        2.305759   -0.154395   -1.327986
      8          8           0        1.997067    1.636243    0.353303
      9          9           0       -0.503098    0.365220   -2.341207
     10          9           0       -1.845471    1.288450   -0.893120
     11          1           0        2.199502    2.129184   -0.452085
 ---------------------------------------------------------------------

 SCF Done:  E(UwB97XD) =  -1099.90100797     A.U. after    1 cycles

 Isotropic polarizability for W=    0.000000       54.47 Bohr**3.
 End of Minotr F.D. properties file   721 does not exist.

                      1                      2                      3
                      A                      A                      A
 Frequencies --     34.1736                53.2605               134.9231
 Red. masses --     13.5653                15.3550                11.9374
 Frc consts  --      0.0093                 0.0257                 0.1280
 IR Inten    --      0.8874                 0.9935                 3.6416

                      4                      5                      6
                      A                      A                      A
 Frequencies --    185.0647               222.4960               239.3815
 Red. masses --     16.8793                12.8649                 5.1924
 Frc consts  --      0.3406                 0.3752                 0.1753
 IR Inten    --      3.1143                 3.5345                10.1248

                      7                      8                      9
                      A                      A                      A
 Frequencies --    285.1730               292.3007               320.5336
 Red. masses --      2.1700                16.4435                16.1515
 Frc consts  --      0.1040                 0.8278                 0.9777
 IR Inten    --     67.1629                10.4429                 2.0137

                     10                     11                     12
                      A                      A                      A
 Frequencies --    342.7934               436.9162               463.1344
 Red. masses --      3.5617                 4.4898                10.9030
 Frc consts  --      0.2466                 0.5050                 1.3779
 IR Inten    --     32.1257                12.7927                25.5903

                     13                     14                     15
                      A                      A                      A
 Frequencies --    506.6447               579.4542               592.5215
 Red. masses --     15.5953                16.8797                16.0786
 Frc consts  --      2.3586                 3.3393                 3.3259
 IR Inten    --     19.3928                65.9086                 4.0217

                     16                     17                     18
                      A                      A                      A
 Frequencies --    624.8772               760.9488               822.9051
 Red. masses --     17.1629                14.2472                17.7668
 Frc consts  --      3.9485                 4.8606                 7.0886
 IR Inten    --     79.8561                 4.6806               236.8388

                     19                     20                     21
                      A                      A                      A
 Frequencies --    999.3737              1117.2392              1120.5614
 Red. masses --     13.3560                 1.5905                 3.6219
 Frc consts  --      7.8593                 1.1697                 2.6795
 IR Inten    --    127.1480               133.8046                39.3316

                     22                     23                     24
                      A                      A                      A
 Frequencies --   1207.4154              1225.1659              1307.0524
 Red. masses --     15.3723                12.8587                13.3935
 Frc consts  --     13.2040                11.3720                13.4812
 IR Inten    --    241.9455                69.8349               242.6582

                     25                     26                     27
                      A                      A                      A
 Frequencies --   1379.3285              1438.1292              3839.2106
 Red. masses --     12.8573                14.2964                 1.0664
 Frc consts  --     14.4124                17.4210                 9.2610
 IR Inten    --     90.4120               292.6316               154.8609

 - Thermochemistry -
 -------------------
 Temperature   298.150 Kelvin.  Pressure   1.00000 Atm.
 Atom     1 has atomic number  6 and mass  12.00000

 Molecular mass:   180.95825 amu.
 Principal axes and moments of inertia in atomic units:
                           1         2         3
     Eigenvalues --   992.930031890.161842058.18194
           X            0.91368  -0.39722   0.08606
           Y           -0.15959  -0.15589   0.97480
           Z            0.37380   0.90438   0.20583
 This molecule is an asymmetric top.
 Rotational symmetry number  1.
 Warning -- assumption of classical behavior for rotation
           may cause significant error
 Rotational temperatures (Kelvin)      0.08723     0.04582     0.04208
 Rotational constants (GHZ):           1.81759     0.95481     0.87686
 Zero-point vibrational energy     122802.5 (Joules/Mol)
                                   29.35051 (Kcal/Mol)
 Warning -- explicit consideration of  15 degrees of freedom as
           vibrations may cause significant error
 Vibrational temperatures:     49.17    76.63   194.12   266.27   320.12
          (Kelvin)            344.42   410.30   420.56   461.18   493.20
                              628.62   666.35   728.95   833.71   852.51
                              899.06  1094.84  1183.98  1437.88  1607.46
                             1612.24  1737.20  1762.74  1880.56  1984.55
                             2069.15  5523.77

 Zero-point correction=                           0.046773 (Hartree/Particle)
 Thermal correction to Energy=                    0.056750
 Thermal correction to Enthalpy=                  0.057694
 Thermal correction to Gibbs Free Energy=         0.009420
 Sum of electronic and zero-point Energies=          -1099.854235
 Sum of electronic and thermal Energies=             -1099.844258
 Sum of electronic and thermal Enthalpies=           -1099.843314
 Sum of electronic and thermal Free Energies=        -1099.891588

                     E (Thermal)             CV                S
                      KCal/Mol        Cal/Mol-Kelvin    Cal/Mol-Kelvin
 Total                   35.611             33.937            101.602
 Electronic               0.000              0.000              1.377
 Translational            0.889              2.981             41.486
 Rotational               0.889              2.981             29.736
 Vibrational             33.834             27.975             29.003
 Vibration     1          0.594              1.983              5.571
 Vibration     2          0.596              1.976              4.692
 Vibration     3          0.613              1.918              2.875
 Vibration     4          0.631              1.860              2.277
 Vibration     5          0.648              1.807              1.939
 Vibration     6          0.657              1.780              1.807
 Vibration     7          0.683              1.701              1.502
 Vibration     8          0.688              1.688              1.461
 Vibration     9          0.706              1.634              1.307
 Vibration    10          0.722              1.590              1.199
 Vibration    11          0.797              1.390              0.836
 Vibration    12          0.821              1.332              0.757
 Vibration    13          0.862              1.235              0.642
 Vibration    14          0.936              1.076              0.486
 Vibration    15          0.950              1.048              0.463

 Optimization completed.
    -- Stationary point found.
 Normal termination of Gaussian 16 at Fri May 23 02:22:59 2025.
