 Gaussian 16, Revision C.01,
 Gaussian 16:  ES64L-G16RevC.01  3-Jul-2019

 ----------------------------------------------------------------------
 #P wb97xd/6-311++G(d,p) Symm(None) scf(xqc) pop(None) freq opt(CalcFC,
  Tight)
 ----------------------------------------------------------------------

 ------------------------------
 Gaussian input prepared by ASE
 ------------------------------
 Symbolic Z-matrix:
 Charge =  0 Multiplicity = 2

 SCF Done:  E(UwB97XD) =  -1099.90700313     A.U. after   17 cycles
 SCF Done:  E(UwB97XD) =  -1099.91354252     A.U. after   15 cycles
 SCF Done:  E(UwB97XD) =  -1099.91510027     A.U. after   15 cycles
 SCF Done:  E(UwB97XD) =  -1099.91560720     A.U. after   14 cycles
 SCF Done:  E(UwB97XD) =  -1099.91584032     A.U. after   14 cycles
 SCF Done:  E(UwB97XD) =  -1099.91602924     A.U. after   14 cycles
 SCF Done:  E(UwB97XD) =  -1099.91607532     A.U. after   12 cycles
 SCF Done:  E(UwB97XD) =  -1099.91608854     A.U. after   13 cycles
 SCF Done:  E(UwB97XD) =  -1099.91609065     A.U. after   12 cycles
 SCF Done:  E(UwB97XD) =  -1099.91609071     A.U. after    8 cycles
 SCF Done:  E(UwB97XD) =  -1099.91609072     A.U. after    8 cycles
 SCF Done:  E(UwB97XD) =  -1099.91609072     A.U. after    7 cycles
 Optimization completed.
    -- Stationary point found.
 Normal termination of Gaussian 16 at Fri May 23 02:21:24 2025.

 ----------------------------------------------------------------------
 #P Geom=AllCheck Guess=TCheck SCRF=Check GenChk UwB97XD/6-311++G(d,p)
 Freq
 ----------------------------------------------------------------------

 Structure from the checkpoint file:  "/tmp/Gau-143283.chk"
 ------------------------------
 Gaussian input prepared by ASE
 ------------------------------
 Charge =  0 Multiplicity = 2

                          Input orientation:
 ---------------------------------------------------------------------
 Center     Atomic      Atomic             Coordinates (Angstroms)
 Number     Number       Type             X           Y           Z
 ---------------------------------------------------------------------
      1          6           0        3.447087   -1.036331    1.946487
      2          6           0        2.072594   -0.466729    1.673292
      3          9           0        1.490008    0.135858    2.685118
      4         16           0        1.492054    0.047626    0.074483
      5          8           0        2.318044   -0.594317   -0.897011
      6          8           0        0.057928   -0.037715    0.093295
      7          8           0        1.890280    1.608115    0.084128
      8          9           0        3.668174   -2.118911    1.212141
      9          9           0        4.409379   -0.144082    1.679016
     10          9           0        3.535304   -1.362521    3.235311
     11          1           0        1.117840    2.142333    0.310147
 ---------------------------------------------------------------------

 SCF Done:  E(UwB97XD) =  -1099.91609072     A.U. after    1 cycles

 Isotropic polarizability for W=    0.000000       53.62 Bohr**3.
 End of Minotr F.D. properties file   721 does not exist.

                      1                      2                      3
                      A                      A                      A
 Frequencies --     34.7987                42.8932               125.5204
 Red. masses --     15.6463                13.1401                15.8051
 Frc consts  --      0.0112                 0.0142                 0.1467
 IR Inten    --      0.9952                 0.6678                 1.2243

                      4                      5                      6
                      A                      A                      A
 Frequencies --    148.7324               233.2936               250.0978
 Red. masses --      9.9581                 5.7371                 8.6820
 Frc consts  --      0.1298                 0.1840                 0.3200
 IR Inten    --      3.6405                16.7917                13.3709

                      7                      8                      9
                      A                      A                      A
 Frequencies --    295.5285               308.3731               336.8494
 Red. masses --      5.8824                 2.4295                 5.8773
 Frc consts  --      0.3027                 0.1361                 0.3929
 IR Inten    --      4.7470                44.3745                18.0100

                     10                     11                     12
                      A                      A                      A
 Frequencies --    427.5508               453.0217               483.4303
 Red. masses --      7.1271                 6.0325                11.5436
 Frc consts  --      0.7676                 0.7294                 1.5895
 IR Inten    --     15.2759                17.7688                19.5980

                     13                     14                     15
                      A                      A                      A
 Frequencies --    510.6925               587.2443               602.6645
 Red. masses --     15.3160                16.2909                16.2053
 Frc consts  --      2.3535                 3.3100                 3.4678
 IR Inten    --     10.5480                 4.3168                45.5047

                     16                     17                     18
                      A                      A                      A
 Frequencies --    610.3769               748.2141               814.7268
 Red. masses --     17.7417                16.9072                17.7245
 Frc consts  --      3.8944                 5.5767                 6.9318
 IR Inten    --    101.2055                16.6931               208.9277

                     19                     20                     21
                      A                      A                      A
 Frequencies --   1012.5943              1125.0855              1165.9136
 Red. masses --     13.5946                 1.2064                13.1456
 Frc consts  --      8.2127                 0.8997                10.5284
 IR Inten    --     63.6378                64.2151               249.9407

                     22                     23                     24
                      A                      A                      A
 Frequencies --   1194.6680              1229.4683              1250.6753
 Red. masses --     14.9230                13.4145                12.7793
 Frc consts  --     12.5487                11.9470                11.7773
 IR Inten    --    133.9848               354.2463               223.2337

                     25                     26                     27
                      A                      A                      A
 Frequencies --   1393.7552              1441.4782              3835.8748
 Red. masses --     12.9097                14.1691                 1.0664
 Frc consts  --     14.7754                17.3464                 9.2445
 IR Inten    --    116.2480               296.6858               170.7708

 - Thermochemistry -
 -------------------
 Temperature   298.150 Kelvin.  Pressure   1.00000 Atm.
 Atom     1 has atomic number  6 and mass  12.00000

 Molecular mass:   180.95825 amu.
 Principal axes and moments of inertia in atomic units:
                           1         2         3
     Eigenvalues --   912.162632036.190752274.74138
           X            0.66547  -0.52800   0.52760
           Y           -0.40746   0.33525   0.84946
           Z            0.62539   0.78027  -0.00796
 This molecule is an asymmetric top.
 Rotational symmetry number  1.
 Warning -- assumption of classical behavior for rotation
           may cause significant error
 Rotational temperatures (Kelvin)      0.09495     0.04254     0.03808
 Rotational constants (GHZ):           1.97853     0.88633     0.79338
 Zero-point vibrational energy     123595.3 (Joules/Mol)
                                   29.53999 (Kcal/Mol)
 Warning -- explicit consideration of  16 degrees of freedom as
           vibrations may cause significant error
 Vibrational temperatures:     50.07    61.71   180.60   213.99   335.66
          (Kelvin)            359.84   425.20   443.68   484.65   615.15
                              651.80   695.55   734.77   844.91   867.10
                              878.20  1076.51  1172.21  1456.90  1618.75
                             1677.49  1718.86  1768.93  1799.44  2005.30
                             2073.97  5518.97

 Zero-point correction=                           0.047075 (Hartree/Particle)
 Thermal correction to Energy=                    0.056948
 Thermal correction to Enthalpy=                  0.057893
 Thermal correction to Gibbs Free Energy=         0.009527
 Sum of electronic and zero-point Energies=          -1099.869016
 Sum of electronic and thermal Energies=             -1099.859142
 Sum of electronic and thermal Enthalpies=           -1099.858198
 Sum of electronic and thermal Free Energies=        -1099.906564

                     E (Thermal)             CV                S
                      KCal/Mol        Cal/Mol-Kelvin    Cal/Mol-Kelvin
 Total                   35.736             33.609            101.794
 Electronic               0.000              0.000              1.377
 Translational            0.889              2.981             41.486
 Rotational               0.889              2.981             29.825
 Vibrational             33.958             27.647             29.105
 Vibration     1          0.594              1.983              5.535
 Vibration     2          0.595              1.980              5.121
 Vibration     3          0.610              1.928              3.014
 Vibration     4          0.618              1.904              2.688
 Vibration     5          0.654              1.790              1.853
 Vibration     6          0.663              1.763              1.730
 Vibration     7          0.690              1.682              1.442
 Vibration     8          0.698              1.658              1.371
 Vibration     9          0.718              1.602              1.227
 Vibration    10          0.789              1.410              0.867
 Vibration    11          0.812              1.354              0.787
 Vibration    12          0.840              1.287              0.701
 Vibration    13          0.866              1.226              0.632
 Vibration    14          0.944              1.059              0.472
 Vibration    15          0.961              1.026              0.445
 Vibration    16          0.969              1.010              0.432

 Optimization completed.
    -- Stationary point found.
 Normal termination of Gaussian 16 at Fri May 23 02:22:49 2025.
