 Gaussian 16, Revision C.01,
 Gaussian 16:  ES64L-G16RevC.01  3-Jul-2019

 ----------------------------------------------------------------------
 #P wb97xd/6-311++G(d,p) Symm(None) scf(xqc) pop(None) freq opt(CalcFC,
  Tight)
 ----------------------------------------------------------------------

 ------------------------------
 Gaussian input prepared by ASE
 ------------------------------
 Symbolic Z-matrix:
 Charge =  0 Multiplicity = 2

 SCF Done:  E(UwB97XD) =  -1123.96964276     A.U. after   18 cycles
 Optimization completed.
    -- Stationary point found.
 Normal termination of Gaussian 16 at Fri May 23 02:16:45 2025.

 ----------------------------------------------------------------------
 #P Geom=AllCheck Guess=TCheck SCRF=Check GenChk UwB97XD/6-311++G(d,p)
 Freq
 ----------------------------------------------------------------------

 Structure from the checkpoint file:  "/tmp/Gau-258098.chk"
 ------------------------------
 Gaussian input prepared by ASE
 ------------------------------
 Charge =  0 Multiplicity = 2

                          Input orientation:
 ---------------------------------------------------------------------
 Center     Atomic      Atomic             Coordinates (Angstroms)
 Number     Number       Type             X           Y           Z
 ---------------------------------------------------------------------
      1          6           0       -0.721309    0.301745    1.337620
      2          6           0       -0.087362   -0.083339   -0.025290
      3          9           0       -0.396097   -1.330611   -0.347327
      4          9           0       -0.505489    0.747216   -0.971254
      5         16           0        1.855312    0.073895    0.005926
      6          8           0        2.287915   -0.706753    1.161443
      7          8           0        2.250273   -0.263874   -1.357416
      8          9           0       -0.481318   -0.623757    2.248478
      9          9           0       -0.215226    1.465661    1.743366
     10          9           0       -2.035113    0.433568    1.188625
 ---------------------------------------------------------------------

 SCF Done:  E(UwB97XD) =  -1123.96964276     A.U. after    1 cycles

 Isotropic polarizability for W=    0.000000       54.63 Bohr**3.
 End of Minotr F.D. properties file   721 does not exist.

                      1                      2                      3
                      A                      A                      A
 Frequencies --     36.8770                59.8427               123.5847
 Red. masses --     16.6935                18.8711                17.6961
 Frc consts  --      0.0134                 0.0398                 0.1592
 IR Inten    --      1.0181                 0.2546                 1.2082

                      4                      5                      6
                      A                      A                      A
 Frequencies --    194.0974               221.6800               226.2049
 Red. masses --     17.4797                18.5509                18.0378
 Frc consts  --      0.3880                 0.5371                 0.5438
 IR Inten    --      6.8857                 1.3901                 1.2446

                      7                      8                      9
                      A                      A                      A
 Frequencies --    256.5874               314.5765               369.9949
 Red. masses --     18.5102                18.7968                18.6985
 Frc consts  --      0.7180                 1.0959                 1.5082
 IR Inten    --      2.9581                 0.7174                 0.6903

                     10                     11                     12
                      A                      A                      A
 Frequencies --    405.0681               471.2903               484.5277
 Red. masses --     20.7168                20.4581                19.3905
 Frc consts  --      2.0028                 2.6773                 2.6821
 IR Inten    --     12.0382                28.6293                29.3750

                     13                     14                     15
                      A                      A                      A
 Frequencies --    543.8012               597.5089               645.5811
 Red. masses --     18.1389                17.9600                17.2808
 Frc consts  --      3.1604                 3.7779                 4.2434
 IR Inten    --      2.4387                 2.2039                13.3938

                     16                     17                     18
                      A                      A                      A
 Frequencies --    754.6030               919.7708              1093.2670
 Red. masses --     16.6076                13.6816                17.6910
 Frc consts  --      5.5718                 6.8194                12.4582
 IR Inten    --     39.5960               148.0688                62.9005

                     19                     20                     21
                      A                      A                      A
 Frequencies --   1149.3869              1223.4423              1241.6666
 Red. masses --     13.8229                13.1428                13.2931
 Frc consts  --     10.7592                11.5906                12.0750
 IR Inten    --    175.7831               186.9491               153.1355

                     22                     23                     24
                      A                      A                      A
 Frequencies --   1257.4781              1296.8097              1348.0534
 Red. masses --     13.4854                19.2278                12.7203
 Frc consts  --     12.5636                19.0516                13.6195
 IR Inten    --    279.3443               236.9264               157.3673

 - Thermochemistry -
 -------------------
 Temperature   298.150 Kelvin.  Pressure   1.00000 Atm.
 Atom     1 has atomic number  6 and mass  12.00000

 Molecular mass:   182.95392 amu.
 Principal axes and moments of inertia in atomic units:
                           1         2         3
     Eigenvalues --   968.048301867.201802140.51179
           X            0.85908   0.48322   0.16875
           Y           -0.16529  -0.05011   0.98497
           Z           -0.48441   0.87407  -0.03683
 This molecule is an asymmetric top.
 Rotational symmetry number  1.
 Warning -- assumption of classical behavior for rotation
           may cause significant error
 Rotational temperatures (Kelvin)      0.08947     0.04639     0.04046
 Rotational constants (GHZ):           1.86431     0.96655     0.84314
 Zero-point vibrational energy      91129.7 (Joules/Mol)
                                   21.78053 (Kcal/Mol)
 Warning -- explicit consideration of  14 degrees of freedom as
           vibrations may cause significant error
 Vibrational temperatures:     53.06    86.10   177.81   279.26   318.95
          (Kelvin)            325.46   369.17   452.61   532.34   582.80
                              678.08   697.13   782.41   859.68   928.85
                             1085.71  1323.35  1572.97  1653.71  1760.26
                             1786.48  1809.23  1865.82  1939.55

 Zero-point correction=                           0.034709 (Hartree/Particle)
 Thermal correction to Energy=                    0.044277
 Thermal correction to Enthalpy=                  0.045221
 Thermal correction to Gibbs Free Energy=        -0.002347
 Sum of electronic and zero-point Energies=          -1123.934933
 Sum of electronic and thermal Energies=             -1123.925366
 Sum of electronic and thermal Enthalpies=           -1123.924421
 Sum of electronic and thermal Free Energies=        -1123.971990

                     E (Thermal)             CV                S
                      KCal/Mol        Cal/Mol-Kelvin    Cal/Mol-Kelvin
 Total                   27.784             31.963            100.117
 Electronic               0.000              0.000              1.377
 Translational            0.889              2.981             41.519
 Rotational               0.889              2.981             29.738
 Vibrational             26.007             26.001             27.483
 Vibration     1          0.594              1.982              5.420
 Vibration     2          0.597              1.973              4.462
 Vibration     3          0.610              1.929              3.044
 Vibration     4          0.635              1.848              2.188
 Vibration     5          0.648              1.808              1.945
 Vibration     6          0.650              1.801              1.909
 Vibration     7          0.666              1.752              1.685
 Vibration     8          0.702              1.646              1.338
 Vibration     9          0.742              1.534              1.080
 Vibration    10          0.770              1.459              0.944
 Vibration    11          0.828              1.314              0.734
 Vibration    12          0.841              1.284              0.698
 Vibration    13          0.899              1.153              0.557
 Vibration    14          0.955              1.037              0.454

 Optimization completed.
    -- Stationary point found.
 Normal termination of Gaussian 16 at Fri May 23 02:18:07 2025.
