 Gaussian 16, Revision C.01,
 Gaussian 16:  ES64L-G16RevC.01  3-Jul-2019

 ----------------------------------------------------------------------
 #P wb97xd/6-311++G(d,p) Symm(None) scf(xqc) pop(None) freq opt(CalcFC,
  Tight)
 ----------------------------------------------------------------------

 ------------------------------
 Gaussian input prepared by ASE
 ------------------------------
 Symbolic Z-matrix:
 Charge =  0 Multiplicity = 1

 SCF Done:  E(RwB97XD) =  -1124.61855605     A.U. after   15 cycles
 SCF Done:  E(RwB97XD) =  -1124.62059379     A.U. after   13 cycles
 SCF Done:  E(RwB97XD) =  -1124.62070348     A.U. after   13 cycles
 SCF Done:  E(RwB97XD) =  -1124.62073180     A.U. after   12 cycles
 SCF Done:  E(RwB97XD) =  -1124.62073799     A.U. after   11 cycles
 SCF Done:  E(RwB97XD) =  -1124.62074063     A.U. after   12 cycles
 SCF Done:  E(RwB97XD) =  -1124.62074068     A.U. after   10 cycles
 SCF Done:  E(RwB97XD) =  -1124.62074069     A.U. after    9 cycles
 SCF Done:  E(RwB97XD) =  -1124.62074069     A.U. after    7 cycles
 Optimization completed.
    -- Stationary point found.
 Normal termination of Gaussian 16 at Fri May 23 02:21:27 2025.

 ----------------------------------------------------------------------
 #P Geom=AllCheck Guess=TCheck SCRF=Check GenChk RwB97XD/6-311++G(d,p)
 Freq
 ----------------------------------------------------------------------

 Structure from the checkpoint file:  "/tmp/Gau-237202.chk"
 ------------------------------
 Gaussian input prepared by ASE
 ------------------------------
 Charge =  0 Multiplicity = 1

                          Input orientation:
 ---------------------------------------------------------------------
 Center     Atomic      Atomic             Coordinates (Angstroms)
 Number     Number       Type             X           Y           Z
 ---------------------------------------------------------------------
      1          6           0       -0.675303    0.693896    1.241718
      2          6           0        0.019264    0.022935    0.033246
      3          9           0       -0.285697   -1.277069    0.027679
      4          9           0       -0.423801    0.585592   -1.102124
      5         16           0        1.933395    0.118584    0.048658
      6          8           0        2.289303   -0.617319   -1.165792
      7          8           0        1.992689    1.732630   -0.222977
      8          9           0       -0.102043    0.269354    2.369385
      9          9           0       -0.568826    2.015491    1.177257
     10          9           0       -1.964390    0.372673    1.271647
     11          1           0        1.586005    1.963578   -1.070888
 ---------------------------------------------------------------------

 SCF Done:  E(RwB97XD) =  -1124.62074069     A.U. after    1 cycles

 Isotropic polarizability for W=    0.000000       54.16 Bohr**3.
 End of Minotr F.D. properties file   721 does not exist.

                      1                      2                      3
                      A                      A                      A
 Frequencies --     17.3716                67.4737               133.2151
 Red. masses --     12.0580                15.6806                16.8296
 Frc consts  --      0.0021                 0.0421                 0.1760
 IR Inten    --      0.6306                 0.5934                 2.8183

                      4                      5                      6
                      A                      A                      A
 Frequencies --    201.4702               227.1108               244.6174
 Red. masses --      6.4580                15.8910                14.9777
 Frc consts  --      0.1544                 0.4829                 0.5280
 IR Inten    --      8.5586                 0.1143                 3.7627

                      7                      8                      9
                      A                      A                      A
 Frequencies --    270.4583               316.9745               351.3551
 Red. masses --     12.2774                 7.3973                 2.9493
 Frc consts  --      0.5291                 0.4379                 0.2145
 IR Inten    --      1.7319                 5.9887                15.2280

                     10                     11                     12
                      A                      A                      A
 Frequencies --    374.6976               425.8893               473.0532
 Red. masses --      6.6242                18.0742                 2.3421
 Frc consts  --      0.5480                 1.9315                 0.3088
 IR Inten    --      9.1288                 9.1778               148.6401

                     13                     14                     15
                      A                      A                      A
 Frequencies --    509.0668               545.3656               598.4387
 Red. masses --     11.7052                16.8537                17.0013
 Frc consts  --      1.7872                 2.9534                 3.5873
 IR Inten    --     32.4250                 5.9072                 4.7445

                     16                     17                     18
                      A                      A                      A
 Frequencies --    652.6984               756.9378               764.5566
 Red. masses --     16.7224                16.9610                16.7059
 Frc consts  --      4.1973                 5.7256                 5.7536
 IR Inten    --     19.2290                33.0394               139.7289

                     19                     20                     21
                      A                      A                      A
 Frequencies --    970.1962              1117.9152              1152.2451
 Red. masses --     13.3772                 1.3016                13.6210
 Frc consts  --      7.4188                 0.9584                10.6549
 IR Inten    --     93.3808                72.7817               136.6205

                     22                     23                     24
                      A                      A                      A
 Frequencies --   1207.0087              1226.4994              1232.1854
 Red. masses --      9.9466                12.7338                 8.8477
 Frc consts  --      8.5378                11.2861                 7.9146
 IR Inten    --     75.9785               254.1928               198.8374

                     25                     26                     27
                      A                      A                      A
 Frequencies --   1244.3185              1352.0008              3787.3606
 Red. masses --     12.5593                12.6861                 1.0656
 Frc consts  --     11.4572                13.6626                 9.0061
 IR Inten    --    410.0635               121.7300                92.7484

 - Thermochemistry -
 -------------------
 Temperature   298.150 Kelvin.  Pressure   1.00000 Atm.
 Atom     1 has atomic number  6 and mass  12.00000

 Molecular mass:   183.96174 amu.
 Principal axes and moments of inertia in atomic units:
                           1         2         3
     Eigenvalues --   973.648761916.563842127.48575
           X            0.83361   0.37431   0.40619
           Y           -0.14228   0.85607  -0.49689
           Z           -0.53371   0.35642   0.76689
 This molecule is an asymmetric top.
 Rotational symmetry number  1.
 Warning -- assumption of classical behavior for rotation
           may cause significant error
 Rotational temperatures (Kelvin)      0.08896     0.04519     0.04071
 Rotational constants (GHZ):           1.85359     0.94165     0.84830
 Zero-point vibrational energy     120945.3 (Joules/Mol)
                                   28.90663 (Kcal/Mol)
 Warning -- explicit consideration of  15 degrees of freedom as
           vibrations may cause significant error
 Vibrational temperatures:     24.99    97.08   191.67   289.87   326.76
          (Kelvin)            351.95   389.13   456.06   505.52   539.11
                              612.76   680.62   732.43   784.66   861.02
                              939.09  1089.06  1100.03  1395.90  1608.43
                             1657.82  1736.62  1764.66  1772.84  1790.30
                             1945.23  5449.17

 Zero-point correction=                           0.046066 (Hartree/Particle)
 Thermal correction to Energy=                    0.055968
 Thermal correction to Enthalpy=                  0.056913
 Thermal correction to Gibbs Free Energy=         0.009045
 Sum of electronic and zero-point Energies=          -1124.574675
 Sum of electronic and thermal Energies=             -1124.564772
 Sum of electronic and thermal Enthalpies=           -1124.563828
 Sum of electronic and thermal Free Energies=        -1124.611695

                     E (Thermal)             CV                S
                      KCal/Mol        Cal/Mol-Kelvin    Cal/Mol-Kelvin
 Total                   35.121             33.998            100.745
 Electronic               0.000              0.000              0.000
 Translational            0.889              2.981             41.535
 Rotational               0.889              2.981             29.764
 Vibrational             33.343             28.036             29.446
 Vibration     1          0.593              1.986              6.914
 Vibration     2          0.598              1.970              4.226
 Vibration     3          0.613              1.920              2.899
 Vibration     4          0.638              1.838              2.120
 Vibration     5          0.651              1.800              1.902
 Vibration     6          0.660              1.772              1.769
 Vibration     7          0.674              1.728              1.593
 Vibration     8          0.704              1.641              1.326
 Vibration     9          0.728              1.572              1.160
 Vibration    10          0.746              1.524              1.061
 Vibration    11          0.788              1.414              0.872
 Vibration    12          0.830              1.310              0.729
 Vibration    13          0.864              1.230              0.636
 Vibration    14          0.901              1.150              0.554
 Vibration    15          0.956              1.035              0.452

 Optimization completed.
    -- Stationary point found.
 Normal termination of Gaussian 16 at Fri May 23 02:22:28 2025.
