 Gaussian 16, Revision C.01,
 Gaussian 16:  ES64L-G16RevC.01  3-Jul-2019

 ----------------------------------------------------------------------
 #P wb97xd/6-311++G(d,p) Symm(None) scf(xqc) pop(None) freq opt(CalcFC,
  Tight)
 ----------------------------------------------------------------------

 ------------------------------
 Gaussian input prepared by ASE
 ------------------------------
 Symbolic Z-matrix:
 Charge =  0 Multiplicity = 1

 SCF Done:  E(RwB97XD) =  -1124.61212321     A.U. after   15 cycles
 SCF Done:  E(RwB97XD) =  -1124.61523584     A.U. after   13 cycles
 SCF Done:  E(RwB97XD) =  -1124.61622455     A.U. after   14 cycles
 SCF Done:  E(RwB97XD) =  -1124.61635613     A.U. after   13 cycles
 SCF Done:  E(RwB97XD) =  -1124.61639379     A.U. after   12 cycles
 SCF Done:  E(RwB97XD) =  -1124.61643994     A.U. after   12 cycles
 SCF Done:  E(RwB97XD) =  -1124.61644446     A.U. after   11 cycles
 SCF Done:  E(RwB97XD) =  -1124.61644502     A.U. after   10 cycles
 SCF Done:  E(RwB97XD) =  -1124.61644503     A.U. after    7 cycles
 SCF Done:  E(RwB97XD) =  -1124.61644503     A.U. after    7 cycles
 Optimization completed.
    -- Stationary point found.
 Normal termination of Gaussian 16 at Fri May 23 02:21:13 2025.

 ----------------------------------------------------------------------
 #P Geom=AllCheck Guess=TCheck SCRF=Check GenChk RwB97XD/6-311++G(d,p)
 Freq
 ----------------------------------------------------------------------

 Structure from the checkpoint file:  "/tmp/Gau-72663.chk"
 ------------------------------
 Gaussian input prepared by ASE
 ------------------------------
 Charge =  0 Multiplicity = 1

                          Input orientation:
 ---------------------------------------------------------------------
 Center     Atomic      Atomic             Coordinates (Angstroms)
 Number     Number       Type             X           Y           Z
 ---------------------------------------------------------------------
      1          6           0       -0.633048   -1.376637   -0.032729
      2          6           0       -0.020144    0.045032   -0.099029
      3          9           0       -0.312972    0.599443   -1.270309
      4          9           0       -0.539935    0.781483    0.894234
      5         16           0        1.864912    0.013503    0.176574
      6          8           0        2.419088   -0.764887   -0.928580
      7          8           0        1.929903    1.629083   -0.186997
      8          9           0       -0.299002   -2.090476   -1.094745
      9          9           0       -0.186528   -1.996110    1.065302
     10          9           0       -1.958535   -1.299092    0.034707
     11          1           0        2.605853    2.040415    0.361223
 ---------------------------------------------------------------------

 SCF Done:  E(RwB97XD) =  -1124.61644503     A.U. after    1 cycles

 Isotropic polarizability for W=    0.000000       54.50 Bohr**3.
 End of Minotr F.D. properties file   721 does not exist.

                      1                      2                      3
                      A                      A                      A
 Frequencies --     41.4733                66.1937               131.4098
 Red. masses --     12.7394                12.3195                12.3176
 Frc consts  --      0.0129                 0.0318                 0.1253
 IR Inten    --      4.1924                 2.8041                 0.7094

                      4                      5                      6
                      A                      A                      A
 Frequencies --    183.9291               202.3761               227.2145
 Red. masses --      1.7151                16.6010                17.5993
 Frc consts  --      0.0342                 0.4006                 0.5353
 IR Inten    --     83.8283                 8.3560                 2.7554

                      7                      8                      9
                      A                      A                      A
 Frequencies --    257.6071               276.6204               326.3726
 Red. masses --      3.1145                16.3932                10.2177
 Frc consts  --      0.1218                 0.7391                 0.6413
 IR Inten    --     28.8019                 0.0790                 3.9706

                     10                     11                     12
                      A                      A                      A
 Frequencies --    373.8445               414.3060               416.6479
 Red. masses --     15.5695                10.7031                14.8848
 Frc consts  --      1.2821                 1.0824                 1.5224
 IR Inten    --      1.9454                10.6468                10.6878

                     13                     14                     15
                      A                      A                      A
 Frequencies --    516.3512               548.5167               602.7419
 Red. masses --     14.5439                17.1795                17.1155
 Frc consts  --      2.2847                 3.0454                 3.6636
 IR Inten    --     23.6597                 2.9798                 6.0066

                     16                     17                     18
                      A                      A                      A
 Frequencies --    645.3538               740.9866               760.0897
 Red. masses --     15.2426                15.2137                17.3137
 Frc consts  --      3.7403                 4.9216                 5.8934
 IR Inten    --     30.4556               147.8985                 8.4794

                     19                     20                     21
                      A                      A                      A
 Frequencies --    970.3758              1094.4735              1157.8948
 Red. masses --     12.8814                 1.1914                11.6508
 Frc consts  --      7.1465                 0.8408                 9.2033
 IR Inten    --    117.9832               142.5364               162.7018

                     22                     23                     24
                      A                      A                      A
 Frequencies --   1217.1763              1224.2479              1232.6512
 Red. masses --     11.7888                11.5605                14.6203
 Frc consts  --     10.2903                10.2086                13.0884
 IR Inten    --    142.4537               197.7533                34.4315

                     25                     26                     27
                      A                      A                      A
 Frequencies --   1261.0650              1356.3599              3877.3218
 Red. masses --     14.0579                12.0451                 1.0674
 Frc consts  --     13.1718                13.0560                 9.4546
 IR Inten    --    474.1002               124.2450               161.2729

 - Thermochemistry -
 -------------------
 Temperature   298.150 Kelvin.  Pressure   1.00000 Atm.
 Atom     1 has atomic number  6 and mass  12.00000

 Molecular mass:   183.96174 amu.
 Principal axes and moments of inertia in atomic units:
                           1         2         3
     Eigenvalues --   981.458711869.168782138.46120
           X            0.81457  -0.55848   0.15676
           Y            0.57703   0.80778  -0.12053
           Z           -0.05931   0.18863   0.98025
 This molecule is an asymmetric top.
 Rotational symmetry number  1.
 Warning -- assumption of classical behavior for rotation
           may cause significant error
 Rotational temperatures (Kelvin)      0.08825     0.04634     0.04050
 Rotational constants (GHZ):           1.83884     0.96553     0.84394
 Zero-point vibrational energy     120365.9 (Joules/Mol)
                                   28.76813 (Kcal/Mol)
 Warning -- explicit consideration of  15 degrees of freedom as
           vibrations may cause significant error
 Vibrational temperatures:     59.67    95.24   189.07   264.63   291.17
          (Kelvin)            326.91   370.64   398.00   469.58   537.88
                              596.09   599.46   742.91   789.19   867.21
                              928.52  1066.11  1093.60  1396.15  1574.70
                             1665.95  1751.25  1761.42  1773.51  1814.39
                             1951.50  5578.60

 Zero-point correction=                           0.045845 (Hartree/Particle)
 Thermal correction to Energy=                    0.055950
 Thermal correction to Enthalpy=                  0.056894
 Thermal correction to Gibbs Free Energy=         0.009272
 Sum of electronic and zero-point Energies=          -1124.570600
 Sum of electronic and thermal Energies=             -1124.560495
 Sum of electronic and thermal Enthalpies=           -1124.559551
 Sum of electronic and thermal Free Energies=        -1124.607173

                     E (Thermal)             CV                S
                      KCal/Mol        Cal/Mol-Kelvin    Cal/Mol-Kelvin
 Total                   35.109             34.401            100.229
 Electronic               0.000              0.000              0.000
 Translational            0.889              2.981             41.535
 Rotational               0.889              2.981             29.752
 Vibrational             33.332             28.439             28.942
 Vibration     1          0.594              1.981              5.187
 Vibration     2          0.598              1.970              4.263
 Vibration     3          0.612              1.922              2.925
 Vibration     4          0.631              1.862              2.288
 Vibration     5          0.639              1.837              2.111
 Vibration     6          0.651              1.800              1.901
 Vibration     7          0.667              1.750              1.678
 Vibration     8          0.678              1.717              1.554
 Vibration     9          0.710              1.623              1.278
 Vibration    10          0.745              1.526              1.064
 Vibration    11          0.778              1.439              0.912
 Vibration    12          0.780              1.434              0.903
 Vibration    13          0.871              1.214              0.618
 Vibration    14          0.904              1.143              0.547
 Vibration    15          0.961              1.026              0.445

 Optimization completed.
    -- Stationary point found.
 Normal termination of Gaussian 16 at Fri May 23 02:22:08 2025.
