 Gaussian 16, Revision C.01,
 Gaussian 16:  ES64L-G16RevC.01  3-Jul-2019

 ----------------------------------------------------------------------
 #P wb97xd/6-311++G(d,p) Symm(None) scf(xqc) pop(None) freq opt(CalcFC,
  Tight)
 ----------------------------------------------------------------------

 ------------------------------
 Gaussian input prepared by ASE
 ------------------------------
 Symbolic Z-matrix:
 Charge =  0 Multiplicity = 1

 SCF Done:  E(RwB97XD) =  -1124.60486528     A.U. after   15 cycles
 SCF Done:  E(RwB97XD) =  -1124.60682220     A.U. after   14 cycles
 SCF Done:  E(RwB97XD) =  -1124.61380547     A.U. after   14 cycles
 SCF Done:  E(RwB97XD) =  -1124.51261020     A.U. after   15 cycles
 SCF Done:  E(RwB97XD) =  -1124.61753215     A.U. after   13 cycles
 SCF Done:  E(RwB97XD) =  -1124.61982937     A.U. after   14 cycles
 SCF Done:  E(RwB97XD) =  -1124.62036594     A.U. after   12 cycles
 SCF Done:  E(RwB97XD) =  -1124.62058331     A.U. after   12 cycles
 SCF Done:  E(RwB97XD) =  -1124.62068823     A.U. after   10 cycles
 SCF Done:  E(RwB97XD) =  -1124.62073372     A.U. after   11 cycles
 SCF Done:  E(RwB97XD) =  -1124.62074143     A.U. after   10 cycles
 SCF Done:  E(RwB97XD) =  -1124.62074250     A.U. after   10 cycles
 SCF Done:  E(RwB97XD) =  -1124.62074256     A.U. after    9 cycles
 SCF Done:  E(RwB97XD) =  -1124.62074303     A.U. after   10 cycles
 SCF Done:  E(RwB97XD) =  -1124.62074336     A.U. after   11 cycles
 SCF Done:  E(RwB97XD) =  -1124.62074350     A.U. after   10 cycles
 SCF Done:  E(RwB97XD) =  -1124.62074354     A.U. after   10 cycles
 SCF Done:  E(RwB97XD) =  -1124.62074354     A.U. after    6 cycles
 Optimization completed.
    -- Stationary point found.
 Normal termination of Gaussian 16 at Fri May 23 02:23:33 2025.

 ----------------------------------------------------------------------
 #P Geom=AllCheck Guess=TCheck SCRF=Check GenChk RwB97XD/6-311++G(d,p)
 Freq
 ----------------------------------------------------------------------

 Structure from the checkpoint file:  "/tmp/Gau-89510.chk"
 ------------------------------
 Gaussian input prepared by ASE
 ------------------------------
 Charge =  0 Multiplicity = 1

                          Input orientation:
 ---------------------------------------------------------------------
 Center     Atomic      Atomic             Coordinates (Angstroms)
 Number     Number       Type             X           Y           Z
 ---------------------------------------------------------------------
      1          6           0       -0.733916    0.591654    1.375763
      2          6           0       -0.020916    0.051334    0.113931
      3          9           0       -0.329218   -1.239057   -0.036114
      4          9           0       -0.443599    0.734470   -0.961784
      5         16           0        1.893255    0.137382    0.170884
      6          8           0        2.267738   -0.480194   -1.102398
      7          8           0        1.960626    1.769678    0.056813
      8          9           0       -0.187151    0.038522    2.459972
      9          9           0       -0.614608    1.911038    1.460549
     10          9           0       -2.026069    0.283118    1.345137
     11          1           0        1.566020    2.083002   -0.770121
 ---------------------------------------------------------------------

 SCF Done:  E(RwB97XD) =  -1124.62074354     A.U. after    1 cycles

 Isotropic polarizability for W=    0.000000       54.18 Bohr**3.
 End of Minotr F.D. properties file   721 does not exist.

                      1                      2                      3
                      A                      A                      A
 Frequencies --     22.7308                69.4296               133.9932
 Red. masses --     12.1209                15.5093                16.8069
 Frc consts  --      0.0037                 0.0440                 0.1778
 IR Inten    --      0.6898                 0.6330                 2.8493

                      4                      5                      6
                      A                      A                      A
 Frequencies --    206.0363               227.3184               244.9291
 Red. masses --      7.1260                14.9124                14.5061
 Frc consts  --      0.1782                 0.4540                 0.5127
 IR Inten    --      7.8322                 0.0200                 3.7872

                      7                      8                      9
                      A                      A                      A
 Frequencies --    270.5530               317.1952               351.1543
 Red. masses --     12.0414                 7.4425                 2.8977
 Frc consts  --      0.5193                 0.4412                 0.2105
 IR Inten    --      1.8721                 5.7155                15.4188

                     10                     11                     12
                      A                      A                      A
 Frequencies --    374.4695               426.3037               475.4729
 Red. masses --      6.8973                18.1970                 2.3182
 Frc consts  --      0.5699                 1.9484                 0.3088
 IR Inten    --      8.9575                 9.4037               149.2155

                     13                     14                     15
                      A                      A                      A
 Frequencies --    508.8109               545.4406               598.4134
 Red. masses --     11.6565                16.8485                17.0281
 Frc consts  --      1.7780                 2.9533                 3.5927
 IR Inten    --     31.9379                 5.8325                 4.6415

                     16                     17                     18
                      A                      A                      A
 Frequencies --    652.9402               757.0830               765.0724
 Red. masses --     16.7027                16.9834                16.7302
 Frc consts  --      4.1955                 5.7354                 5.7697
 IR Inten    --     19.0607                31.7315               140.8373

                     19                     20                     21
                      A                      A                      A
 Frequencies --    970.1252              1121.6700              1151.9556
 Red. masses --     13.3786                 1.3128                13.6145
 Frc consts  --      7.4185                 0.9732                10.6444
 IR Inten    --     93.6446                77.1216               136.2121

                     22                     23                     24
                      A                      A                      A
 Frequencies --   1206.7572              1226.6370              1231.5970
 Red. masses --      9.6236                12.7286                 8.4025
 Frc consts  --      8.2571                11.2840                 7.5092
 IR Inten    --     71.6665               255.2112               197.7209

                     25                     26                     27
                      A                      A                      A
 Frequencies --   1244.2584              1352.0314              3787.0834
 Red. masses --     12.5803                12.6834                 1.0656
 Frc consts  --     11.4753                13.6603                 9.0047
 IR Inten    --    411.0096               122.3776                92.3620

 - Thermochemistry -
 -------------------
 Temperature   298.150 Kelvin.  Pressure   1.00000 Atm.
 Atom     1 has atomic number  6 and mass  12.00000

 Molecular mass:   183.96174 amu.
 Principal axes and moments of inertia in atomic units:
                           1         2         3
     Eigenvalues --   973.474691918.550202127.44066
           X            0.84193   0.36851   0.39416
           Y           -0.08868   0.81504  -0.57258
           Z           -0.53225   0.44711   0.71889
 This molecule is an asymmetric top.
 Rotational symmetry number  1.
 Warning -- assumption of classical behavior for rotation
           may cause significant error
 Rotational temperatures (Kelvin)      0.08897     0.04515     0.04071
 Rotational constants (GHZ):           1.85392     0.94068     0.84832
 Zero-point vibrational energy     121058.9 (Joules/Mol)
                                   28.93376 (Kcal/Mol)
 Warning -- explicit consideration of  15 degrees of freedom as
           vibrations may cause significant error
 Vibrational temperatures:     32.70    99.89   192.79   296.44   327.06
          (Kelvin)            352.40   389.27   456.37   505.23   538.78
                              613.36   684.10   732.07   784.77   860.98
                              939.44  1089.27  1100.77  1395.79  1613.83
                             1657.41  1736.25  1764.86  1771.99  1790.21
                             1945.27  5448.77

 Zero-point correction=                           0.046109 (Hartree/Particle)
 Thermal correction to Energy=                    0.055984
 Thermal correction to Enthalpy=                  0.056928
 Thermal correction to Gibbs Free Energy=         0.009372
 Sum of electronic and zero-point Energies=          -1124.574635
 Sum of electronic and thermal Energies=             -1124.564760
 Sum of electronic and thermal Enthalpies=           -1124.563815
 Sum of electronic and thermal Free Energies=        -1124.611371

                     E (Thermal)             CV                S
                      KCal/Mol        Cal/Mol-Kelvin    Cal/Mol-Kelvin
 Total                   35.130             33.978            100.090
 Electronic               0.000              0.000              0.000
 Translational            0.889              2.981             41.535
 Rotational               0.889              2.981             29.764
 Vibrational             33.353             28.017             28.791
 Vibration     1          0.593              1.985              6.380
 Vibration     2          0.598              1.969              4.169
 Vibration     3          0.613              1.919              2.888
 Vibration     4          0.641              1.831              2.079
 Vibration     5          0.651              1.799              1.900
 Vibration     6          0.660              1.771              1.767
 Vibration     7          0.674              1.727              1.593
 Vibration     8          0.704              1.641              1.325
 Vibration     9          0.728              1.573              1.161
 Vibration    10          0.746              1.524              1.061
 Vibration    11          0.788              1.413              0.871
 Vibration    12          0.832              1.304              0.722
 Vibration    13          0.864              1.230              0.636
 Vibration    14          0.901              1.150              0.554
 Vibration    15          0.956              1.035              0.452

 Optimization completed.
    -- Stationary point found.
 Normal termination of Gaussian 16 at Fri May 23 02:24:36 2025.
