 Gaussian 16, Revision C.01,
 Gaussian 16:  ES64L-G16RevC.01  3-Jul-2019

 ----------------------------------------------------------------------
 #P wb97xd/6-311++G(d,p) Symm(None) scf(xqc) pop(None) freq opt(CalcFC,
  Tight)
 ----------------------------------------------------------------------

 ------------------------------
 Gaussian input prepared by ASE
 ------------------------------
 Symbolic Z-matrix:
 Charge =  0 Multiplicity = 1

 SCF Done:  E(RwB97XD) =  -1124.61109997     A.U. after   14 cycles
 SCF Done:  E(RwB97XD) =  -1124.61858459     A.U. after   15 cycles
 SCF Done:  E(RwB97XD) =  -1124.61963635     A.U. after   13 cycles
 SCF Done:  E(RwB97XD) =  -1124.62002672     A.U. after   13 cycles
 SCF Done:  E(RwB97XD) =  -1124.62019552     A.U. after   11 cycles
 SCF Done:  E(RwB97XD) =  -1124.62023169     A.U. after   11 cycles
 SCF Done:  E(RwB97XD) =  -1124.62023521     A.U. after   10 cycles
 SCF Done:  E(RwB97XD) =  -1124.62023551     A.U. after    8 cycles
 SCF Done:  E(RwB97XD) =  -1124.62023555     A.U. after    7 cycles
 SCF Done:  E(RwB97XD) =  -1124.62023556     A.U. after    7 cycles
 SCF Done:  E(RwB97XD) =  -1124.62023556     A.U. after    5 cycles
 Optimization completed.
    -- Stationary point found.
 Normal termination of Gaussian 16 at Fri May 23 02:21:31 2025.

 ----------------------------------------------------------------------
 #P Geom=AllCheck Guess=TCheck SCRF=Check GenChk RwB97XD/6-311++G(d,p)
 Freq
 ----------------------------------------------------------------------

 Structure from the checkpoint file:  "/tmp/Gau-68630.chk"
 ------------------------------
 Gaussian input prepared by ASE
 ------------------------------
 Charge =  0 Multiplicity = 1

                          Input orientation:
 ---------------------------------------------------------------------
 Center     Atomic      Atomic             Coordinates (Angstroms)
 Number     Number       Type             X           Y           Z
 ---------------------------------------------------------------------
      1          6           0       -0.723348    0.631800   -1.256809
      2          6           0       -0.020085    0.069777    0.005445
      3          9           0       -0.354159    0.815151    1.064362
      4          9           0       -0.436767   -1.188679    0.208125
      5         16           0        1.886865   -0.027407   -0.077553
      6          8           0        2.180028   -0.471136   -1.443678
      7          8           0        2.176075    1.574593    0.078103
      8          9           0       -0.144278    1.792434   -1.613144
      9          9           0       -0.640500   -0.212195   -2.267041
     10          9           0       -2.003678    0.875323   -0.999144
     11          1           0        1.880443    2.069053   -0.699571
 ---------------------------------------------------------------------

 SCF Done:  E(RwB97XD) =  -1124.62023556     A.U. after    1 cycles

 Isotropic polarizability for W=    0.000000       53.87 Bohr**3.
 End of Minotr F.D. properties file   721 does not exist.

                      1                      2                      3
                      A                      A                      A
 Frequencies --     56.0579                74.7359               139.1774
 Red. masses --     13.8709                13.3297                13.9632
 Frc consts  --      0.0257                 0.0439                 0.1594
 IR Inten    --      0.6055                 1.0704                 0.9501

                      4                      5                      6
                      A                      A                      A
 Frequencies --    196.4226               223.2410               246.6142
 Red. masses --     10.3390                16.8474                10.4803
 Frc consts  --      0.2350                 0.4947                 0.3755
 IR Inten    --      6.5967                 1.5393                 0.5511

                      7                      8                      9
                      A                      A                      A
 Frequencies --    293.2714               323.6653               353.1367
 Red. masses --     10.8056                10.1297                 2.3985
 Frc consts  --      0.5476                 0.6252                 0.1762
 IR Inten    --      9.1082                 1.1630                25.4947

                     10                     11                     12
                      A                      A                      A
 Frequencies --    363.3841               447.7957               461.2327
 Red. masses --     13.1784                14.7994                11.3660
 Frc consts  --      1.0253                 1.7484                 1.4246
 IR Inten    --      1.2191                35.8819                22.3267

                     13                     14                     15
                      A                      A                      A
 Frequencies --    485.9400               544.0300               595.0544
 Red. masses --      2.2163                17.5737                17.6540
 Frc consts  --      0.3084                 3.0645                 3.6830
 IR Inten    --    153.5811                 6.0101                 2.3264

                     16                     17                     18
                      A                      A                      A
 Frequencies --    646.7139               758.8128               768.3883
 Red. masses --     15.4047                17.1190                16.3899
 Frc consts  --      3.7960                 5.8076                 5.7015
 IR Inten    --      1.4705                20.4699               162.3314

                     19                     20                     21
                      A                      A                      A
 Frequencies --    990.4816              1115.2371              1152.2966
 Red. masses --     12.1439                 1.5167                 6.8124
 Frc consts  --      7.0194                 1.1114                 5.3294
 IR Inten    --     69.5926               179.7903               163.0397

                     22                     23                     24
                      A                      A                      A
 Frequencies --   1184.6910              1208.7238              1230.9694
 Red. masses --     14.1837                12.3220                 5.7388
 Frc consts  --     11.7287                10.6068                 5.1235
 IR Inten    --     15.3208               240.1361                46.9090

                     25                     26                     27
                      A                      A                      A
 Frequencies --   1261.9881              1343.1612              3789.9413
 Red. masses --     12.4395                12.6867                 1.0659
 Frc consts  --     11.6725                13.4852                 9.0208
 IR Inten    --    461.0851               164.5660               105.1640

 - Thermochemistry -
 -------------------
 Temperature   298.150 Kelvin.  Pressure   1.00000 Atm.
 Atom     1 has atomic number  6 and mass  12.00000

 Molecular mass:   183.96174 amu.
 Principal axes and moments of inertia in atomic units:
                           1         2         3
     Eigenvalues --  1092.906401808.507801890.24938
           X            0.96088  -0.27614   0.02126
           Y           -0.08115  -0.20734   0.97490
           Z            0.26480   0.93849   0.22164
 This molecule is an asymmetric top.
 Rotational symmetry number  1.
 Warning -- assumption of classical behavior for rotation
           may cause significant error
 Rotational temperatures (Kelvin)      0.07925     0.04789     0.04582
 Rotational constants (GHZ):           1.65132     0.99792     0.95476
 Zero-point vibrational energy     121152.8 (Joules/Mol)
                                   28.95621 (Kcal/Mol)
 Warning -- explicit consideration of  15 degrees of freedom as
           vibrations may cause significant error
 Vibrational temperatures:     80.65   107.53   200.25   282.61   321.19
          (Kelvin)            354.82   421.95   465.68   508.08   522.83
                              644.28   663.61   699.16   782.74   856.15
                              930.48  1091.76  1105.54  1425.08  1604.58
                             1657.90  1704.51  1739.08  1771.09  1815.72
                             1932.51  5452.88

 Zero-point correction=                           0.046145 (Hartree/Particle)
 Thermal correction to Energy=                    0.055933
 Thermal correction to Enthalpy=                  0.056877
 Thermal correction to Gibbs Free Energy=         0.010296
 Sum of electronic and zero-point Energies=          -1124.574091
 Sum of electronic and thermal Energies=             -1124.564303
 Sum of electronic and thermal Enthalpies=           -1124.563359
 Sum of electronic and thermal Free Energies=        -1124.609940

                     E (Thermal)             CV                S
                      KCal/Mol        Cal/Mol-Kelvin    Cal/Mol-Kelvin
 Total                   35.098             33.993             98.039
 Electronic               0.000              0.000              0.000
 Translational            0.889              2.981             41.535
 Rotational               0.889              2.981             29.703
 Vibrational             33.321             28.032             26.800
 Vibration     1          0.596              1.975              4.591
 Vibration     2          0.599              1.966              4.025
 Vibration     3          0.615              1.914              2.815
 Vibration     4          0.636              1.845              2.166
 Vibration     5          0.649              1.806              1.933
 Vibration     6          0.661              1.768              1.755
 Vibration     7          0.688              1.686              1.455
 Vibration     8          0.708              1.628              1.292
 Vibration     9          0.729              1.569              1.152
 Vibration    10          0.737              1.548              1.108
 Vibration    11          0.807              1.366              0.802
 Vibration    12          0.819              1.336              0.763
 Vibration    13          0.842              1.281              0.694
 Vibration    14          0.899              1.153              0.557
 Vibration    15          0.953              1.042              0.458

 Optimization completed.
    -- Stationary point found.
 Normal termination of Gaussian 16 at Fri May 23 02:22:31 2025.
