 Gaussian 16, Revision C.01,
 Gaussian 16:  ES64L-G16RevC.01  3-Jul-2019

 ----------------------------------------------------------------------
 #P wb97xd/6-311++G(d,p) Symm(None) scf(xqc) pop(None) freq opt(CalcFC,
  Tight)
 ----------------------------------------------------------------------

 ------------------------------
 Gaussian input prepared by ASE
 ------------------------------
 Symbolic Z-matrix:
 Charge =  0 Multiplicity = 1

 SCF Done:  E(RwB97XD) =  -1124.61656649     A.U. after   15 cycles
 SCF Done:  E(RwB97XD) =  -1124.61967024     A.U. after   13 cycles
 SCF Done:  E(RwB97XD) =  -1124.62079753     A.U. after   14 cycles
 SCF Done:  E(RwB97XD) =  -1124.62100651     A.U. after   12 cycles
 SCF Done:  E(RwB97XD) =  -1124.62106091     A.U. after   12 cycles
 SCF Done:  E(RwB97XD) =  -1124.62107084     A.U. after   11 cycles
 SCF Done:  E(RwB97XD) =  -1124.62107747     A.U. after   10 cycles
 SCF Done:  E(RwB97XD) =  -1124.62107776     A.U. after    9 cycles
 SCF Done:  E(RwB97XD) =  -1124.62107777     A.U. after    7 cycles
 SCF Done:  E(RwB97XD) =  -1124.62107777     A.U. after    6 cycles
 SCF Done:  E(RwB97XD) =  -1124.62107777     A.U. after    4 cycles
 Optimization completed.
    -- Stationary point found.
 Normal termination of Gaussian 16 at Fri May 23 02:21:15 2025.

 ----------------------------------------------------------------------
 #P Geom=AllCheck Guess=TCheck SCRF=Check GenChk RwB97XD/6-311++G(d,p)
 Freq
 ----------------------------------------------------------------------

 Structure from the checkpoint file:  "/tmp/Gau-8464.chk"
 ------------------------------
 Gaussian input prepared by ASE
 ------------------------------
 Charge =  0 Multiplicity = 1

                          Input orientation:
 ---------------------------------------------------------------------
 Center     Atomic      Atomic             Coordinates (Angstroms)
 Number     Number       Type             X           Y           Z
 ---------------------------------------------------------------------
      1          6           0       -0.636465   -1.387131   -0.043330
      2          6           0       -0.058011    0.047264   -0.059947
      3          9           0       -0.324877    0.622715   -1.242491
      4          9           0       -0.632734    0.762450    0.913978
      5         16           0        1.831125    0.098444    0.241437
      6          8           0        2.394691   -0.697234   -0.852049
      7          8           0        1.941050    1.694998   -0.102278
      8          9           0       -0.273079   -2.060491   -1.121779
      9          9           0       -0.184495   -2.022880    1.041868
     10          9           0       -1.964608   -1.346910    0.011750
     11          1           0        1.707999    1.871913   -1.025597
 ---------------------------------------------------------------------

 SCF Done:  E(RwB97XD) =  -1124.62107777     A.U. after    1 cycles

 Isotropic polarizability for W=    0.000000       54.05 Bohr**3.
 End of Minotr F.D. properties file   721 does not exist.

                      1                      2                      3
                      A                      A                      A
 Frequencies --     48.3656                65.2049               127.0585
 Red. masses --     13.8287                13.4513                15.6714
 Frc consts  --      0.0191                 0.0337                 0.1491
 IR Inten    --      0.8070                 0.3089                 0.6278

                      4                      5                      6
                      A                      A                      A
 Frequencies --    202.8899               228.3186               239.5066
 Red. masses --     14.8878                17.5878                 5.4347
 Frc consts  --      0.3611                 0.5402                 0.1837
 IR Inten    --      5.8716                 1.9386                10.6400

                      7                      8                      9
                      A                      A                      A
 Frequencies --    274.6282               320.2531               350.6219
 Red. masses --     16.5505                14.2159                 2.3104
 Frc consts  --      0.7354                 0.8590                 0.1673
 IR Inten    --      1.1767                 0.5607                23.5391

                     10                     11                     12
                      A                      A                      A
 Frequencies --    375.5272               415.2699               482.9451
 Red. masses --     10.9509                14.3432                 2.2833
 Frc consts  --      0.9099                 1.4573                 0.3138
 IR Inten    --      3.3739                10.7191               147.9515

                     13                     14                     15
                      A                      A                      A
 Frequencies --    519.4141               548.9904               602.3123
 Red. masses --     12.4140                17.7231                16.7512
 Frc consts  --      1.9733                 3.1472                 3.5805
 IR Inten    --     25.6199                 4.5065                 7.4335

                     16                     17                     18
                      A                      A                      A
 Frequencies --    643.0015               758.1428               764.0812
 Red. masses --     16.3821                17.0708                16.7148
 Frc consts  --      3.9907                 5.7811                 5.7495
 IR Inten    --     18.8616                58.6281               146.9837

                     19                     20                     21
                      A                      A                      A
 Frequencies --    971.1634              1121.1123              1155.8013
 Red. masses --     13.3808                 1.3402                11.3695
 Frc consts  --      7.4356                 0.9925                 8.9487
 IR Inten    --     88.5151                79.7381               192.8430

                     22                     23                     24
                      A                      A                      A
 Frequencies --   1199.8564              1219.6108              1228.2680
 Red. masses --     13.0201                 8.2272                10.2956
 Frc consts  --     11.0439                 7.2102                 9.1514
 IR Inten    --     61.9262               180.6959               134.0806

                     25                     26                     27
                      A                      A                      A
 Frequencies --   1259.4819              1352.3209              3784.2598
 Red. masses --     11.7267                12.6344                 1.0655
 Frc consts  --     10.9600                13.6133                 8.9905
 IR Inten    --    465.6924               127.4963                91.2769

 - Thermochemistry -
 -------------------
 Temperature   298.150 Kelvin.  Pressure   1.00000 Atm.
 Atom     1 has atomic number  6 and mass  12.00000

 Molecular mass:   183.96174 amu.
 Principal axes and moments of inertia in atomic units:
                           1         2         3
     Eigenvalues --   976.753611883.463642146.62966
           X            0.79924  -0.58418   0.14121
           Y            0.59935   0.79215  -0.11521
           Z           -0.04456   0.17671   0.98325
 This molecule is an asymmetric top.
 Rotational symmetry number  1.
 Warning -- assumption of classical behavior for rotation
           may cause significant error
 Rotational temperatures (Kelvin)      0.08868     0.04599     0.04035
 Rotational constants (GHZ):           1.84769     0.95820     0.84073
 Zero-point vibrational energy     121172.2 (Joules/Mol)
                                   28.96085 (Kcal/Mol)
 Warning -- explicit consideration of  15 degrees of freedom as
           vibrations may cause significant error
 Vibrational temperatures:     69.59    93.82   182.81   291.91   328.50
          (Kelvin)            344.60   395.13   460.77   504.47   540.30
                              597.48   694.85   747.32   789.87   866.59
                              925.14  1090.80  1099.34  1397.29  1613.03
                             1662.94  1726.33  1754.75  1767.20  1812.11
                             1945.69  5444.71

 Zero-point correction=                           0.046152 (Hartree/Particle)
 Thermal correction to Energy=                    0.055992
 Thermal correction to Enthalpy=                  0.056936
 Thermal correction to Gibbs Free Energy=         0.009983
 Sum of electronic and zero-point Energies=          -1124.574926
 Sum of electronic and thermal Energies=             -1124.565086
 Sum of electronic and thermal Enthalpies=           -1124.564142
 Sum of electronic and thermal Free Energies=        -1124.611095

                     E (Thermal)             CV                S
                      KCal/Mol        Cal/Mol-Kelvin    Cal/Mol-Kelvin
 Total                   35.135             33.964             98.821
 Electronic               0.000              0.000              0.000
 Translational            0.889              2.981             41.535
 Rotational               0.889              2.981             29.758
 Vibrational             33.358             28.003             27.528
 Vibration     1          0.595              1.978              4.883
 Vibration     2          0.597              1.971              4.293
 Vibration     3          0.611              1.926              2.990
 Vibration     4          0.639              1.836              2.107
 Vibration     5          0.651              1.798              1.892
 Vibration     6          0.657              1.780              1.807
 Vibration     7          0.677              1.720              1.567
 Vibration     8          0.706              1.635              1.309
 Vibration     9          0.728              1.574              1.163
 Vibration    10          0.746              1.522              1.057
 Vibration    11          0.779              1.437              0.908
 Vibration    12          0.839              1.288              0.702
 Vibration    13          0.874              1.207              0.611
 Vibration    14          0.904              1.142              0.546
 Vibration    15          0.961              1.027              0.446

 Optimization completed.
    -- Stationary point found.
 Normal termination of Gaussian 16 at Fri May 23 02:22:09 2025.
