 Gaussian 16, Revision C.01,
 Gaussian 16:  ES64L-G16RevC.01  3-Jul-2019

 ----------------------------------------------------------------------
 #P wb97xd/6-311++G(d,p) Symm(None) scf(xqc) pop(None) freq opt(CalcFC,
  Tight)
 ----------------------------------------------------------------------

 ------------------------------
 Gaussian input prepared by ASE
 ------------------------------
 Symbolic Z-matrix:
 Charge =  0 Multiplicity = 1

 SCF Done:  E(RwB97XD) =  -1124.60684751     A.U. after   15 cycles
 SCF Done:  E(RwB97XD) =  -1124.61314097     A.U. after   14 cycles
 SCF Done:  E(RwB97XD) =  -1124.61238235     A.U. after   14 cycles
 SCF Done:  E(RwB97XD) =  -1124.61492864     A.U. after   13 cycles
 SCF Done:  E(RwB97XD) =  -1124.61568069     A.U. after   13 cycles
 SCF Done:  E(RwB97XD) =  -1124.61611968     A.U. after   14 cycles
 SCF Done:  E(RwB97XD) =  -1124.61632386     A.U. after   13 cycles
 SCF Done:  E(RwB97XD) =  -1124.61640992     A.U. after   12 cycles
 SCF Done:  E(RwB97XD) =  -1124.61643076     A.U. after   12 cycles
 SCF Done:  E(RwB97XD) =  -1124.61643731     A.U. after   11 cycles
 SCF Done:  E(RwB97XD) =  -1124.61643842     A.U. after   11 cycles
 SCF Done:  E(RwB97XD) =  -1124.61643859     A.U. after    9 cycles
 SCF Done:  E(RwB97XD) =  -1124.61643862     A.U. after    8 cycles
 SCF Done:  E(RwB97XD) =  -1124.61643862     A.U. after    7 cycles
 Optimization completed.
    -- Stationary point found.
 Normal termination of Gaussian 16 at Fri May 23 02:22:45 2025.

 ----------------------------------------------------------------------
 #P Geom=AllCheck Guess=TCheck SCRF=Check GenChk RwB97XD/6-311++G(d,p)
 Freq
 ----------------------------------------------------------------------

 Structure from the checkpoint file:  "/tmp/Gau-263716.chk"
 ------------------------------
 Gaussian input prepared by ASE
 ------------------------------
 Charge =  0 Multiplicity = 1

                          Input orientation:
 ---------------------------------------------------------------------
 Center     Atomic      Atomic             Coordinates (Angstroms)
 Number     Number       Type             X           Y           Z
 ---------------------------------------------------------------------
      1          6           0       -0.672864   -1.463689   -0.070996
      2          6           0       -0.179414    0.004821   -0.104356
      3          9           0       -0.429471    0.529040   -1.299215
      4          9           0       -0.832872    0.696945    0.840645
      5         16           0        1.675514    0.134838    0.311470
      6          8           0        2.375457   -0.596683   -0.741775
      7          8           0        1.630315    1.748991   -0.061335
      8          9           0       -0.199750   -2.149637   -1.097986
      9          9           0       -0.260197   -2.039598    1.063372
     10          9           0       -2.001430   -1.499145   -0.104502
     11          1           0        2.226872    2.217858    0.531063
 ---------------------------------------------------------------------

 SCF Done:  E(RwB97XD) =  -1124.61643862     A.U. after    1 cycles

 Isotropic polarizability for W=    0.000000       54.49 Bohr**3.
 End of Minotr F.D. properties file   721 does not exist.

                      1                      2                      3
                      A                      A                      A
 Frequencies --     41.0700                66.8945               132.4153
 Red. masses --     12.6448                12.6757                12.6336
 Frc consts  --      0.0126                 0.0334                 0.1305
 IR Inten    --      4.2795                 2.5429                 0.4962

                      4                      5                      6
                      A                      A                      A
 Frequencies --    190.1366               202.7599               227.4512
 Red. masses --      1.8113                16.0815                17.5675
 Frc consts  --      0.0386                 0.3895                 0.5355
 IR Inten    --     79.0150                 9.0166                 2.8476

                      7                      8                      9
                      A                      A                      A
 Frequencies --    258.9188               276.6802               326.5916
 Red. masses --      2.8829                16.3221                 9.7182
 Frc consts  --      0.1139                 0.7362                 0.6107
 IR Inten    --     32.7517                 0.0694                 4.5322

                     10                     11                     12
                      A                      A                      A
 Frequencies --    373.8732               414.5398               416.7081
 Red. masses --     15.3660                10.7864                14.5635
 Frc consts  --      1.2655                 1.0921                 1.4900
 IR Inten    --      2.0564                10.2206                11.1498

                     13                     14                     15
                      A                      A                      A
 Frequencies --    516.1713               548.5604               602.7094
 Red. masses --     14.5529                17.1979                17.1190
 Frc consts  --      2.2845                 3.0491                 3.6639
 IR Inten    --     23.7566                 2.9472                 6.0192

                     16                     17                     18
                      A                      A                      A
 Frequencies --    645.4004               740.4486               760.0027
 Red. masses --     15.2417                15.2177                17.3096
 Frc consts  --      3.7406                 4.9157                 5.8907
 IR Inten    --     30.5102               147.4689                 8.7090

                     19                     20                     21
                      A                      A                      A
 Frequencies --    970.2490              1094.5345              1157.9762
 Red. masses --     12.8841                 1.1910                11.6417
 Frc consts  --      7.1461                 0.8407                 9.1974
 IR Inten    --    117.9213               142.4137               162.7046

                     22                     23                     24
                      A                      A                      A
 Frequencies --   1217.3356              1224.6760              1233.2167
 Red. masses --     11.8449                11.4380                14.7506
 Frc consts  --     10.3419                10.1075                13.2172
 IR Inten    --    154.9830               187.1326                33.0208

                     25                     26                     27
                      A                      A                      A
 Frequencies --   1261.4377              1356.5451              3877.9232
 Red. masses --     14.0858                12.0469                 1.0674
 Frc consts  --     13.2058                13.0615                 9.4575
 IR Inten    --    474.0283               124.1805               161.0441

 - Thermochemistry -
 -------------------
 Temperature   298.150 Kelvin.  Pressure   1.00000 Atm.
 Atom     1 has atomic number  6 and mass  12.00000

 Molecular mass:   183.96174 amu.
 Principal axes and moments of inertia in atomic units:
                           1         2         3
     Eigenvalues --   981.478861869.183392138.52698
           X            0.76493  -0.63748   0.09220
           Y            0.64411   0.75785  -0.10389
           Z           -0.00365   0.13886   0.99031
 This molecule is an asymmetric top.
 Rotational symmetry number  1.
 Warning -- assumption of classical behavior for rotation
           may cause significant error
 Rotational temperatures (Kelvin)      0.08825     0.04634     0.04050
 Rotational constants (GHZ):           1.83880     0.96552     0.84392
 Zero-point vibrational energy     120435.4 (Joules/Mol)
                                   28.78475 (Kcal/Mol)
 Warning -- explicit consideration of  15 degrees of freedom as
           vibrations may cause significant error
 Vibrational temperatures:     59.09    96.25   190.52   273.56   291.73
          (Kelvin)            327.25   372.53   398.08   469.89   537.92
                              596.43   599.55   742.66   789.26   867.16
                              928.59  1065.34  1093.47  1395.97  1574.79
                             1666.07  1751.47  1762.04  1774.32  1814.93
                             1951.77  5579.47

 Zero-point correction=                           0.045871 (Hartree/Particle)
 Thermal correction to Energy=                    0.055961
 Thermal correction to Enthalpy=                  0.056905
 Thermal correction to Gibbs Free Energy=         0.009328
 Sum of electronic and zero-point Energies=          -1124.570567
 Sum of electronic and thermal Energies=             -1124.560478
 Sum of electronic and thermal Enthalpies=           -1124.559534
 Sum of electronic and thermal Free Energies=        -1124.607111

                     E (Thermal)             CV                S
                      KCal/Mol        Cal/Mol-Kelvin    Cal/Mol-Kelvin
 Total                   35.116             34.387            100.135
 Electronic               0.000              0.000              0.000
 Translational            0.889              2.981             41.535
 Rotational               0.889              2.981             29.752
 Vibrational             33.339             28.426             28.848
 Vibration     1          0.594              1.981              5.207
 Vibration     2          0.598              1.970              4.243
 Vibration     3          0.613              1.921              2.911
 Vibration     4          0.633              1.853              2.226
 Vibration     5          0.639              1.836              2.108
 Vibration     6          0.651              1.799              1.899
 Vibration     7          0.668              1.748              1.669
 Vibration     8          0.678              1.717              1.554
 Vibration     9          0.710              1.622              1.277
 Vibration    10          0.745              1.526              1.064
 Vibration    11          0.778              1.439              0.911
 Vibration    12          0.780              1.434              0.903
 Vibration    13          0.871              1.214              0.619
 Vibration    14          0.904              1.143              0.547
 Vibration    15          0.961              1.026              0.445

 Optimization completed.
    -- Stationary point found.
 Normal termination of Gaussian 16 at Fri May 23 02:23:46 2025.
