 Gaussian 16, Revision C.01,
 Gaussian 16:  ES64L-G16RevC.01  3-Jul-2019

 ----------------------------------------------------------------------
 #P wb97xd/6-311++G(d,p) Symm(None) scf(xqc) pop(None) freq opt(CalcFC,
  Tight)
 ----------------------------------------------------------------------

 ------------------------------
 Gaussian input prepared by ASE
 ------------------------------
 Symbolic Z-matrix:
 Charge =  0 Multiplicity = 1

 SCF Done:  E(RwB97XD) =  -1124.61727146     A.U. after   15 cycles
 SCF Done:  E(RwB97XD) =  -1124.61727154     A.U. after   10 cycles
 SCF Done:  E(RwB97XD) =  -1124.61727154     A.U. after    5 cycles
 Optimization completed.
    -- Stationary point found.
 Normal termination of Gaussian 16 at Fri May 23 02:20:21 2025.

 ----------------------------------------------------------------------
 #P Geom=AllCheck Guess=TCheck SCRF=Check GenChk RwB97XD/6-311++G(d,p)
 Freq
 ----------------------------------------------------------------------

 Structure from the checkpoint file:  "/tmp/Gau-9772.chk"
 ------------------------------
 Gaussian input prepared by ASE
 ------------------------------
 Charge =  0 Multiplicity = 1

                          Input orientation:
 ---------------------------------------------------------------------
 Center     Atomic      Atomic             Coordinates (Angstroms)
 Number     Number       Type             X           Y           Z
 ---------------------------------------------------------------------
      1          6           0       -0.657061    0.735576    1.198853
      2          6           0        0.000113    0.000366    0.000259
      3          9           0       -0.322416   -1.301025    0.072789
      4          9           0       -0.448856    0.498717   -1.145333
      5         16           0        1.904659    0.000580    0.000517
      6          8           0        2.261480   -0.507080   -1.321605
      7          8           0        1.906983    1.661293   -0.001842
      8          9           0        0.032784    0.460461    2.312612
      9          9           0       -0.677974    2.044867    1.018048
     10          9           0       -1.906308    0.309801    1.363265
     11          1           0        2.776188    1.975409    0.268337
 ---------------------------------------------------------------------

 SCF Done:  E(RwB97XD) =  -1124.61727154     A.U. after    1 cycles

 Isotropic polarizability for W=    0.000000       54.67 Bohr**3.
 End of Minotr F.D. properties file   721 does not exist.

                      1                      2                      3
                      A                      A                      A
 Frequencies --     43.6533                62.7836               136.9341
 Red. masses --      9.7819                18.2427                11.2822
 Frc consts  --      0.0110                 0.0424                 0.1246
 IR Inten    --      4.0041                 0.7366                 5.0885

                      4                      5                      6
                      A                      A                      A
 Frequencies --    204.6195               227.5875               232.5798
 Red. masses --      5.4823                 9.6001                 6.9409
 Frc consts  --      0.1352                 0.2930                 0.2212
 IR Inten    --     14.8841                13.3541                16.3818

                      7                      8                      9
                      A                      A                      A
 Frequencies --    260.9336               276.2783               328.5357
 Red. masses --      1.6631                16.9360                 8.1858
 Frc consts  --      0.0667                 0.7616                 0.5206
 IR Inten    --     67.3948                 1.4532                 3.7490

                     10                     11                     12
                      A                      A                      A
 Frequencies --    371.7342               411.6279               421.4745
 Red. masses --     13.4321                16.3882                17.9704
 Frc consts  --      1.0936                 1.6360                 1.8808
 IR Inten    --      0.7875                26.5904                 6.6471

                     13                     14                     15
                      A                      A                      A
 Frequencies --    515.5626               548.2774               598.2486
 Red. masses --     13.9149                17.0149                16.9236
 Frc consts  --      2.1792                 3.0136                 3.5687
 IR Inten    --     27.2324                 0.4691                 3.9226

                     16                     17                     18
                      A                      A                      A
 Frequencies --    655.0377               744.0569               760.1392
 Red. masses --     16.7134                15.6536                17.2765
 Frc consts  --      4.2252                 5.1059                 5.8816
 IR Inten    --     16.8592               112.4457                28.4052

                     19                     20                     21
                      A                      A                      A
 Frequencies --    975.3185              1099.2927              1147.7596
 Red. masses --     11.9443                 1.1823                13.3570
 Frc consts  --      6.6943                 0.8418                10.3672
 IR Inten    --    119.9939               139.8081               134.6428

                     22                     23                     24
                      A                      A                      A
 Frequencies --   1211.6744              1227.5803              1232.0484
 Red. masses --     12.9385                 9.3369                17.7776
 Frc consts  --     11.1920                 8.2900                15.8993
 IR Inten    --    259.3579                75.2795               290.6213

                     25                     26                     27
                      A                      A                      A
 Frequencies --   1252.1027              1351.1271              3874.1375
 Red. masses --     13.4408                12.7461                 1.0672
 Frc consts  --     12.4153                13.7095                 9.4376
 IR Inten    --    316.9877               123.7044               150.7548

 - Thermochemistry -
 -------------------
 Temperature   298.150 Kelvin.  Pressure   1.00000 Atm.
 Atom     1 has atomic number  6 and mass  12.00000

 Molecular mass:   183.96174 amu.
 Principal axes and moments of inertia in atomic units:
                           1         2         3
     Eigenvalues --   976.332541870.105772118.68776
           X            0.82487   0.44515   0.34847
           Y           -0.18114   0.79204  -0.58298
           Z           -0.53551   0.41776   0.73396
 This molecule is an asymmetric top.
 Rotational symmetry number  1.
 Warning -- assumption of classical behavior for rotation
           may cause significant error
 Rotational temperatures (Kelvin)      0.08871     0.04631     0.04088
 Rotational constants (GHZ):           1.84849     0.96505     0.85182
 Zero-point vibrational energy     120650.0 (Joules/Mol)
                                   28.83604 (Kcal/Mol)
 Warning -- explicit consideration of  15 degrees of freedom as
           vibrations may cause significant error
 Vibrational temperatures:     62.81    90.33   197.02   294.40   327.45
          (Kelvin)            334.63   375.43   397.50   472.69   534.84
                              592.24   606.41   741.78   788.85   860.75
                              942.45  1070.53  1093.67  1403.27  1581.64
                             1651.37  1743.33  1766.21  1772.64  1801.50
                             1943.97  5574.02

 Zero-point correction=                           0.045953 (Hartree/Particle)
 Thermal correction to Energy=                    0.055963
 Thermal correction to Enthalpy=                  0.056907
 Thermal correction to Gibbs Free Energy=         0.009560
 Sum of electronic and zero-point Energies=          -1124.571318
 Sum of electronic and thermal Energies=             -1124.561308
 Sum of electronic and thermal Enthalpies=           -1124.560364
 Sum of electronic and thermal Free Energies=        -1124.607711

                     E (Thermal)             CV                S
                      KCal/Mol        Cal/Mol-Kelvin    Cal/Mol-Kelvin
 Total                   35.117             34.305             99.651
 Electronic               0.000              0.000              0.000
 Translational            0.889              2.981             41.535
 Rotational               0.889              2.981             29.738
 Vibrational             33.340             28.344             28.378
 Vibration     1          0.595              1.980              5.086
 Vibration     2          0.597              1.972              4.368
 Vibration     3          0.614              1.916              2.846
 Vibration     4          0.640              1.833              2.091
 Vibration     5          0.651              1.799              1.898
 Vibration     6          0.653              1.791              1.859
 Vibration     7          0.669              1.744              1.656
 Vibration     8          0.678              1.717              1.557
 Vibration     9          0.712              1.618              1.267
 Vibration    10          0.743              1.530              1.073
 Vibration    11          0.776              1.445              0.921
 Vibration    12          0.784              1.424              0.887
 Vibration    13          0.871              1.216              0.620
 Vibration    14          0.904              1.143              0.548
 Vibration    15          0.956              1.036              0.453

 Optimization completed.
    -- Stationary point found.
 Normal termination of Gaussian 16 at Fri May 23 02:21:21 2025.
