 Gaussian 16, Revision C.01,
 Gaussian 16:  ES64L-G16RevC.01  3-Jul-2019

 ----------------------------------------------------------------------
 #P wb97xd/6-311++G(d,p) Symm(None) scf(xqc) pop(None) freq opt(CalcFC,
  Tight)
 ----------------------------------------------------------------------

 ------------------------------
 Gaussian input prepared by ASE
 ------------------------------
 Symbolic Z-matrix:
 Charge =  0 Multiplicity = 1

 SCF Done:  E(RwB97XD) =  -1124.61042602     A.U. after   15 cycles
 SCF Done:  E(RwB97XD) =  -1124.61576294     A.U. after   15 cycles
 SCF Done:  E(RwB97XD) =  -1124.61526525     A.U. after   14 cycles
 SCF Done:  E(RwB97XD) =  -1124.61609402     A.U. after   13 cycles
 SCF Done:  E(RwB97XD) =  -1124.61615458     A.U. after   12 cycles
 SCF Done:  E(RwB97XD) =  -1124.61620787     A.U. after   14 cycles
 SCF Done:  E(RwB97XD) =  -1124.61630266     A.U. after   12 cycles
 SCF Done:  E(RwB97XD) =  -1124.61638134     A.U. after   12 cycles
 SCF Done:  E(RwB97XD) =  -1124.61644546     A.U. after   11 cycles
 SCF Done:  E(RwB97XD) =  -1124.61646044     A.U. after   11 cycles
 SCF Done:  E(RwB97XD) =  -1124.61646340     A.U. after   10 cycles
 SCF Done:  E(RwB97XD) =  -1124.61646365     A.U. after   10 cycles
 SCF Done:  E(RwB97XD) =  -1124.61646373     A.U. after   10 cycles
 SCF Done:  E(RwB97XD) =  -1124.61646375     A.U. after    9 cycles
 SCF Done:  E(RwB97XD) =  -1124.61646375     A.U. after    5 cycles
 Optimization completed.
    -- Stationary point found.
 Normal termination of Gaussian 16 at Fri May 23 02:22:35 2025.

 ----------------------------------------------------------------------
 #P Geom=AllCheck Guess=TCheck SCRF=Check GenChk RwB97XD/6-311++G(d,p)
 Freq
 ----------------------------------------------------------------------

 Structure from the checkpoint file:  "/tmp/Gau-226290.chk"
 ------------------------------
 Gaussian input prepared by ASE
 ------------------------------
 Charge =  0 Multiplicity = 1

                          Input orientation:
 ---------------------------------------------------------------------
 Center     Atomic      Atomic             Coordinates (Angstroms)
 Number     Number       Type             X           Y           Z
 ---------------------------------------------------------------------
      1          6           0       -0.671387    0.807338   -1.179756
      2          6           0       -0.020753    0.104894    0.046764
      3          9           0       -0.397860    0.737904    1.167483
      4          9           0       -0.449564   -1.160964    0.095630
      5         16           0        1.874786   -0.028345    0.117828
      6          8           0        2.279945   -0.972588   -0.918320
      7          8           0        2.024262    1.532515   -0.426840
      8          9           0       -0.578186    2.124815   -1.080325
      9          9           0       -0.094336    0.405842   -2.304371
     10          9           0       -1.965042    0.482806   -1.225748
     11          1           0        2.867726    1.893115   -0.135161
 ---------------------------------------------------------------------

 SCF Done:  E(RwB97XD) =  -1124.61646375     A.U. after    1 cycles

 Isotropic polarizability for W=    0.000000       54.58 Bohr**3.
 End of Minotr F.D. properties file   721 does not exist.

                      1                      2                      3
                      A                      A                      A
 Frequencies --     44.4884                71.5505               151.6026
 Red. masses --     11.5222                15.5888                12.8157
 Frc consts  --      0.0134                 0.0470                 0.1735
 IR Inten    --      2.3913                 2.2445                 0.2913

                      4                      5                      6
                      A                      A                      A
 Frequencies --    192.6404               225.5851               236.7724
 Red. masses --     11.2865                 3.7559                 3.1728
 Frc consts  --      0.2468                 0.1126                 0.1048
 IR Inten    --      3.2713                30.3954                49.3959

                      7                      8                      9
                      A                      A                      A
 Frequencies --    256.4269               304.1615               338.7945
 Red. masses --      3.1157                15.7450                 5.8533
 Frc consts  --      0.1207                 0.8582                 0.3958
 IR Inten    --     25.5168                 4.3872                11.7360

                     10                     11                     12
                      A                      A                      A
 Frequencies --    362.9504               408.2438               442.3838
 Red. masses --     18.1841                13.8878                12.6472
 Frc consts  --      1.4114                 1.3637                 1.4583
 IR Inten    --      1.0403                22.9868                23.2365

                     13                     14                     15
                      A                      A                      A
 Frequencies --    480.4788               546.4086               597.5991
 Red. masses --     15.7662                17.8283                17.5442
 Frc consts  --      2.1445                 3.1361                 3.6915
 IR Inten    --     17.6121                 2.9861                 1.3451

                     16                     17                     18
                      A                      A                      A
 Frequencies --    645.2974               743.7010               763.0063
 Red. masses --     16.1369                15.5151                17.1997
 Frc consts  --      3.9590                 5.0559                 5.8997
 IR Inten    --      9.7564               110.3868                26.6789

                     19                     20                     21
                      A                      A                      A
 Frequencies --    986.1597              1108.7974              1146.5710
 Red. masses --      7.2831                 1.2329                12.9377
 Frc consts  --      4.1731                 0.8931                10.0210
 IR Inten    --    100.1427               119.9621               168.1031

                     22                     23                     24
                      A                      A                      A
 Frequencies --   1197.6716              1219.6328              1235.2015
 Red. masses --     13.1263                12.6620                15.3448
 Frc consts  --     11.0935                11.0972                13.7939
 IR Inten    --     66.7977               253.2592                86.7894

                     25                     26                     27
                      A                      A                      A
 Frequencies --   1263.9152              1332.9908              3877.6163
 Red. masses --     14.4260                12.0157                 1.0674
 Frc consts  --     13.5779                12.5792                 9.4556
 IR Inten    --    512.2610               132.6480               154.7772

 - Thermochemistry -
 -------------------
 Temperature   298.150 Kelvin.  Pressure   1.00000 Atm.
 Atom     1 has atomic number  6 and mass  12.00000

 Molecular mass:   183.96174 amu.
 Principal axes and moments of inertia in atomic units:
                           1         2         3
     Eigenvalues --  1076.435331805.084041923.00629
           X            0.93017   0.36555  -0.03404
           Y           -0.25753   0.71576   0.64913
           Z            0.26165  -0.59504   0.75991
 This molecule is an asymmetric top.
 Rotational symmetry number  1.
 Warning -- assumption of classical behavior for rotation
           may cause significant error
 Rotational temperatures (Kelvin)      0.08046     0.04798     0.04504
 Rotational constants (GHZ):           1.67659     0.99981     0.93850
 Zero-point vibrational energy     120707.1 (Joules/Mol)
                                   28.84968 (Kcal/Mol)
 Warning -- explicit consideration of  15 degrees of freedom as
           vibrations may cause significant error
 Vibrational temperatures:     64.01   102.95   218.12   277.17   324.57
          (Kelvin)            340.66   368.94   437.62   487.45   522.20
                              587.37   636.49   691.30   786.16   859.81
                              928.44  1070.02  1097.80  1418.86  1595.31
                             1649.66  1723.18  1754.78  1777.18  1818.49
                             1917.88  5579.02

 Zero-point correction=                           0.045975 (Hartree/Particle)
 Thermal correction to Energy=                    0.055938
 Thermal correction to Enthalpy=                  0.056882
 Thermal correction to Gibbs Free Energy=         0.009786
 Sum of electronic and zero-point Energies=          -1124.570489
 Sum of electronic and thermal Energies=             -1124.560526
 Sum of electronic and thermal Enthalpies=           -1124.559582
 Sum of electronic and thermal Free Energies=        -1124.606678

                     E (Thermal)             CV                S
                      KCal/Mol        Cal/Mol-Kelvin    Cal/Mol-Kelvin
 Total                   35.102             34.306             99.123
 Electronic               0.000              0.000              0.000
 Translational            0.889              2.981             41.535
 Rotational               0.889              2.981             29.703
 Vibrational             33.324             28.344             27.885
 Vibration     1          0.595              1.980              5.048
 Vibration     2          0.598              1.968              4.110
 Vibration     3          0.619              1.901              2.652
 Vibration     4          0.635              1.850              2.202
 Vibration     5          0.650              1.802              1.914
 Vibration     6          0.656              1.784              1.827
 Vibration     7          0.666              1.752              1.686
 Vibration     8          0.695              1.666              1.394
 Vibration     9          0.719              1.598              1.218
 Vibration    10          0.737              1.549              1.109
 Vibration    11          0.773              1.452              0.933
 Vibration    12          0.802              1.378              0.819
 Vibration    13          0.837              1.293              0.709
 Vibration    14          0.902              1.148              0.552
 Vibration    15          0.956              1.037              0.454

 Optimization completed.
    -- Stationary point found.
 Normal termination of Gaussian 16 at Fri May 23 02:23:38 2025.
