 Gaussian 16, Revision C.01,
 Gaussian 16:  ES64L-G16RevC.01  3-Jul-2019

 ----------------------------------------------------------------------
 #P wb97xd/6-311++G(d,p) Symm(None) scf(xqc) pop(None) freq opt(CalcFC,
  Tight)
 ----------------------------------------------------------------------

 ------------------------------
 Gaussian input prepared by ASE
 ------------------------------
 Symbolic Z-matrix:
 Charge =  0 Multiplicity = 1

 SCF Done:  E(RwB97XD) =  -1124.60302416     A.U. after   15 cycles
 SCF Done:  E(RwB97XD) =  -1124.61086424     A.U. after   15 cycles
 SCF Done:  E(RwB97XD) =  -1124.61168052     A.U. after   13 cycles
 SCF Done:  E(RwB97XD) =  -1124.61336556     A.U. after   15 cycles
 SCF Done:  E(RwB97XD) =  -1124.61445047     A.U. after   13 cycles
 SCF Done:  E(RwB97XD) =  -1124.61526501     A.U. after   13 cycles
 SCF Done:  E(RwB97XD) =  -1124.61577125     A.U. after   14 cycles
 SCF Done:  E(RwB97XD) =  -1124.61601387     A.U. after   12 cycles
 SCF Done:  E(RwB97XD) =  -1124.61613902     A.U. after   12 cycles
 SCF Done:  E(RwB97XD) =  -1124.61618520     A.U. after   13 cycles
 SCF Done:  E(RwB97XD) =  -1124.61640803     A.U. after   13 cycles
 SCF Done:  E(RwB97XD) =  -1124.61644220     A.U. after   11 cycles
 SCF Done:  E(RwB97XD) =  -1124.61645603     A.U. after   12 cycles
 SCF Done:  E(RwB97XD) =  -1124.61646225     A.U. after   11 cycles
 SCF Done:  E(RwB97XD) =  -1124.61646282     A.U. after   11 cycles
 SCF Done:  E(RwB97XD) =  -1124.61646292     A.U. after   10 cycles
 SCF Done:  E(RwB97XD) =  -1124.61646292     A.U. after    7 cycles
 SCF Done:  E(RwB97XD) =  -1124.61646292     A.U. after    5 cycles
 SCF Done:  E(RwB97XD) =  -1124.61646292     A.U. after    4 cycles
 Optimization completed.
    -- Stationary point found.
 Normal termination of Gaussian 16 at Fri May 23 02:23:10 2025.

 ----------------------------------------------------------------------
 #P Geom=AllCheck Guess=TCheck SCRF=Check GenChk RwB97XD/6-311++G(d,p)
 Freq
 ----------------------------------------------------------------------

 Structure from the checkpoint file:  "/tmp/Gau-160656.chk"
 ------------------------------
 Gaussian input prepared by ASE
 ------------------------------
 Charge =  0 Multiplicity = 1

                          Input orientation:
 ---------------------------------------------------------------------
 Center     Atomic      Atomic             Coordinates (Angstroms)
 Number     Number       Type             X           Y           Z
 ---------------------------------------------------------------------
      1          6           0       -0.779036    0.746615   -1.222801
      2          6           0       -0.167227    0.054684    0.029300
      3          9           0       -0.669141    0.623475    1.135414
      4          9           0       -0.503965   -1.239635    0.013325
      5         16           0        1.723016    0.054499    0.236555
      6          8           0        2.270365   -0.819286   -0.795999
      7          8           0        1.796171    1.641062   -0.245661
      8          9           0       -0.785808    2.063875   -1.085032
      9          9           0       -0.098939    0.418515   -2.313145
     10          9           0       -2.040430    0.335757   -1.368243
     11          1           0        2.587154    2.049757    0.120206
 ---------------------------------------------------------------------

 SCF Done:  E(RwB97XD) =  -1124.61646292     A.U. after    1 cycles

 Isotropic polarizability for W=    0.000000       54.58 Bohr**3.
 End of Minotr F.D. properties file   721 does not exist.

                      1                      2                      3
                      A                      A                      A
 Frequencies --     43.9780                71.3707               150.1196
 Red. masses --     11.1894                16.1286                12.6086
 Frc consts  --      0.0128                 0.0484                 0.1674
 IR Inten    --      2.6702                 1.9704                 0.3303

                      4                      5                      6
                      A                      A                      A
 Frequencies --    191.8079               223.9307               235.0319
 Red. masses --     11.3043                 2.9695                 3.5247
 Frc consts  --      0.2450                 0.0877                 0.1147
 IR Inten    --      3.2709                41.1966                43.6856

                      7                      8                      9
                      A                      A                      A
 Frequencies --    255.9465               304.1217               338.6307
 Red. masses --      3.4926                16.0312                 6.0175
 Frc consts  --      0.1348                 0.8736                 0.4066
 IR Inten    --     21.2707                 4.2054                11.1755

                     10                     11                     12
                      A                      A                      A
 Frequencies --    362.7204               408.6206               442.5221
 Red. masses --     18.2104                13.8437                12.7318
 Frc consts  --      1.4116                 1.3619                 1.4690
 IR Inten    --      1.0563                23.0568                23.1696

                     13                     14                     15
                      A                      A                      A
 Frequencies --    480.0951               546.4765               597.5464
 Red. masses --     15.7891                17.8456                17.5468
 Frc consts  --      2.1442                 3.1400                 3.6914
 IR Inten    --     17.4673                 2.9912                 1.3218

                     16                     17                     18
                      A                      A                      A
 Frequencies --    645.2276               742.4777               762.8470
 Red. masses --     16.1529                15.5341                17.1845
 Frc consts  --      3.9621                 5.0455                 5.8920
 IR Inten    --      9.8415               111.1259                25.7505

                     19                     20                     21
                      A                      A                      A
 Frequencies --    986.4621              1110.3014              1146.4785
 Red. masses --      7.3639                 1.2310                12.8732
 Frc consts  --      4.2220                 0.8941                 9.9694
 IR Inten    --     99.9462               120.2442               167.8383

                     22                     23                     24
                      A                      A                      A
 Frequencies --   1197.3624              1219.6778              1234.8913
 Red. masses --     13.0959                12.6958                15.3838
 Frc consts  --     11.0621                11.1276                13.8220
 IR Inten    --     66.3215               249.5362                93.9580

                     25                     26                     27
                      A                      A                      A
 Frequencies --   1263.8845              1333.0591              3877.7962
 Red. masses --     14.3585                11.9909                 1.0674
 Frc consts  --     13.5137                12.5545                 9.4565
 IR Inten    --    508.5162               133.8485               155.1833

 - Thermochemistry -
 -------------------
 Temperature   298.150 Kelvin.  Pressure   1.00000 Atm.
 Atom     1 has atomic number  6 and mass  12.00000

 Molecular mass:   183.96174 amu.
 Principal axes and moments of inertia in atomic units:
                           1         2         3
     Eigenvalues --  1076.530191806.446691922.79592
           X            0.92573   0.35236  -0.13736
           Y           -0.19692   0.75919   0.62037
           Z            0.32287  -0.54724   0.77219
 This molecule is an asymmetric top.
 Rotational symmetry number  1.
 Warning -- assumption of classical behavior for rotation
           may cause significant error
 Rotational temperatures (Kelvin)      0.08046     0.04795     0.04505
 Rotational constants (GHZ):           1.67644     0.99906     0.93860
 Zero-point vibrational energy     120663.6 (Joules/Mol)
                                   28.83930 (Kcal/Mol)
 Warning -- explicit consideration of  15 degrees of freedom as
           vibrations may cause significant error
 Vibrational temperatures:     63.27   102.69   215.99   275.97   322.19
          (Kelvin)            338.16   368.25   437.56   487.21   521.87
                              587.91   636.69   690.75   786.26   859.74
                              928.34  1068.26  1097.57  1419.30  1597.48
                             1649.53  1722.74  1754.84  1776.73  1818.45
                             1917.97  5579.28

 Zero-point correction=                           0.045958 (Hartree/Particle)
 Thermal correction to Energy=                    0.055933
 Thermal correction to Enthalpy=                  0.056877
 Thermal correction to Gibbs Free Energy=         0.009739
 Sum of electronic and zero-point Energies=          -1124.570505
 Sum of electronic and thermal Energies=             -1124.560530
 Sum of electronic and thermal Enthalpies=           -1124.559586
 Sum of electronic and thermal Free Energies=        -1124.606724

                     E (Thermal)             CV                S
                      KCal/Mol        Cal/Mol-Kelvin    Cal/Mol-Kelvin
 Total                   35.099             34.317             99.210
 Electronic               0.000              0.000              0.000
 Translational            0.889              2.981             41.535
 Rotational               0.889              2.981             29.704
 Vibrational             33.321             28.356             27.971
 Vibration     1          0.595              1.980              5.071
 Vibration     2          0.598              1.968              4.115
 Vibration     3          0.618              1.903              2.671
 Vibration     4          0.634              1.851              2.210
 Vibration     5          0.649              1.805              1.927
 Vibration     6          0.655              1.787              1.840
 Vibration     7          0.666              1.753              1.689
 Vibration     8          0.695              1.666              1.394
 Vibration     9          0.719              1.598              1.219
 Vibration    10          0.737              1.549              1.110
 Vibration    11          0.773              1.452              0.931
 Vibration    12          0.802              1.377              0.819
 Vibration    13          0.836              1.294              0.710
 Vibration    14          0.902              1.147              0.552
 Vibration    15          0.955              1.037              0.454

 Optimization completed.
    -- Stationary point found.
 Normal termination of Gaussian 16 at Fri May 23 02:24:09 2025.
