 Gaussian 16, Revision C.01,
 Gaussian 16:  ES64L-G16RevC.01  3-Jul-2019

 ----------------------------------------------------------------------
 #P wb97xd/6-311++G(d,p) Symm(None) scf(xqc) pop(None) freq opt(CalcFC,
  Tight)
 ----------------------------------------------------------------------

 ------------------------------
 Gaussian input prepared by ASE
 ------------------------------
 Symbolic Z-matrix:
 Charge =  0 Multiplicity = 2

 SCF Done:  E(UwB97XD) =  -1199.13890707     A.U. after   27 cycles
 SCF Done:  E(UwB97XD) =  -1199.13890707     A.U. after    5 cycles
 Optimization completed.
    -- Stationary point found.
 Normal termination of Gaussian 16 at Fri May 23 02:24:56 2025.

 ----------------------------------------------------------------------
 #P Geom=AllCheck Guess=TCheck SCRF=Check GenChk UwB97XD/6-311++G(d,p)
 Freq
 ----------------------------------------------------------------------

 Structure from the checkpoint file:  "/tmp/Gau-156307.chk"
 ------------------------------
 Gaussian input prepared by ASE
 ------------------------------
 Charge =  0 Multiplicity = 2

                          Input orientation:
 ---------------------------------------------------------------------
 Center     Atomic      Atomic             Coordinates (Angstroms)
 Number     Number       Type             X           Y           Z
 ---------------------------------------------------------------------
      1          6           0       -0.730836    0.295988    1.346236
      2          6           0       -0.060601   -0.031430   -0.019965
      3          9           0       -0.353311   -1.285560   -0.364404
      4          9           0       -0.520020    0.805654   -0.947009
      5         16           0        1.806953    0.112689   -0.006811
      6          8           0        2.291442   -0.610661    1.135854
      7          8           0        2.224891   -0.388721   -1.335457
      8          8           0        2.120510    1.556390   -0.067705
      9          9           0       -0.462925   -0.647241    2.234419
     10          9           0       -0.287994    1.465315    1.798487
     11          9           0       -2.044674    0.368336    1.173818
 ---------------------------------------------------------------------

 SCF Done:  E(UwB97XD) =  -1199.13890707     A.U. after    1 cycles

 Isotropic polarizability for W=    0.000000       59.56 Bohr**3.
 End of Minotr F.D. properties file   721 does not exist.

                      1                      2                      3
                      A                      A                      A
 Frequencies --     40.3710                63.8000               128.1874
 Red. masses --     17.2104                18.0106                17.4783
 Frc consts  --      0.0165                 0.0432                 0.1692
 IR Inten    --      0.0371                 0.0177                 0.3898

                      4                      5                      6
                      A                      A                      A
 Frequencies --    182.0359               218.2375               220.6823
 Red. masses --     18.5111                18.0205                17.6906
 Frc consts  --      0.3614                 0.5057                 0.5076
 IR Inten    --      4.4636                 2.1567                12.9159

                      7                      8                      9
                      A                      A                      A
 Frequencies --    236.6002               245.7829               277.5863
 Red. masses --     16.6756                18.8236                17.7089
 Frc consts  --      0.5500                 0.6700                 0.8040
 IR Inten    --      2.3859                 3.9391                 2.4926

                     10                     11                     12
                      A                      A                      A
 Frequencies --    321.7670               340.0626               376.0775
 Red. masses --     19.2253                19.3372                18.7818
 Frc consts  --      1.1728                 1.3175                 1.5651
 IR Inten    --      0.5280                 1.2469                 0.7987

                     13                     14                     15
                      A                      A                      A
 Frequencies --    462.7351               538.3602               599.0587
 Red. masses --     18.1122                18.0620                17.9199
 Frc consts  --      2.2850                 3.0843                 3.7890
 IR Inten    --      2.3005                27.9777                 1.6767

                     16                     17                     18
                      A                      A                      A
 Frequencies --    607.0918               652.7504               767.9999
 Red. masses --     20.7559                17.5016                17.4480
 Frc consts  --      4.5071                 4.3936                 6.0634
 IR Inten    --    114.0002                35.3663                13.5250

                     19                     20                     21
                      A                      A                      A
 Frequencies --    812.6372               973.7947              1076.6115
 Red. masses --     17.3645                14.0133                16.4540
 Frc consts  --      6.7562                 7.8294                11.2367
 IR Inten    --     77.9376               171.8902                38.6107

                     22                     23                     24
                      A                      A                      A
 Frequencies --   1176.2926              1222.8618              1238.7915
 Red. masses --     13.8825                13.7664                13.4542
 Frc consts  --     11.3175                12.1290                12.1648
 IR Inten    --    175.9279                70.4902               194.9117

                     25                     26                     27
                      A                      A                      A
 Frequencies --   1250.9403              1267.1374              1346.3701
 Red. masses --     13.9323                16.1307                12.6843
 Frc consts  --     12.8453                15.2599                13.5471
 IR Inten    --    136.6775               279.7494               102.9907

 - Thermochemistry -
 -------------------
 Temperature   298.150 Kelvin.  Pressure   1.00000 Atm.
 Atom     1 has atomic number  6 and mass  12.00000

 Molecular mass:   198.94883 amu.
 Principal axes and moments of inertia in atomic units:
                           1         2         3
     Eigenvalues --  1115.247392153.512922289.05548
           X            0.88449   0.46212  -0.06419
           Y           -0.03978   0.21177   0.97651
           Z           -0.46486   0.86116  -0.20569
 This molecule is an asymmetric top.
 Rotational symmetry number  1.
 Warning -- assumption of classical behavior for rotation
           may cause significant error
 Rotational temperatures (Kelvin)      0.07766     0.04022     0.03784
 Rotational constants (GHZ):           1.61824     0.83805     0.78842
 Zero-point vibrational energy      99557.0 (Joules/Mol)
                                   23.79468 (Kcal/Mol)
 Warning -- explicit consideration of  16 degrees of freedom as
           vibrations may cause significant error
 Vibrational temperatures:     58.08    91.79   184.43   261.91   314.00
          (Kelvin)            317.51   340.41   353.63   399.38   462.95
                              489.27   541.09   665.77   774.58   861.91
                              873.47   939.16  1104.98  1169.20  1401.07
                             1549.00  1692.42  1759.43  1782.34  1799.82
                             1823.13  1937.13

 Zero-point correction=                           0.037919 (Hartree/Particle)
 Thermal correction to Energy=                    0.048508
 Thermal correction to Enthalpy=                  0.049452
 Thermal correction to Gibbs Free Energy=        -0.000017
 Sum of electronic and zero-point Energies=          -1199.100988
 Sum of electronic and thermal Energies=             -1199.090399
 Sum of electronic and thermal Enthalpies=           -1199.089455
 Sum of electronic and thermal Free Energies=        -1199.138924

                     E (Thermal)             CV                S
                      KCal/Mol        Cal/Mol-Kelvin    Cal/Mol-Kelvin
 Total                   30.439             35.915            104.116
 Electronic               0.000              0.000              1.377
 Translational            0.889              2.981             41.768
 Rotational               0.889              2.981             30.087
 Vibrational             28.662             29.953             30.884
 Vibration     1          0.594              1.981              5.241
 Vibration     2          0.597              1.972              4.336
 Vibration     3          0.611              1.925              2.973
 Vibration     4          0.630              1.864              2.307
 Vibration     5          0.646              1.813              1.974
 Vibration     6          0.647              1.810              1.953
 Vibration     7          0.655              1.785              1.828
 Vibration     8          0.660              1.770              1.761
 Vibration     9          0.679              1.715              1.548
 Vibration    10          0.707              1.632              1.301
 Vibration    11          0.720              1.595              1.212
 Vibration    12          0.747              1.521              1.055
 Vibration    13          0.820              1.333              0.758
 Vibration    14          0.893              1.165              0.569
 Vibration    15          0.957              1.034              0.451
 Vibration    16          0.966              1.017              0.438

 Optimization completed.
    -- Stationary point found.
 Normal termination of Gaussian 16 at Fri May 23 02:27:58 2025.
