 Gaussian 16, Revision C.01,
 Gaussian 16:  ES64L-G16RevC.01  3-Jul-2019

 ----------------------------------------------------------------------
 #P wb97xd/6-311++G(d,p) Symm(None) scf(xqc) pop(None) opt(NoFreeze,TS,
 CalcAll,NoEigentest,MaxCycle=999)
 ----------------------------------------------------------------------

 ------------------------------
 Gaussian input prepared by ASE
 ------------------------------
 Symbolic Z-matrix:
 Charge =  0 Multiplicity = 1

 SCF Done:  E(RwB97XD) =  -1199.56487637     A.U. after   29 cycles
 SCF Done:  E(RwB97XD) =  -1199.58640570     A.U. after   24 cycles
 SCF Done:  E(RwB97XD) =  -1199.59034389     A.U. after   25 cycles
 SCF Done:  E(RwB97XD) =  -1199.59366754     A.U. after   24 cycles
 SCF Done:  E(RwB97XD) =  -1199.59586257     A.U. after   23 cycles
 SCF Done:  E(RwB97XD) =  -1199.59648428     A.U. after   21 cycles
 SCF Done:  E(RwB97XD) =  -1199.59650507     A.U. after   20 cycles
 SCF Done:  E(RwB97XD) =  -1199.59650537     A.U. after   19 cycles

 Isotropic polarizability for W=    0.000000       74.37 Bohr**3.
 End of Minotr F.D. properties file   721 does not exist.

 Optimization completed.
    -- Stationary point found.

                          Input orientation:
 ---------------------------------------------------------------------
 Center     Atomic      Atomic             Coordinates (Angstroms)
 Number     Number       Type             X           Y           Z
 ---------------------------------------------------------------------
      1          6           0       -0.584941   -1.364395   -0.294714
      2          6           0        0.075447    0.010031   -0.052084
      3          9           0       -0.436372    0.930406   -0.851955
      4          9           0       -0.108864    0.375347    1.230993
      5         16           0        1.999406   -0.046183   -0.160903
      6          8           0        1.645451    0.994154    2.282752
      7          8           0        2.372156   -0.599299   -1.451643
      8          8           0        2.178114    1.556018   -0.227199
      9          9           0       -0.532156   -1.672911   -1.579753
     10          9           0        0.065757   -2.290601    0.408694
     11          9           0       -1.854820   -1.342622    0.094650
     12          1           0        2.188880    1.835166    0.715054
 ---------------------------------------------------------------------

 ******    1 imaginary frequencies (negative Signs) ******

                      1                      2                      3
                      A                      A                      A
 Frequencies --   -297.9742                43.8007                59.8475
 Red. masses --     17.1127                15.4114                17.3793
 Frc consts  --      0.8952                 0.0174                 0.0367
 IR Inten    --     56.8795                 0.3807                 0.0297

                      4                      5                      6
                      A                      A                      A
 Frequencies --    121.1619               157.6989               195.5309
 Red. masses --     16.2894                10.7447                14.4760
 Frc consts  --      0.1409                 0.1574                 0.3261
 IR Inten    --      0.5255                 6.9731                 9.8987

                      7                      8                      9
                      A                      A                      A
 Frequencies --    226.8170               236.2415               268.4465
 Red. masses --     17.4152                14.8128                14.4363
 Frc consts  --      0.5279                 0.4871                 0.6129
 IR Inten    --      3.0582                 2.2601                 6.3546

                     10                     11                     12
                      A                      A                      A
 Frequencies --    284.5801               342.6653               375.9478
 Red. masses --     12.3749                17.6890                18.3205
 Frc consts  --      0.5905                 1.2238                 1.5256
 IR Inten    --      5.2593                 1.1641                 1.1263

                     13                     14                     15
                      A                      A                      A
 Frequencies --    408.5970               437.4963               506.1048
 Red. masses --     15.3550                12.0132                16.2760
 Frc consts  --      1.5104                 1.3547                 2.4563
 IR Inten    --     15.9007                19.5633                33.8118

                     16                     17                     18
                      A                      A                      A
 Frequencies --    544.5286               601.2949               633.3245
 Red. masses --     17.8012                17.5708                 3.0198
 Frc consts  --      3.1099                 3.7430                 0.7136
 IR Inten    --      2.0254                 5.9710                72.8133

                     19                     20                     21
                      A                      A                      A
 Frequencies --    638.4497               759.5167               783.9100
 Red. masses --      1.5297                16.5132                 9.7620
 Frc consts  --      0.3674                 5.6125                 3.5345
 IR Inten    --     63.7238                33.0294                87.5447

                     22                     23                     24
                      A                      A                      A
 Frequencies --    938.3903              1094.5572              1179.3144
 Red. masses --     13.1653                12.7055                 1.4460
 Frc consts  --      6.8304                 8.9685                 1.1849
 IR Inten    --    100.5712                32.5802               200.8063

                     25                     26                     27
                      A                      A                      A
 Frequencies --   1223.8227              1229.6369              1248.1680
 Red. masses --     12.3800                10.2563                10.2650
 Frc consts  --     10.9247                 9.1369                 9.4222
 IR Inten    --    313.6449                67.1923               133.0370

                     28                     29                     30
                      A                      A                      A
 Frequencies --   1277.2148              1350.7909              3500.8040
 Red. masses --      6.6931                12.2836                 1.0656
 Frc consts  --      6.4329                13.2054                 7.6941
 IR Inten    --    274.7724               218.7140                 6.9290

 - Thermochemistry -
 -------------------
 Temperature   298.150 Kelvin.  Pressure   1.00000 Atm.
 Atom     1 has atomic number  6 and mass  12.00000

 Molecular mass:   199.95666 amu.
 Principal axes and moments of inertia in atomic units:
                           1         2         3
     Eigenvalues --  1293.835582212.461562583.65166
           X            0.76960  -0.46822  -0.43415
           Y            0.60786   0.32905   0.72266
           Z            0.19551   0.82006  -0.53785
 This molecule is an asymmetric top.
 Rotational symmetry number  1.
 Warning -- assumption of classical behavior for rotation
           may cause significant error
 Rotational temperatures (Kelvin)      0.06694     0.03915     0.03352
 Rotational constants (GHZ):           1.39488     0.81572     0.69852
    1 imaginary frequencies ignored.
 Zero-point vibrational energy     123626.0 (Joules/Mol)
                                   29.54733 (Kcal/Mol)
 Warning -- explicit consideration of  16 degrees of freedom as
           vibrations may cause significant error
 Vibrational temperatures:     63.02    86.11   174.32   226.89   281.33
          (Kelvin)            326.34   339.90   386.23   409.45   493.02
                              540.91   587.88   629.46   728.17   783.46
                              865.13   911.21   918.59  1092.78  1127.87
                             1350.13  1574.82  1696.77  1760.81  1769.17
                             1795.84  1837.63  1943.49  5036.88

 Zero-point correction=                           0.047087 (Hartree/Particle)
 Thermal correction to Energy=                    0.057864
 Thermal correction to Enthalpy=                  0.058808
 Thermal correction to Gibbs Free Energy=         0.009541
 Sum of electronic and zero-point Energies=          -1199.549419
 Sum of electronic and thermal Energies=             -1199.538641
 Sum of electronic and thermal Enthalpies=           -1199.537697
 Sum of electronic and thermal Free Energies=        -1199.586964

                     E (Thermal)             CV                S
                      KCal/Mol        Cal/Mol-Kelvin    Cal/Mol-Kelvin
 Total                   36.310             37.074            103.691
 Electronic               0.000              0.000              0.000
 Translational            0.889              2.981             41.783
 Rotational               0.889              2.981             30.382
 Vibrational             34.533             31.113             31.526
 Vibration     1          0.595              1.980              5.079
 Vibration     2          0.597              1.973              4.462
 Vibration     3          0.609              1.932              3.082
 Vibration     4          0.621              1.894              2.577
 Vibration     5          0.636              1.846              2.175
 Vibration     6          0.650              1.800              1.904
 Vibration     7          0.655              1.785              1.831
 Vibration     8          0.673              1.731              1.606
 Vibration     9          0.683              1.702              1.506
 Vibration    10          0.722              1.590              1.200
 Vibration    11          0.747              1.521              1.055
 Vibration    12          0.773              1.452              0.932
 Vibration    13          0.798              1.388              0.835
 Vibration    14          0.861              1.236              0.643
 Vibration    15          0.900              1.152              0.556
 Vibration    16          0.960              1.029              0.447

 Normal termination of Gaussian 16 at Fri May 23 07:44:41 2025.
