 Gaussian 16, Revision C.01,
 Gaussian 16:  ES64L-G16RevC.01  3-Jul-2019

 ----------------------------------------------------------------------
 #P wb97xd/6-311++G(d,p) Symm(None) scf(xqc) pop(None) opt(NoFreeze,TS,
 CalcAll,NoEigentest,MaxCycle=999)
 ----------------------------------------------------------------------

 ------------------------------
 Gaussian input prepared by ASE
 ------------------------------
 Symbolic Z-matrix:
 Charge =  0 Multiplicity = 1

 SCF Done:  E(RwB97XD) =  -1199.65884259     A.U. after   23 cycles

 Isotropic polarizability for W=    0.000000       78.06 Bohr**3.
 End of Minotr F.D. properties file   721 does not exist.

 Optimization completed.
    -- Stationary point found.

                          Input orientation:
 ---------------------------------------------------------------------
 Center     Atomic      Atomic             Coordinates (Angstroms)
 Number     Number       Type             X           Y           Z
 ---------------------------------------------------------------------
      1          6           0        4.128664    2.130441    1.813476
      2          6           0        3.351350    0.882155    1.301936
      3          9           0        4.157781    0.107030    0.594528
      4          9           0        2.847413    0.216301    2.324570
      5         16           0        1.852568    1.430679    0.211838
      6          8           0       -0.425554    1.109874    0.419811
      7          8           0        2.350017    2.181440   -0.930664
      8          8           0        1.265975    0.070388    0.029171
      9          9           0        4.769281    2.723454    0.822111
     10          9           0        3.275882    2.987759    2.366236
     11          9           0        5.007196    1.740866    2.729864
     12          1           0       -1.333675    1.020375    0.085680
 ---------------------------------------------------------------------

 ******    1 imaginary frequencies (negative Signs) ******

                      1                      2                      3
                      A                      A                      A
 Frequencies --   -496.5223                38.2340                53.3235
 Red. masses --      2.5612                14.1801                 8.1127
 Frc consts  --      0.3720                 0.0122                 0.0136
 IR Inten    --    200.1964                 0.2167                 1.2151

                      4                      5                      6
                      A                      A                      A
 Frequencies --     75.2118               125.3618               186.3237
 Red. masses --      7.2525                16.4393                10.0667
 Frc consts  --      0.0242                 0.1522                 0.2059
 IR Inten    --      1.9878                 1.6016                 6.5569

                      7                      8                      9
                      A                      A                      A
 Frequencies --    223.4425               223.9704               267.4524
 Red. masses --     18.3535                15.1300                10.6508
 Frc consts  --      0.5399                 0.4472                 0.4489
 IR Inten    --      2.1705                 9.2763                17.3256

                     10                     11                     12
                      A                      A                      A
 Frequencies --    313.4199               326.2427               356.3380
 Red. masses --     17.3188                 1.8991                 3.8364
 Frc consts  --      1.0024                 0.1191                 0.2870
 IR Inten    --      4.8118                58.8515                77.5648

                     13                     14                     15
                      A                      A                      A
 Frequencies --    379.5663               403.0765               466.7696
 Red. masses --     11.9499                18.6782                18.3542
 Frc consts  --      1.0144                 1.7880                 2.3561
 IR Inten    --     35.9408                35.3151                28.2752

                     16                     17                     18
                      A                      A                      A
 Frequencies --    494.2109               550.2484               598.4483
 Red. masses --     14.3597                18.0008                17.7950
 Frc consts  --      2.0664                 3.2111                 3.7549
 IR Inten    --     50.6081                 3.4270                 4.3744

                     19                     20                     21
                      A                      A                      A
 Frequencies --    646.7241               758.9404               853.0086
 Red. masses --     16.9739                16.5859                 2.0673
 Frc consts  --      4.1828                 5.6287                 0.8863
 IR Inten    --     13.2865                64.9304               141.5703

                     22                     23                     24
                      A                      A                      A
 Frequencies --    930.4543               986.5700              1150.0949
 Red. masses --      9.8582                 7.5658                13.6229
 Frc consts  --      5.0285                 4.3387                10.6166
 IR Inten    --    260.7109                46.9901               198.5245

                     25                     26                     27
                      A                      A                      A
 Frequencies --   1232.0636              1252.5393              1257.1420
 Red. masses --     13.3289                12.9888                14.3697
 Frc consts  --     11.9210                12.0061                13.3803
 IR Inten    --    158.4202                 7.4440               240.8981

                     28                     29                     30
                      A                      A                      A
 Frequencies --   1285.6181              1338.3348              3769.7654
 Red. masses --     16.6502                12.6216                 1.0662
 Frc consts  --     16.2141                13.3196                 8.9272
 IR Inten    --    421.6370               246.4871               159.2743

 - Thermochemistry -
 -------------------
 Temperature   298.150 Kelvin.  Pressure   1.00000 Atm.
 Atom     1 has atomic number  6 and mass  12.00000

 Molecular mass:   199.95666 amu.
 Principal axes and moments of inertia in atomic units:
                           1         2         3
     Eigenvalues --  1112.582872630.666222767.57531
           X            0.86286   0.02164  -0.50498
           Y            0.23361   0.86889   0.43641
           Z            0.44822  -0.49453   0.74467
 This molecule is an asymmetric top.
 Rotational symmetry number  1.
 Warning -- assumption of classical behavior for rotation
           may cause significant error
 Rotational temperatures (Kelvin)      0.07785     0.03292     0.03130
 Rotational constants (GHZ):           1.62212     0.68604     0.65210
    1 imaginary frequencies ignored.
 Zero-point vibrational energy     122873.8 (Joules/Mol)
                                   29.36754 (Kcal/Mol)
 Warning -- explicit consideration of  17 degrees of freedom as
           vibrations may cause significant error
 Vibrational temperatures:     55.01    76.72   108.21   180.37   268.08
          (Kelvin)            321.48   322.24   384.80   450.94   469.39
                              512.69   546.11   579.94   671.58   711.06
                              791.68   861.03   930.49  1091.95  1227.29
                             1338.72  1419.45  1654.73  1772.66  1802.12
                             1808.75  1849.72  1925.57  5423.85

 Zero-point correction=                           0.046800 (Hartree/Particle)
 Thermal correction to Energy=                    0.057958
 Thermal correction to Enthalpy=                  0.058902
 Thermal correction to Gibbs Free Energy=         0.008329
 Sum of electronic and zero-point Energies=          -1199.612042
 Sum of electronic and thermal Energies=             -1199.600885
 Sum of electronic and thermal Enthalpies=           -1199.599941
 Sum of electronic and thermal Free Energies=        -1199.650514

                     E (Thermal)             CV                S
                      KCal/Mol        Cal/Mol-Kelvin    Cal/Mol-Kelvin
 Total                   36.369             37.714            106.441
 Electronic               0.000              0.000              0.000
 Translational            0.889              2.981             41.783
 Rotational               0.889              2.981             30.472
 Vibrational             34.592             31.752             34.185
 Vibration     1          0.594              1.982              5.349
 Vibration     2          0.596              1.976              4.690
 Vibration     3          0.599              1.966              4.012
 Vibration     4          0.610              1.928              3.016
 Vibration     5          0.632              1.859              2.264
 Vibration     6          0.649              1.805              1.931
 Vibration     7          0.649              1.805              1.927
 Vibration     8          0.673              1.733              1.613
 Vibration     9          0.701              1.648              1.344
 Vibration    10          0.710              1.623              1.279
 Vibration    11          0.732              1.562              1.138
 Vibration    12          0.750              1.514              1.041
 Vibration    13          0.768              1.463              0.951
 Vibration    14          0.824              1.324              0.747
 Vibration    15          0.850              1.263              0.673
 Vibration    16          0.906              1.139              0.544
 Vibration    17          0.956              1.035              0.452

 Normal termination of Gaussian 16 at Fri May 23 05:24:39 2025.
