 Gaussian 16, Revision C.01,
 Gaussian 16:  ES64L-G16RevC.01  3-Jul-2019

 ----------------------------------------------------------------------
 #P wb97xd/6-311++G(d,p) Symm(None) scf(xqc) pop(None) opt(NoFreeze,TS,
 CalcAll,NoEigentest,MaxCycle=999)
 ----------------------------------------------------------------------

 ------------------------------
 Gaussian input prepared by ASE
 ------------------------------
 Symbolic Z-matrix:
 Charge =  0 Multiplicity = 1

 SCF Done:  E(RwB97XD) =  -1199.65331735     A.U. after   17 cycles
 SCF Done:  E(RwB97XD) =  -1199.65538005     A.U. after   16 cycles
 SCF Done:  E(RwB97XD) =  -1199.65617096     A.U. after   14 cycles
 SCF Done:  E(RwB97XD) =  -1199.65620092     A.U. after   13 cycles

 Isotropic polarizability for W=    0.000000       61.87 Bohr**3.
 End of Minotr F.D. properties file   721 does not exist.

 Optimization completed.
    -- Stationary point found.

                          Input orientation:
 ---------------------------------------------------------------------
 Center     Atomic      Atomic             Coordinates (Angstroms)
 Number     Number       Type             X           Y           Z
 ---------------------------------------------------------------------
      1          6           0        0.002374   -0.782940    1.340693
      2          6           0        0.048041    0.015518    0.003343
      3          9           0       -0.619047   -0.484592   -0.998323
      4          9           0       -0.395081    1.263130    0.224521
      5         16           0        1.916702   -0.023304   -0.020208
      6          8           0        1.954552   -0.354103    1.451680
      7          8           0        2.742208   -0.473588   -1.087711
      8          8           0        2.236241    1.563640   -0.009719
      9          9           0        1.051028   -1.958126    0.030785
     10          9           0       -0.161605   -0.046668    2.402255
     11          9           0       -0.660481   -1.854797    1.518444
     12          1           0        1.992052    1.960200    0.835048
 ---------------------------------------------------------------------

 ******    1 imaginary frequencies (negative Signs) ******

                      1                      2                      3
                      A                      A                      A
 Frequencies --   -386.3852               111.1920               167.5707
 Red. masses --     16.5690                12.6402                 7.0993
 Frc consts  --      1.4574                 0.0921                 0.1175
 IR Inten    --     19.7188                31.8527                65.0120

                      4                      5                      6
                      A                      A                      A
 Frequencies --    192.8860               202.2594               245.9022
 Red. masses --     15.7484                13.7103                15.9511
 Frc consts  --      0.3452                 0.3305                 0.5683
 IR Inten    --      5.3255               126.0900                 0.3610

                      7                      8                      9
                      A                      A                      A
 Frequencies --    264.8073               291.5199               309.3632
 Red. masses --     10.7331                14.2192                 9.1222
 Frc consts  --      0.4434                 0.7120                 0.5144
 IR Inten    --      8.3562                 2.9320                34.5183

                     10                     11                     12
                      A                      A                      A
 Frequencies --    365.3292               382.9420               399.9886
 Red. masses --      1.6712                10.1219                16.9613
 Frc consts  --      0.1314                 0.8745                 1.5988
 IR Inten    --     52.2655                53.6823                62.0161

                     13                     14                     15
                      A                      A                      A
 Frequencies --    415.4278               486.4273               515.6426
 Red. masses --     17.1186                 4.8369                 8.6310
 Frc consts  --      1.7406                 0.6743                 1.3521
 IR Inten    --     20.1486                12.9959                33.7218

                     16                     17                     18
                      A                      A                      A
 Frequencies --    538.1578               570.9380               630.0594
 Red. masses --     15.8699                17.6250                16.9567
 Frc consts  --      2.7080                 3.3850                 3.9660
 IR Inten    --     29.0370               170.9913                 4.7536

                     19                     20                     21
                      A                      A                      A
 Frequencies --    673.5394               753.8555               786.7478
 Red. masses --     16.1791                15.5329                15.7145
 Frc consts  --      4.3244                 5.2009                 5.7309
 IR Inten    --     49.5155                28.4183               225.9914

                     22                     23                     24
                      A                      A                      A
 Frequencies --    953.5537              1034.7799              1102.6315
 Red. masses --     13.0247                13.8596                11.4752
 Frc consts  --      6.9776                 8.7437                 8.2200
 IR Inten    --     71.4352               161.5648               169.1919

                     25                     26                     27
                      A                      A                      A
 Frequencies --   1153.1025              1256.1597              1322.3130
 Red. masses --      1.2267                12.8347                13.0509
 Frc consts  --      0.9610                11.9323                13.4450
 IR Inten    --    137.4094               484.8040                77.6069

                     28                     29                     30
                      A                      A                      A
 Frequencies --   1372.4187              1439.5961              3850.0174
 Red. masses --     14.1811                13.0269                 1.0664
 Frc consts  --     15.7375                15.9064                 9.3131
 IR Inten    --    412.4574               207.0006               117.9735

 - Thermochemistry -
 -------------------
 Temperature   298.150 Kelvin.  Pressure   1.00000 Atm.
 Atom     1 has atomic number  6 and mass  12.00000

 Molecular mass:   199.95666 amu.
 Principal axes and moments of inertia in atomic units:
                           1         2         3
     Eigenvalues --  1260.735941899.784652005.93826
           X            0.79228  -0.28449   0.53978
           Y            0.35555   0.93419  -0.02952
           Z           -0.49586   0.21531   0.84129
 This molecule is an asymmetric top.
 Rotational symmetry number  1.
 Warning -- assumption of classical behavior for rotation
           may cause significant error
 Rotational temperatures (Kelvin)      0.06870     0.04559     0.04318
 Rotational constants (GHZ):           1.43150     0.94997     0.89970
    1 imaginary frequencies ignored.
 Zero-point vibrational energy     130327.9 (Joules/Mol)
                                   31.14912 (Kcal/Mol)
 Warning -- explicit consideration of  16 degrees of freedom as
           vibrations may cause significant error
 Vibrational temperatures:    159.98   241.10   277.52   291.01   353.80
          (Kelvin)            381.00   419.43   445.10   525.63   550.97
                              575.49   597.71   699.86   741.89   774.29
                              821.45   906.52   969.07  1084.63  1131.95
                             1371.95  1488.82  1586.44  1659.06  1807.33
                             1902.51  1974.60  2071.26  5539.32

 Zero-point correction=                           0.049639 (Hartree/Particle)
 Thermal correction to Energy=                    0.059424
 Thermal correction to Enthalpy=                  0.060368
 Thermal correction to Gibbs Free Energy=         0.014771
 Sum of electronic and zero-point Energies=          -1199.606562
 Sum of electronic and thermal Energies=             -1199.596777
 Sum of electronic and thermal Enthalpies=           -1199.595833
 Sum of electronic and thermal Free Energies=        -1199.641430

                     E (Thermal)             CV                S
                      KCal/Mol        Cal/Mol-Kelvin    Cal/Mol-Kelvin
 Total                   37.289             36.091             95.967
 Electronic               0.000              0.000              0.000
 Translational            0.889              2.981             41.783
 Rotational               0.889              2.981             29.953
 Vibrational             35.512             30.130             24.231
 Vibration     1          0.607              1.940              3.248
 Vibration     2          0.624              1.882              2.463
 Vibration     3          0.635              1.850              2.200
 Vibration     4          0.639              1.837              2.112
 Vibration     5          0.660              1.770              1.760
 Vibration     6          0.671              1.738              1.630
 Vibration     7          0.687              1.690              1.465
 Vibration     8          0.699              1.656              1.366
 Vibration     9          0.739              1.544              1.099
 Vibration    10          0.752              1.507              1.028
 Vibration    11          0.766              1.470              0.963
 Vibration    12          0.779              1.437              0.908
 Vibration    13          0.842              1.280              0.693
 Vibration    14          0.871              1.215              0.620
 Vibration    15          0.893              1.166              0.569
 Vibration    16          0.927              1.094              0.502

 Normal termination of Gaussian 16 at Fri May 23 04:51:59 2025.
