 Gaussian 16, Revision C.01,
 Gaussian 16:  ES64L-G16RevC.01  3-Jul-2019

 ----------------------------------------------------------------------
 #P wb97xd/6-311++G(d,p) Symm(None) scf(xqc) pop(None) opt(NoFreeze,TS,
 CalcAll,NoEigentest,MaxCycle=999)
 ----------------------------------------------------------------------

 ------------------------------
 Gaussian input prepared by ASE
 ------------------------------
 Symbolic Z-matrix:
 Charge =  0 Multiplicity = 1

 SCF Done:  E(RwB97XD) =  -1199.65024412     A.U. after   17 cycles
 SCF Done:  E(RwB97XD) =  -1199.66476932     A.U. after   17 cycles
 SCF Done:  E(RwB97XD) =  -1199.66898743     A.U. after   16 cycles
 SCF Done:  E(RwB97XD) =  -1199.67135013     A.U. after   14 cycles
 SCF Done:  E(RwB97XD) =  -1199.67308590     A.U. after   17 cycles
 SCF Done:  E(RwB97XD) =  -1199.67379289     A.U. after   15 cycles
 SCF Done:  E(RwB97XD) =  -1199.67417041     A.U. after   17 cycles
 SCF Done:  E(RwB97XD) =  -1199.67451577     A.U. after   14 cycles
 SCF Done:  E(RwB97XD) =  -1199.67453313     A.U. after   13 cycles
 SCF Done:  E(RwB97XD) =  -1199.67453357     A.U. after   11 cycles

 Isotropic polarizability for W=    0.000000       70.57 Bohr**3.
 End of Minotr F.D. properties file   721 does not exist.

 Optimization completed.
    -- Stationary point found.

                          Input orientation:
 ---------------------------------------------------------------------
 Center     Atomic      Atomic             Coordinates (Angstroms)
 Number     Number       Type             X           Y           Z
 ---------------------------------------------------------------------
      1          6           0       -0.125677    1.372053   -0.282763
      2          6           0        0.010249    0.014474    0.094677
      3          9           0       -0.381909   -0.263779    1.327066
      4          9           0       -0.413026   -0.882773   -0.784910
      5         16           0        2.303620   -0.172522    0.040070
      6          8           0        2.174576   -1.023980    1.192583
      7          8           0        2.278278   -0.570058   -1.343146
      8          8           0        3.748037    0.474922    0.324424
      9          9           0        1.802293    1.739315   -0.051992
     10          9           0       -0.191281    1.705601   -1.512985
     11          9           0       -0.461500    2.286252    0.545364
     12          1           0        3.876940    1.235679   -0.256981
 ---------------------------------------------------------------------

 ******    1 imaginary frequencies (negative Signs) ******

                      1                      2                      3
                      A                      A                      A
 Frequencies --   -643.5915                35.3041                77.2287
 Red. masses --     14.0812                14.3093                 8.5035
 Frc consts  --      3.4365                 0.0105                 0.0299
 IR Inten    --    191.0688                 0.9184                 8.4540

                      4                      5                      6
                      A                      A                      A
 Frequencies --    169.0624               191.3945               198.0868
 Red. masses --     12.8929                13.4185                12.4646
 Frc consts  --      0.2171                 0.2896                 0.2882
 IR Inten    --     19.2095                 4.4760                 3.2841

                      7                      8                      9
                      A                      A                      A
 Frequencies --    214.7285               241.3489               277.7854
 Red. masses --     18.1183                 3.9816                 7.3345
 Frc consts  --      0.4922                 0.1366                 0.3335
 IR Inten    --      4.7591                15.3201                 6.3487

                     10                     11                     12
                      A                      A                      A
 Frequencies --    303.8110               329.3623               370.0834
 Red. masses --     13.3145                13.7285                10.9296
 Frc consts  --      0.7241                 0.8774                 0.8820
 IR Inten    --     12.3399                14.4939                65.5847

                     13                     14                     15
                      A                      A                      A
 Frequencies --    423.9310               438.0921               489.0344
 Red. masses --      3.9478                 3.7444                 6.9436
 Frc consts  --      0.4180                 0.4234                 0.9784
 IR Inten    --    166.0041                67.4506                35.7107

                     16                     17                     18
                      A                      A                      A
 Frequencies --    521.3809               545.9982               556.0608
 Red. masses --     10.1700                14.7881                15.0164
 Frc consts  --      1.6288                 2.5974                 2.7357
 IR Inten    --    115.9220               155.5459               105.1564

                     19                     20                     21
                      A                      A                      A
 Frequencies --    600.8775               680.3368               781.9657
 Red. masses --     16.9972                12.2304                15.9255
 Frc consts  --      3.6158                 3.3353                 5.7375
 IR Inten    --      9.0111                14.6292               223.1531

                     22                     23                     24
                      A                      A                      A
 Frequencies --    821.6178              1135.7591              1199.1760
 Red. masses --     17.0455                 9.9615                 2.9969
 Frc consts  --      6.7795                 7.5709                 2.5392
 IR Inten    --    196.6695                71.8287               269.5955

                     25                     26                     27
                      A                      A                      A
 Frequencies --   1206.2614              1293.4956              1402.5459
 Red. masses --      1.8718                13.1162                13.3189
 Frc consts  --      1.6047                12.9297                15.4366
 IR Inten    --    172.1488               123.4165               192.1431

                     28                     29                     30
                      A                      A                      A
 Frequencies --   1457.9935              1558.6188              3831.6007
 Red. masses --     13.2565                12.5232                 1.0659
 Frc consts  --     16.6031                17.9245                 9.2197
 IR Inten    --    347.8292               701.9162               134.4038

 - Thermochemistry -
 -------------------
 Temperature   298.150 Kelvin.  Pressure   1.00000 Atm.
 Atom     1 has atomic number  6 and mass  12.00000

 Molecular mass:   199.95666 amu.
 Principal axes and moments of inertia in atomic units:
                           1         2         3
     Eigenvalues --  1275.767302105.848382372.92553
           X            0.91737   0.39759   0.01875
           Y           -0.38766   0.88182   0.26855
           Z            0.09024  -0.25363   0.96308
 This molecule is an asymmetric top.
 Rotational symmetry number  1.
 Warning -- assumption of classical behavior for rotation
           may cause significant error
 Rotational temperatures (Kelvin)      0.06789     0.04113     0.03650
 Rotational constants (GHZ):           1.41463     0.85701     0.76056
    1 imaginary frequencies ignored.
 Zero-point vibrational energy     127719.0 (Joules/Mol)
                                   30.52556 (Kcal/Mol)
 Warning -- explicit consideration of  18 degrees of freedom as
           vibrations may cause significant error
 Vibrational temperatures:     50.79   111.11   243.24   275.37   285.00
          (Kelvin)            308.95   347.25   399.67   437.12   473.88
                              532.47   609.94   630.32   703.61   750.15
                              785.57   800.05   864.53   978.85  1125.07
                             1182.12  1634.10  1725.35  1735.54  1861.05
                             2017.95  2097.73  2242.50  5512.82

 Zero-point correction=                           0.048646 (Hartree/Particle)
 Thermal correction to Energy=                    0.059397
 Thermal correction to Enthalpy=                  0.060341
 Thermal correction to Gibbs Free Energy=         0.011469
 Sum of electronic and zero-point Energies=          -1199.625888
 Sum of electronic and thermal Energies=             -1199.615136
 Sum of electronic and thermal Enthalpies=           -1199.614192
 Sum of electronic and thermal Free Energies=        -1199.663065

                     E (Thermal)             CV                S
                      KCal/Mol        Cal/Mol-Kelvin    Cal/Mol-Kelvin
 Total                   37.272             37.422            102.861
 Electronic               0.000              0.000              0.000
 Translational            0.889              2.981             41.783
 Rotational               0.889              2.981             30.234
 Vibrational             35.495             31.461             30.844
 Vibration     1          0.594              1.982              5.507
 Vibration     2          0.599              1.964              3.960
 Vibration     3          0.625              1.881              2.446
 Vibration     4          0.634              1.852              2.214
 Vibration     5          0.637              1.843              2.151
 Vibration     6          0.645              1.819              2.003
 Vibration     7          0.658              1.777              1.793
 Vibration     8          0.679              1.715              1.547
 Vibration     9          0.695              1.666              1.396
 Vibration    10          0.712              1.617              1.263
 Vibration    11          0.742              1.534              1.079
 Vibration    12          0.786              1.418              0.879
 Vibration    13          0.798              1.387              0.833
 Vibration    14          0.845              1.274              0.686
 Vibration    15          0.876              1.203              0.607
 Vibration    16          0.901              1.148              0.553
 Vibration    17          0.912              1.126              0.532
 Vibration    18          0.959              1.030              0.448

 Normal termination of Gaussian 16 at Fri May 23 05:18:30 2025.
