 Gaussian 16, Revision C.01,
 Gaussian 16:  ES64L-G16RevC.01  3-Jul-2019

 ----------------------------------------------------------------------
 #P wb97xd/6-311++G(d,p) Symm(None) scf(xqc) pop(None) freq opt(CalcFC,
  Tight)
 ----------------------------------------------------------------------

 ------------------------------
 Gaussian input prepared by ASE
 ------------------------------
 Symbolic Z-matrix:
 Charge =  0 Multiplicity = 1

 SCF Done:  E(RwB97XD) =  -1199.82441166     A.U. after   14 cycles
 SCF Done:  E(RwB97XD) =  -1199.82586743     A.U. after   12 cycles
 SCF Done:  E(RwB97XD) =  -1199.82601586     A.U. after   12 cycles
 SCF Done:  E(RwB97XD) =  -1199.82604167     A.U. after   11 cycles
 SCF Done:  E(RwB97XD) =  -1199.82604634     A.U. after   11 cycles
 SCF Done:  E(RwB97XD) =  -1199.82604689     A.U. after    9 cycles
 SCF Done:  E(RwB97XD) =  -1199.82604692     A.U. after    9 cycles
 SCF Done:  E(RwB97XD) =  -1199.82604692     A.U. after    7 cycles
 Optimization completed.
    -- Stationary point found.
 Normal termination of Gaussian 16 at Fri May 23 01:55:52 2025.

 ----------------------------------------------------------------------
 #P Geom=AllCheck Guess=TCheck SCRF=Check GenChk RwB97XD/6-311++G(d,p)
 Freq
 ----------------------------------------------------------------------

 Structure from the checkpoint file:  "/tmp/Gau-26130.chk"
 ------------------------------
 Gaussian input prepared by ASE
 ------------------------------
 Charge =  0 Multiplicity = 1

                          Input orientation:
 ---------------------------------------------------------------------
 Center     Atomic      Atomic             Coordinates (Angstroms)
 Number     Number       Type             X           Y           Z
 ---------------------------------------------------------------------
      1          6           0       -0.648867   -1.334569   -0.427544
      2          6           0        0.028557    0.007938   -0.030217
      3          9           0       -0.365647    0.961337   -0.886241
      4          9           0       -0.345634    0.341013    1.201924
      5         16           0        1.903244   -0.043944   -0.076855
      6          8           0        2.359940   -0.707947    1.100311
      7          8           0        2.284386   -0.419230   -1.409771
      8          8           0        2.181720    1.520448    0.134330
      9          9           0       -0.449782   -1.595898   -1.710365
     10          9           0       -0.159892   -2.327476    0.304667
     11          9           0       -1.955923   -1.236424   -0.206195
     12          1           0        2.180599    1.980691   -0.715314
 ---------------------------------------------------------------------

 SCF Done:  E(RwB97XD) =  -1199.82604692     A.U. after    1 cycles

 Isotropic polarizability for W=    0.000000       55.70 Bohr**3.
 End of Minotr F.D. properties file   721 does not exist.

                      1                      2                      3
                      A                      A                      A
 Frequencies --     27.5557                67.2081               131.2990
 Red. masses --     14.3005                14.3159                14.5057
 Frc consts  --      0.0064                 0.0381                 0.1473
 IR Inten    --      1.2309                 0.7710                 1.3376

                      4                      5                      6
                      A                      A                      A
 Frequencies --    192.9850               222.4690               233.8211
 Red. masses --      8.6581                17.7978                 7.7754
 Frc consts  --      0.1900                 0.5190                 0.2505
 IR Inten    --      9.0615                 1.3015                10.1782

                      7                      8                      9
                      A                      A                      A
 Frequencies --    275.0552               310.4606               318.0060
 Red. masses --     15.0841                 4.7814                18.2213
 Frc consts  --      0.6724                 0.2715                 1.0857
 IR Inten    --      1.3315                18.1848                 0.2799

                     10                     11                     12
                      A                      A                      A
 Frequencies --    355.9647               371.4763               435.4506
 Red. masses --      1.8996                17.7506                 4.3401
 Frc consts  --      0.1418                 1.4432                 0.4849
 IR Inten    --     56.1637                 0.1424                29.7958

                     13                     14                     15
                      A                      A                      A
 Frequencies --    484.6025               489.3322               539.4373
 Red. masses --     13.1865                 8.7018                17.8606
 Frc consts  --      1.8245                 1.2276                 3.0622
 IR Inten    --     13.8270                21.0248                28.4282

                     16                     17                     18
                      A                      A                      A
 Frequencies --    600.4077               609.3795               653.7438
 Red. masses --     17.3800                20.1484                17.3536
 Frc consts  --      3.6914                 4.4082                 4.3697
 IR Inten    --      3.5487               118.6536                30.2868

                     19                     20                     21
                      A                      A                      A
 Frequencies --    764.8093               825.6223              1005.7653
 Red. masses --     17.1252                17.1277                13.8155
 Frc consts  --      5.9019                 6.8788                 8.2340
 IR Inten    --     40.7952               218.0824                52.8634

                     22                     23                     24
                      A                      A                      A
 Frequencies --   1130.7084              1157.6686              1202.1317
 Red. masses --      1.1945                12.2658                15.9629
 Frc consts  --      0.8998                 9.6854                13.5915
 IR Inten    --    106.8775               241.9894                 6.5674

                     25                     26                     27
                      A                      A                      A
 Frequencies --   1219.2294              1249.0676              1254.0886
 Red. masses --     13.1233                13.7173                13.1775
 Frc consts  --     11.4938                12.6093                12.2106
 IR Inten    --    110.3227               333.5495               260.9702

                     28                     29                     30
                      A                      A                      A
 Frequencies --   1344.7852              1445.5820              3832.5454
 Red. masses --     12.6427                14.3141                 1.0663
 Frc consts  --     13.4708                17.6238                 9.2275
 IR Inten    --    106.9156               312.2347               161.3531

 - Thermochemistry -
 -------------------
 Temperature   298.150 Kelvin.  Pressure   1.00000 Atm.
 Atom     1 has atomic number  6 and mass  12.00000

 Molecular mass:   199.95666 amu.
 Principal axes and moments of inertia in atomic units:
                           1         2         3
     Eigenvalues --  1133.409262197.968382320.62933
           X            0.87405  -0.48533   0.02198
           Y            0.47139   0.83626  -0.28009
           Z            0.11756   0.25518   0.95972
 This molecule is an asymmetric top.
 Rotational symmetry number  1.
 Warning -- assumption of classical behavior for rotation
           may cause significant error
 Rotational temperatures (Kelvin)      0.07642     0.03941     0.03732
 Rotational constants (GHZ):           1.59231     0.82110     0.77769
 Zero-point vibrational energy     136079.2 (Joules/Mol)
                                   32.52370 (Kcal/Mol)
 Warning -- explicit consideration of  17 degrees of freedom as
           vibrations may cause significant error
 Vibrational temperatures:     39.65    96.70   188.91   277.66   320.08
          (Kelvin)            336.42   395.74   446.68   457.54   512.15
                              534.47   626.52   697.23   704.04   776.13
                              863.85   876.76   940.59  1100.39  1187.89
                             1447.07  1626.84  1665.63  1729.60  1754.20
                             1797.13  1804.35  1934.85  2079.87  5514.18

 Zero-point correction=                           0.051830 (Hartree/Particle)
 Thermal correction to Energy=                    0.062281
 Thermal correction to Enthalpy=                  0.063225
 Thermal correction to Gibbs Free Energy=         0.014587
 Sum of electronic and zero-point Energies=          -1199.774217
 Sum of electronic and thermal Energies=             -1199.763766
 Sum of electronic and thermal Enthalpies=           -1199.762822
 Sum of electronic and thermal Free Energies=        -1199.811460

                     E (Thermal)             CV                S
                      KCal/Mol        Cal/Mol-Kelvin    Cal/Mol-Kelvin
 Total                   39.082             36.607            102.368
 Electronic               0.000              0.000              0.000
 Translational            0.889              2.981             41.783
 Rotational               0.889              2.981             30.137
 Vibrational             37.304             30.646             30.447
 Vibration     1          0.593              1.984              5.998
 Vibration     2          0.598              1.970              4.234
 Vibration     3          0.612              1.922              2.927
 Vibration     4          0.635              1.850              2.199
 Vibration     5          0.648              1.807              1.939
 Vibration     6          0.654              1.789              1.849
 Vibration     7          0.677              1.719              1.564
 Vibration     8          0.699              1.654              1.360
 Vibration     9          0.704              1.639              1.320
 Vibration    10          0.731              1.563              1.140
 Vibration    11          0.743              1.531              1.074
 Vibration    12          0.796              1.393              0.841
 Vibration    13          0.841              1.284              0.698
 Vibration    14          0.845              1.274              0.685
 Vibration    15          0.894              1.163              0.566
 Vibration    16          0.959              1.031              0.449
 Vibration    17          0.968              1.012              0.434

 Optimization completed.
    -- Stationary point found.
 Normal termination of Gaussian 16 at Fri May 23 01:57:12 2025.
