 Gaussian 16, Revision C.01,
 Gaussian 16:  ES64L-G16RevC.01  3-Jul-2019

 ----------------------------------------------------------------------
 #P wb97xd/6-311++G(d,p) Symm(None) scf(xqc) pop(None) freq opt(CalcFC,
  Tight)
 ----------------------------------------------------------------------

 ------------------------------
 Gaussian input prepared by ASE
 ------------------------------
 Symbolic Z-matrix:
 Charge =  0 Multiplicity = 1

 SCF Done:  E(RwB97XD) =  -1199.82948131     A.U. after   14 cycles
 SCF Done:  E(RwB97XD) =  -1199.83303512     A.U. after   13 cycles
 SCF Done:  E(RwB97XD) =  -1199.83345483     A.U. after   14 cycles
 SCF Done:  E(RwB97XD) =  -1199.83359367     A.U. after   12 cycles
 SCF Done:  E(RwB97XD) =  -1199.83360958     A.U. after   11 cycles
 SCF Done:  E(RwB97XD) =  -1199.83361196     A.U. after   10 cycles
 SCF Done:  E(RwB97XD) =  -1199.83361202     A.U. after    9 cycles
 SCF Done:  E(RwB97XD) =  -1199.83361203     A.U. after    7 cycles
 SCF Done:  E(RwB97XD) =  -1199.83361204     A.U. after    6 cycles
 Optimization completed.
    -- Stationary point found.
 Normal termination of Gaussian 16 at Fri May 23 04:31:06 2025.

 ----------------------------------------------------------------------
 #P Geom=AllCheck Guess=TCheck SCRF=Check GenChk RwB97XD/6-311++G(d,p)
 Freq
 ----------------------------------------------------------------------

 Structure from the checkpoint file:  "/tmp/Gau-78138.chk"
 ------------------------------
 Gaussian input prepared by ASE
 ------------------------------
 Charge =  0 Multiplicity = 1

                          Input orientation:
 ---------------------------------------------------------------------
 Center     Atomic      Atomic             Coordinates (Angstroms)
 Number     Number       Type             X           Y           Z
 ---------------------------------------------------------------------
      1          6           0        0.003413    0.087036    0.009493
      2          6           0        1.550885   -0.017062   -0.039134
      3          9           0        2.151483   -2.384392    1.054786
      4          9           0        1.897412   -0.809258   -1.081812
      5         16           0        2.279605   -0.854819    1.494514
      6          8           0        1.468983   -0.679677    2.654622
      7          8           0        3.674616   -0.521664    1.449951
      8          8           0        2.076272    1.211523   -0.121189
      9          9           0       -0.523435   -1.114852    0.227308
     10          9           0       -0.383798    0.914657    0.966762
     11          9           0       -0.436353    0.539840   -1.159039
     12          1           0        3.041106    1.168609   -0.072619
 ---------------------------------------------------------------------

 SCF Done:  E(RwB97XD) =  -1199.83361204     A.U. after    1 cycles

 Isotropic polarizability for W=    0.000000       55.95 Bohr**3.
 End of Minotr F.D. properties file   721 does not exist.

                      1                      2                      3
                      A                      A                      A
 Frequencies --     49.5338                64.0464               128.2816
 Red. masses --     16.3841                17.9330                16.5379
 Frc consts  --      0.0237                 0.0433                 0.1603
 IR Inten    --      0.3953                 0.2079                 1.8140

                      4                      5                      6
                      A                      A                      A
 Frequencies --    197.4554               226.9944               233.7830
 Red. masses --     16.2200                14.6468                10.2120
 Frc consts  --      0.3726                 0.4447                 0.3288
 IR Inten    --      2.2513                 1.3718                 4.6443

                      7                      8                      9
                      A                      A                      A
 Frequencies --    270.9442               310.1793               318.0931
 Red. masses --      8.0321                13.3124                 8.1241
 Frc consts  --      0.3474                 0.7546                 0.4843
 IR Inten    --     27.1736                 3.2083                 7.4346

                     10                     11                     12
                      A                      A                      A
 Frequencies --    372.5797               428.2100               440.0847
 Red. masses --      9.2135                 2.8842                 3.9330
 Frc consts  --      0.7536                 0.3116                 0.4488
 IR Inten    --      4.3644                29.8206                42.5399

                     13                     14                     15
                      A                      A                      A
 Frequencies --    443.9554               496.0074               543.8940
 Red. masses --      3.7116                16.4278                13.3599
 Frc consts  --      0.4310                 2.3813                 2.3285
 IR Inten    --     54.7085                 5.5092                55.5680

                     16                     17                     18
                      A                      A                      A
 Frequencies --    598.2197               607.9950               665.3609
 Red. masses --     17.3653                18.5718                 8.9798
 Frc consts  --      3.6615                 4.0449                 2.3422
 IR Inten    --      7.1216               115.2681                28.3282

                     19                     20                     21
                      A                      A                      A
 Frequencies --    753.6057               792.1911               938.2300
 Red. masses --     16.1947                18.7590                 5.3769
 Frc consts  --      5.4189                 6.9362                 2.7887
 IR Inten    --     89.7973               103.7962                95.6000

                     22                     23                     24
                      A                      A                      A
 Frequencies --   1097.0207              1209.6618              1228.5513
 Red. masses --      8.9739                12.1609                 7.2506
 Frc consts  --      6.3630                10.4844                 6.4478
 IR Inten    --    186.1227                81.5935               332.9506

                     25                     26                     27
                      A                      A                      A
 Frequencies --   1243.5762              1256.0913              1283.7303
 Red. masses --      4.7764                13.0448                 4.2548
 Frc consts  --      4.3520                12.1264                 4.1312
 IR Inten    --     94.9836               356.7966               204.8263

                     28                     29                     30
                      A                      A                      A
 Frequencies --   1433.9812              1445.5466              3801.6276
 Red. masses --      8.8132                 3.5694                 1.0657
 Frc consts  --     10.6775                 4.3944                 9.0745
 IR Inten    --    250.8861                54.7517               121.6367

 - Thermochemistry -
 -------------------
 Temperature   298.150 Kelvin.  Pressure   1.00000 Atm.
 Atom     1 has atomic number  6 and mass  12.00000

 Molecular mass:   199.95666 amu.
 Principal axes and moments of inertia in atomic units:
                           1         2         3
     Eigenvalues --  1148.181682174.121912303.08079
           X            0.77239  -0.62628   0.10581
           Y           -0.38319  -0.32661   0.86400
           Z            0.50655   0.70788   0.49225
 This molecule is an asymmetric top.
 Rotational symmetry number  1.
 Warning -- assumption of classical behavior for rotation
           may cause significant error
 Rotational temperatures (Kelvin)      0.07544     0.03984     0.03761
 Rotational constants (GHZ):           1.57183     0.83010     0.78362
 Zero-point vibrational energy     136849.4 (Joules/Mol)
                                   32.70779 (Kcal/Mol)
 Warning -- explicit consideration of  17 degrees of freedom as
           vibrations may cause significant error
 Vibrational temperatures:     71.27    92.15   184.57   284.09   326.59
          (Kelvin)            336.36   389.83   446.28   457.66   536.06
                              616.10   633.18   638.75   713.64   782.54
                              860.70   874.77   957.31  1084.27  1139.79
                             1349.90  1578.37  1740.43  1767.61  1789.23
                             1807.24  1847.00  2063.18  2079.82  5469.69

 Zero-point correction=                           0.052123 (Hartree/Particle)
 Thermal correction to Energy=                    0.062491
 Thermal correction to Enthalpy=                  0.063435
 Thermal correction to Gibbs Free Energy=         0.015391
 Sum of electronic and zero-point Energies=          -1199.781489
 Sum of electronic and thermal Energies=             -1199.771121
 Sum of electronic and thermal Enthalpies=           -1199.770177
 Sum of electronic and thermal Free Energies=        -1199.818221

                     E (Thermal)             CV                S
                      KCal/Mol        Cal/Mol-Kelvin    Cal/Mol-Kelvin
 Total                   39.214             36.544            101.118
 Electronic               0.000              0.000              0.000
 Translational            0.889              2.981             41.783
 Rotational               0.889              2.981             30.131
 Vibrational             37.436             30.582             29.203
 Vibration     1          0.595              1.978              4.836
 Vibration     2          0.597              1.971              4.328
 Vibration     3          0.611              1.925              2.972
 Vibration     4          0.637              1.843              2.157
 Vibration     5          0.651              1.800              1.903
 Vibration     6          0.654              1.789              1.850
 Vibration     7          0.675              1.727              1.590
 Vibration     8          0.699              1.654              1.361
 Vibration     9          0.704              1.639              1.320
 Vibration    10          0.744              1.528              1.069
 Vibration    11          0.790              1.409              0.865
 Vibration    12          0.800              1.383              0.826
 Vibration    13          0.803              1.374              0.814
 Vibration    14          0.852              1.259              0.668
 Vibration    15          0.899              1.153              0.557
 Vibration    16          0.956              1.036              0.453
 Vibration    17          0.967              1.015              0.436

 Optimization completed.
    -- Stationary point found.
 Normal termination of Gaussian 16 at Fri May 23 04:32:29 2025.
