 Gaussian 16, Revision C.01,
 Gaussian 16:  ES64L-G16RevC.01  3-Jul-2019

 ------------------------------------------
 #P am1 Symm(None) scf(xqc) pop(None) force
 ------------------------------------------

 ------------------------------
 Gaussian input prepared by ASE
 ------------------------------
 Symbolic Z-matrix:
 Charge =  0 Multiplicity = 1

                          Input orientation:
 ---------------------------------------------------------------------
 Center     Atomic      Atomic             Coordinates (Angstroms)
 Number     Number       Type             X           Y           Z
 ---------------------------------------------------------------------
      1          6           0        1.850558   -0.066829   -0.100178
      2          6           0        2.369946    1.233256    0.108827
      3          9           0        3.081219    1.451702    1.206228
      4          9           0        3.051181    1.785210   -0.881778
      5         16           0        0.470555    2.492664    0.433083
      6          8           0        0.630460    2.294369    1.849783
      7          8           0        0.997697    3.421698   -0.530756
      8          8           0       -1.116310    2.703132    0.278517
      9          9           0        0.026951    0.682705   -0.231642
     10          9           0        1.696425   -0.622819   -1.241027
     11          9           0        1.506197   -0.873061    0.827437
     12          1           0       -1.741960    2.157539    0.772788
 ---------------------------------------------------------------------

 SCF Done:  E(RAM1) =  0.413089653460     A.U. after   17 cycles
 Normal termination of Gaussian 16 at Fri May 23 04:57:54 2025.
