 Gaussian 16, Revision C.01,
 Gaussian 16:  ES64L-G16RevC.01  3-Jul-2019

 ----------------------------------------------------------------------
 #P wb97xd/6-311++G(d,p) Symm(None) scf(xqc) pop(None) opt(NoFreeze,TS,
 CalcAll,NoEigentest,MaxCycle=999)
 ----------------------------------------------------------------------

 ------------------------------
 Gaussian input prepared by ASE
 ------------------------------
 Symbolic Z-matrix:
 Charge =  0 Multiplicity = 1

 SCF Done:  E(RwB97XD) =  -1199.65041525     A.U. after   17 cycles
 SCF Done:  E(RwB97XD) =  -1199.66578916     A.U. after   16 cycles
 SCF Done:  E(RwB97XD) =  -1199.66991924     A.U. after   16 cycles
 SCF Done:  E(RwB97XD) =  -1199.67213403     A.U. after   16 cycles
 SCF Done:  E(RwB97XD) =  -1199.67333413     A.U. after   14 cycles
 SCF Done:  E(RwB97XD) =  -1199.67389761     A.U. after   16 cycles
 SCF Done:  E(RwB97XD) =  -1199.67435686     A.U. after   17 cycles
 SCF Done:  E(RwB97XD) =  -1199.67452624     A.U. after   14 cycles
 SCF Done:  E(RwB97XD) =  -1199.67453687     A.U. after   12 cycles
 SCF Done:  E(RwB97XD) =  -1199.67453699     A.U. after   11 cycles

 Isotropic polarizability for W=    0.000000       70.57 Bohr**3.
 End of Minotr F.D. properties file   721 does not exist.

 Optimization completed.
    -- Stationary point found.

                          Input orientation:
 ---------------------------------------------------------------------
 Center     Atomic      Atomic             Coordinates (Angstroms)
 Number     Number       Type             X           Y           Z
 ---------------------------------------------------------------------
      1          6           0       -0.133380    1.359885    0.272888
      2          6           0        0.020559   -0.045813    0.208048
      3          9           0       -0.292155   -0.692941    1.318625
      4          9           0       -0.462811   -0.638339   -0.875083
      5         16           0        2.304140   -0.171977   -0.046591
      6          8           0        2.245062   -1.339932    0.791620
      7          8           0        2.187812   -0.123389   -1.480474
      8          8           0        3.766853    0.377891    0.333441
      9          9           0        1.807674    1.667914    0.485861
     10          9           0       -0.275280    2.052069   -0.789942
     11          9           0       -0.411558    1.972471    1.359901
     12          1           0        3.861037    1.283518    0.010346
 ---------------------------------------------------------------------

 ******    1 imaginary frequencies (negative Signs) ******

                      1                      2                      3
                      A                      A                      A
 Frequencies --   -642.4774                36.7215                78.0204
 Red. masses --     14.0699                14.2008                 8.4414
 Frc consts  --      3.4218                 0.0113                 0.0303
 IR Inten    --    192.4828                 0.9409                 8.5444

                      4                      5                      6
                      A                      A                      A
 Frequencies --    169.7145               191.2893               198.0280
 Red. masses --     12.6336                12.9684                12.4979
 Frc consts  --      0.2144                 0.2796                 0.2888
 IR Inten    --     18.6808                 4.6508                 3.3159

                      7                      8                      9
                      A                      A                      A
 Frequencies --    214.6804               240.7168               277.4893
 Red. masses --     18.1122                 3.9201                 7.3514
 Frc consts  --      0.4918                 0.1338                 0.3335
 IR Inten    --      4.7901                15.5497                 6.3631

                     10                     11                     12
                      A                      A                      A
 Frequencies --    303.7656               329.2059               370.3986
 Red. masses --     13.3965                13.9493                10.9509
 Frc consts  --      0.7283                 0.8907                 0.8852
 IR Inten    --     11.9243                15.0202                63.8089

                     13                     14                     15
                      A                      A                      A
 Frequencies --    424.1849               438.1796               489.0893
 Red. masses --      3.5104                 4.3541                 6.9300
 Frc consts  --      0.3722                 0.4925                 0.9767
 IR Inten    --    154.8117                79.5536                36.3577

                     16                     17                     18
                      A                      A                      A
 Frequencies --    521.3625               545.8562               556.1494
 Red. masses --     10.2497                14.8690                15.0988
 Frc consts  --      1.6415                 2.6103                 2.7515
 IR Inten    --    116.5563               156.0732               102.5265

                     19                     20                     21
                      A                      A                      A
 Frequencies --    601.0210               680.3248               783.0240
 Red. masses --     16.9981                12.2468                15.9342
 Frc consts  --      3.6177                 3.3397                 5.7561
 IR Inten    --      8.8722                14.5751               218.7852

                     22                     23                     24
                      A                      A                      A
 Frequencies --    822.2184              1133.8219              1199.4161
 Red. masses --     17.0351                10.2415                 3.1463
 Frc consts  --      6.7853                 7.7572                 2.6668
 IR Inten    --    200.9771                73.2243               275.2684

                     25                     26                     27
                      A                      A                      A
 Frequencies --   1206.3675              1293.7269              1401.0025
 Red. masses --      1.8116                13.1073                13.2009
 Frc consts  --      1.5534                12.9255                15.2662
 IR Inten    --    164.8358               122.7969               194.6669

                     28                     29                     30
                      A                      A                      A
 Frequencies --   1458.2911              1559.2733              3830.9085
 Red. masses --     13.2551                12.5216                 1.0659
 Frc consts  --     16.6081                17.9371                 9.2163
 IR Inten    --    345.6477               702.0224               134.2312

 - Thermochemistry -
 -------------------
 Temperature   298.150 Kelvin.  Pressure   1.00000 Atm.
 Atom     1 has atomic number  6 and mass  12.00000

 Molecular mass:   199.95666 amu.
 Principal axes and moments of inertia in atomic units:
                           1         2         3
     Eigenvalues --  1275.749452105.254382372.60172
           X            0.91930   0.38484   0.08240
           Y           -0.38293   0.92298  -0.03849
           Z           -0.09086   0.00383   0.99586
 This molecule is an asymmetric top.
 Rotational symmetry number  1.
 Warning -- assumption of classical behavior for rotation
           may cause significant error
 Rotational temperatures (Kelvin)      0.06789     0.04114     0.03651
 Rotational constants (GHZ):           1.41465     0.85726     0.76066
    1 imaginary frequencies ignored.
 Zero-point vibrational energy     127726.8 (Joules/Mol)
                                   30.52743 (Kcal/Mol)
 Warning -- explicit consideration of  18 degrees of freedom as
           vibrations may cause significant error
 Vibrational temperatures:     52.83   112.25   244.18   275.22   284.92
          (Kelvin)            308.88   346.34   399.25   437.05   473.65
                              532.92   610.31   630.44   703.69   750.12
                              785.37   800.17   864.74   978.84  1126.60
                             1182.99  1631.32  1725.69  1735.69  1861.38
                             2015.73  2098.16  2243.45  5511.82

 Zero-point correction=                           0.048649 (Hartree/Particle)
 Thermal correction to Energy=                    0.059395
 Thermal correction to Enthalpy=                  0.060340
 Thermal correction to Gibbs Free Energy=         0.011514
 Sum of electronic and zero-point Energies=          -1199.625888
 Sum of electronic and thermal Energies=             -1199.615142
 Sum of electronic and thermal Enthalpies=           -1199.614197
 Sum of electronic and thermal Free Energies=        -1199.663023

                     E (Thermal)             CV                S
                      KCal/Mol        Cal/Mol-Kelvin    Cal/Mol-Kelvin
 Total                   37.271             37.420            102.762
 Electronic               0.000              0.000              0.000
 Translational            0.889              2.981             41.783
 Rotational               0.889              2.981             30.234
 Vibrational             35.494             31.458             30.744
 Vibration     1          0.594              1.982              5.429
 Vibration     2          0.599              1.964              3.940
 Vibration     3          0.625              1.880              2.439
 Vibration     4          0.634              1.852              2.215
 Vibration     5          0.637              1.843              2.151
 Vibration     6          0.645              1.819              2.004
 Vibration     7          0.658              1.778              1.798
 Vibration     8          0.678              1.715              1.549
 Vibration     9          0.695              1.667              1.396
 Vibration    10          0.712              1.617              1.264
 Vibration    11          0.742              1.533              1.078
 Vibration    12          0.786              1.418              0.878
 Vibration    13          0.798              1.387              0.832
 Vibration    14          0.845              1.274              0.686
 Vibration    15          0.876              1.203              0.607
 Vibration    16          0.901              1.149              0.553
 Vibration    17          0.912              1.126              0.532
 Vibration    18          0.959              1.030              0.448

 Normal termination of Gaussian 16 at Fri May 23 05:14:21 2025.
