 Gaussian 16, Revision C.01,
 Gaussian 16:  ES64L-G16RevC.01  3-Jul-2019

 ------------------------------------------
 #P am1 Symm(None) scf(xqc) pop(None) force
 ------------------------------------------

 ------------------------------
 Gaussian input prepared by ASE
 ------------------------------
 Symbolic Z-matrix:
 Charge =  0 Multiplicity = 1

                          Input orientation:
 ---------------------------------------------------------------------
 Center     Atomic      Atomic             Coordinates (Angstroms)
 Number     Number       Type             X           Y           Z
 ---------------------------------------------------------------------
      1          6           0       -1.116543   -0.049956    1.054502
      2          6           0       -0.357363    0.612145    0.085888
      3          9           0       -0.493522    0.286060   -1.183026
      4          9           0       -0.264518    1.933699    0.138014
      5         16           0        1.910162   -0.036618    0.543690
      6          8           0        2.391653    0.749766    1.650679
      7          8           0        2.407055   -1.185064   -0.150487
      8          8           0        1.943985    1.106435   -0.656740
      9          9           0       -1.282750    0.363778    2.248833
     10          9           0        0.676462   -1.013842    1.579359
     11          9           0       -1.633727   -1.205247    0.916371
     12          1           0        1.869530    2.036876   -0.408786
 ---------------------------------------------------------------------

 SCF Done:  E(RAM1) =  0.317975627984     A.U. after   16 cycles
 Normal termination of Gaussian 16 at Fri May 23 04:50:47 2025.
