 Gaussian 16, Revision C.01,
 Gaussian 16:  ES64L-G16RevC.01  3-Jul-2019

 ----------------------------------------------------------------------
 #P wb97xd/6-311++G(d,p) Symm(None) scf(xqc) pop(None) opt(NoFreeze,TS,
 CalcAll,NoEigentest,MaxCycle=999)
 ----------------------------------------------------------------------

 ------------------------------
 Gaussian input prepared by ASE
 ------------------------------
 Symbolic Z-matrix:
 Charge =  0 Multiplicity = 1

 SCF Done:  E(RwB97XD) =  -1199.63079473     A.U. after   21 cycles
 SCF Done:  E(RwB97XD) =  -1199.63939263     A.U. after   18 cycles
 SCF Done:  E(RwB97XD) =  -1199.64141531     A.U. after   19 cycles
 SCF Done:  E(RwB97XD) =  -1199.64204166     A.U. after   18 cycles
 SCF Done:  E(RwB97XD) =  -1199.64212549     A.U. after   18 cycles
 SCF Done:  E(RwB97XD) =  -1199.64253500     A.U. after   18 cycles
 SCF Done:  E(RwB97XD) =  -1199.64317277     A.U. after   18 cycles
 SCF Done:  E(RwB97XD) =  -1199.64337254     A.U. after   17 cycles
 SCF Done:  E(RwB97XD) =  -1199.64337682     A.U. after   14 cycles
 SCF Done:  E(RwB97XD) =  -1199.64337692     A.U. after   12 cycles

 Isotropic polarizability for W=    0.000000       67.96 Bohr**3.
 End of Minotr F.D. properties file   721 does not exist.

 Optimization completed.
    -- Stationary point found.

                          Input orientation:
 ---------------------------------------------------------------------
 Center     Atomic      Atomic             Coordinates (Angstroms)
 Number     Number       Type             X           Y           Z
 ---------------------------------------------------------------------
      1          6           0       -0.742584   -1.232934    0.010984
      2          6           0        0.005983    0.094499   -0.212768
      3          9           0       -0.320918    0.577377   -1.420678
      4          9           0       -0.386581    1.001560    0.713058
      5         16           0        2.083288    0.010685   -0.313141
      6          8           0        1.977951   -0.798561    1.001357
      7          8           0        3.547874   -0.438341    0.128754
      8          8           0        2.188755    1.586644    0.041988
      9          9           0       -0.213998   -2.168978   -0.780615
     10          9           0       -0.651632   -1.627336    1.272417
     11          9           0       -2.032615   -1.101231   -0.297783
     12          1           0        1.434643    1.906635    0.556050
 ---------------------------------------------------------------------

 ******    1 imaginary frequencies (negative Signs) ******

                      1                      2                      3
                      A                      A                      A
 Frequencies --   -808.0286                50.7292                59.7550
 Red. masses --     18.3256                14.2979                17.3391
 Frc consts  --      7.0496                 0.0217                 0.0365
 IR Inten    --    283.1128                 1.8657                 0.3498

                      4                      5                      6
                      A                      A                      A
 Frequencies --    113.7773               169.6815               191.7459
 Red. masses --     16.0325                17.7359                 1.5241
 Frc consts  --      0.1223                 0.3009                 0.0330
 IR Inten    --      1.1617                 3.2892                66.6257

                      7                      8                      9
                      A                      A                      A
 Frequencies --    209.3333               235.1446               251.1876
 Red. masses --      8.8827                15.5687                 6.2177
 Frc consts  --      0.2293                 0.5072                 0.2311
 IR Inten    --     19.4566                 4.8162                11.5831

                     10                     11                     12
                      A                      A                      A
 Frequencies --    282.6709               303.3527               368.6800
 Red. masses --     13.9763                16.1476                10.2820
 Frc consts  --      0.6580                 0.8755                 0.8234
 IR Inten    --      5.6576                 5.2866                 7.6949

                     13                     14                     15
                      A                      A                      A
 Frequencies --    380.1141               435.2454               457.3177
 Red. masses --      8.1108                 9.3395                 9.5914
 Frc consts  --      0.6905                 1.0424                 1.1819
 IR Inten    --     17.6427                 1.3526                 4.2773

                     16                     17                     18
                      A                      A                      A
 Frequencies --    538.0622               592.1171               628.3716
 Red. masses --     17.6298                17.8717                16.6575
 Frc consts  --      3.0072                 3.6917                 3.8752
 IR Inten    --      4.2787                 2.1848                 9.6910

                     19                     20                     21
                      A                      A                      A
 Frequencies --    731.2054               744.9957               804.5942
 Red. masses --     16.3543                16.4823                17.2912
 Frc consts  --      5.1518                 5.3898                 6.5952
 IR Inten    --     75.2233                37.4328               147.0274

                     22                     23                     24
                      A                      A                      A
 Frequencies --    913.4162              1019.9350              1103.8474
 Red. masses --     13.7291                16.4276                 3.7826
 Frc consts  --      6.7488                10.0686                 2.7156
 IR Inten    --    123.9969                64.4249               278.5092

                     25                     26                     27
                      A                      A                      A
 Frequencies --   1143.3312              1177.9161              1210.9582
 Red. masses --      2.6349                 2.5860                11.9558
 Frc consts  --      2.0294                 2.1140                10.3297
 IR Inten    --     72.4003                96.3145               225.6041

                     28                     29                     30
                      A                      A                      A
 Frequencies --   1243.9748              1336.0202              3793.0546
 Red. masses --     13.0761                12.4963                 1.0666
 Frc consts  --     11.9221                13.1419                 9.0416
 IR Inten    --    308.9782               252.9397               115.4410

 - Thermochemistry -
 -------------------
 Temperature   298.150 Kelvin.  Pressure   1.00000 Atm.
 Atom     1 has atomic number  6 and mass  12.00000

 Molecular mass:   199.95666 amu.
 Principal axes and moments of inertia in atomic units:
                           1         2         3
     Eigenvalues --  1095.543532378.640512720.73857
           X            0.93671  -0.32779  -0.12301
           Y            0.34801   0.91016   0.22472
           Z            0.03830  -0.25330   0.96663
 This molecule is an asymmetric top.
 Rotational symmetry number  1.
 Warning -- assumption of classical behavior for rotation
           may cause significant error
 Rotational temperatures (Kelvin)      0.07906     0.03641     0.03183
 Rotational constants (GHZ):           1.64735     0.75873     0.66333
    1 imaginary frequencies ignored.
 Zero-point vibrational energy     122560.6 (Joules/Mol)
                                   29.29269 (Kcal/Mol)
 Warning -- explicit consideration of  16 degrees of freedom as
           vibrations may cause significant error
 Vibrational temperatures:     72.99    85.97   163.70   244.13   275.88
          (Kelvin)            301.18   338.32   361.40   406.70   436.46
                              530.45   546.90   626.22   657.98   774.15
                              851.92   904.09  1052.04  1071.88  1157.63
                             1314.20  1467.46  1588.19  1645.00  1694.76
                             1742.30  1789.80  1922.24  5457.36

 Zero-point correction=                           0.046681 (Hartree/Particle)
 Thermal correction to Energy=                    0.057625
 Thermal correction to Enthalpy=                  0.058569
 Thermal correction to Gibbs Free Energy=         0.009088
 Sum of electronic and zero-point Energies=          -1199.596696
 Sum of electronic and thermal Energies=             -1199.585752
 Sum of electronic and thermal Enthalpies=           -1199.584808
 Sum of electronic and thermal Free Energies=        -1199.634288

                     E (Thermal)             CV                S
                      KCal/Mol        Cal/Mol-Kelvin    Cal/Mol-Kelvin
 Total                   36.160             37.549            104.140
 Electronic               0.000              0.000              0.000
 Translational            0.889              2.981             41.783
 Rotational               0.889              2.981             30.340
 Vibrational             34.383             31.587             32.017
 Vibration     1          0.595              1.977              4.789
 Vibration     2          0.597              1.973              4.465
 Vibration     3          0.607              1.938              3.203
 Vibration     4          0.625              1.880              2.439
 Vibration     5          0.634              1.851              2.211
 Vibration     6          0.642              1.827              2.049
 Vibration     7          0.655              1.787              1.839
 Vibration     8          0.663              1.761              1.722
 Vibration     9          0.682              1.706              1.517
 Vibration    10          0.695              1.667              1.398
 Vibration    11          0.741              1.537              1.085
 Vibration    12          0.750              1.513              1.039
 Vibration    13          0.796              1.393              0.842
 Vibration    14          0.815              1.345              0.774
 Vibration    15          0.893              1.166              0.569
 Vibration    16          0.950              1.049              0.463

 Normal termination of Gaussian 16 at Fri May 23 04:49:40 2025.
