 Gaussian 16, Revision C.01,
 Gaussian 16:  ES64L-G16RevC.01  3-Jul-2019

 ----------------------------------------------------------------------
 #P wb97xd/6-311++G(d,p) Symm(None) scf(xqc) pop(None) opt(NoFreeze,TS,
 CalcAll,NoEigentest,MaxCycle=999)
 ----------------------------------------------------------------------

 ------------------------------
 Gaussian input prepared by ASE
 ------------------------------
 Symbolic Z-matrix:
 Charge =  0 Multiplicity = 1

 SCF Done:  E(RwB97XD) =  -1199.65971047     A.U. after   17 cycles
 SCF Done:  E(RwB97XD) =  -1199.67179311     A.U. after   17 cycles
 SCF Done:  E(RwB97XD) =  -1199.67437036     A.U. after   15 cycles
 SCF Done:  E(RwB97XD) =  -1199.67453387     A.U. after   15 cycles
 SCF Done:  E(RwB97XD) =  -1199.67453833     A.U. after   12 cycles

 Isotropic polarizability for W=    0.000000       70.56 Bohr**3.
 End of Minotr F.D. properties file   721 does not exist.

 Optimization completed.
    -- Stationary point found.

                          Input orientation:
 ---------------------------------------------------------------------
 Center     Atomic      Atomic             Coordinates (Angstroms)
 Number     Number       Type             X           Y           Z
 ---------------------------------------------------------------------
      1          6           0       -0.254872    1.380097    0.052700
      2          6           0        0.006578   -0.007687    0.148287
      3          9           0       -0.251944   -0.544045    1.329597
      4          9           0       -0.432587   -0.756745   -0.853694
      5         16           0        2.292980    0.012500   -0.116728
      6          8           0        2.326901   -1.050762    0.851961
      7          8           0        2.168947   -0.115087   -1.545088
      8          8           0        3.709916    0.713190    0.179272
      9          9           0        1.656591    1.857832    0.206431
     10          9           0       -0.452722    1.931816   -1.081105
     11          9           0       -0.576660    2.091401    1.065083
     12          1           0        3.733222    1.579128   -0.248519
 ---------------------------------------------------------------------

 ******    1 imaginary frequencies (negative Signs) ******

                      1                      2                      3
                      A                      A                      A
 Frequencies --   -643.3634                37.2446                77.5847
 Red. masses --     14.0631                14.1082                 8.3200
 Frc consts  --      3.4296                 0.0115                 0.0295
 IR Inten    --    190.3161                 0.9658                 8.7405

                      4                      5                      6
                      A                      A                      A
 Frequencies --    170.0176               190.9470               197.5557
 Red. masses --     12.5246                11.9899                12.2826
 Frc consts  --      0.2133                 0.2576                 0.2824
 IR Inten    --     17.8908                 5.1147                 3.7911

                      7                      8                      9
                      A                      A                      A
 Frequencies --    215.0255               239.1863               276.9802
 Red. masses --     18.0364                 3.8286                 7.6067
 Frc consts  --      0.4913                 0.1291                 0.3438
 IR Inten    --      4.9543                15.7639                 6.6739

                     10                     11                     12
                      A                      A                      A
 Frequencies --    303.1149               328.9778               370.6306
 Red. masses --     13.5580                14.0656                11.0921
 Frc consts  --      0.7339                 0.8969                 0.8977
 IR Inten    --     12.0619                13.3754                62.4950

                     13                     14                     15
                      A                      A                      A
 Frequencies --    423.7114               436.9564               488.5682
 Red. masses --      3.4092                 4.7094                 6.8558
 Frc consts  --      0.3606                 0.5298                 0.9642
 IR Inten    --    148.1832                88.6489                35.8542

                     16                     17                     18
                      A                      A                      A
 Frequencies --    521.2821               545.7755               556.0257
 Red. masses --     10.4546                14.7672                15.1346
 Frc consts  --      1.6738                 2.5916                 2.7568
 IR Inten    --    116.0052               161.0879                98.0582

                     19                     20                     21
                      A                      A                      A
 Frequencies --    600.7659               680.9523               782.6154
 Red. masses --     16.9938                12.2708                15.9195
 Frc consts  --      3.6137                 3.3524                 5.7448
 IR Inten    --      9.1524                14.8116               221.5147

                     22                     23                     24
                      A                      A                      A
 Frequencies --    822.1800              1134.5556              1198.6075
 Red. masses --     17.0419                10.0130                 2.3964
 Frc consts  --      6.7874                 7.5939                 2.0285
 IR Inten    --    197.8427                73.1510               236.3414

                     25                     26                     27
                      A                      A                      A
 Frequencies --   1205.1430              1294.1414              1402.1562
 Red. masses --      2.2196                13.1235                13.3500
 Frc consts  --      1.8993                12.9499                15.4641
 IR Inten    --    203.0464               123.3948               192.8271

                     28                     29                     30
                      A                      A                      A
 Frequencies --   1458.0782              1559.1253              3831.4800
 Red. masses --     13.2571                12.5226                 1.0659
 Frc consts  --     16.6058                17.9352                 9.2191
 IR Inten    --    346.9309               702.3919               134.1878

 - Thermochemistry -
 -------------------
 Temperature   298.150 Kelvin.  Pressure   1.00000 Atm.
 Atom     1 has atomic number  6 and mass  12.00000

 Molecular mass:   199.95666 amu.
 Principal axes and moments of inertia in atomic units:
                           1         2         3
     Eigenvalues --  1275.716452105.541642372.72692
           X            0.94595   0.31217   0.08790
           Y           -0.31926   0.94399   0.08335
           Z           -0.05696  -0.10691   0.99264
 This molecule is an asymmetric top.
 Rotational symmetry number  1.
 Warning -- assumption of classical behavior for rotation
           may cause significant error
 Rotational temperatures (Kelvin)      0.06789     0.04114     0.03650
 Rotational constants (GHZ):           1.41469     0.85714     0.76062
    1 imaginary frequencies ignored.
 Zero-point vibrational energy     127697.7 (Joules/Mol)
                                   30.52048 (Kcal/Mol)
 Warning -- explicit consideration of  18 degrees of freedom as
           vibrations may cause significant error
 Vibrational temperatures:     53.59   111.63   244.62   274.73   284.24
          (Kelvin)            309.37   344.14   398.51   436.11   473.33
                              533.25   609.63   628.68   702.94   750.01
                              785.25   800.00   864.37   979.74  1126.01
                             1182.93  1632.37  1724.53  1733.93  1861.98
                             2017.39  2097.85  2243.23  5512.65

 Zero-point correction=                           0.048637 (Hartree/Particle)
 Thermal correction to Energy=                    0.059390
 Thermal correction to Enthalpy=                  0.060334
 Thermal correction to Gibbs Free Energy=         0.011504
 Sum of electronic and zero-point Energies=          -1199.625901
 Sum of electronic and thermal Energies=             -1199.615148
 Sum of electronic and thermal Enthalpies=           -1199.614204
 Sum of electronic and thermal Free Energies=        -1199.663034

                     E (Thermal)             CV                S
                      KCal/Mol        Cal/Mol-Kelvin    Cal/Mol-Kelvin
 Total                   37.268             37.431            102.772
 Electronic               0.000              0.000              0.000
 Translational            0.889              2.981             41.783
 Rotational               0.889              2.981             30.234
 Vibrational             35.490             31.469             30.755
 Vibration     1          0.594              1.982              5.401
 Vibration     2          0.599              1.964              3.951
 Vibration     3          0.625              1.879              2.435
 Vibration     4          0.634              1.852              2.219
 Vibration     5          0.637              1.843              2.156
 Vibration     6          0.645              1.818              2.001
 Vibration     7          0.657              1.781              1.809
 Vibration     8          0.678              1.716              1.552
 Vibration     9          0.695              1.668              1.400
 Vibration    10          0.712              1.618              1.265
 Vibration    11          0.743              1.533              1.077
 Vibration    12          0.786              1.419              0.879
 Vibration    13          0.797              1.390              0.836
 Vibration    14          0.844              1.275              0.687
 Vibration    15          0.876              1.203              0.607
 Vibration    16          0.901              1.149              0.553
 Vibration    17          0.911              1.127              0.532
 Vibration    18          0.959              1.030              0.448

 Normal termination of Gaussian 16 at Fri May 23 05:10:15 2025.
