 Gaussian 16, Revision C.01,
 Gaussian 16:  ES64L-G16RevC.01  3-Jul-2019

 ----------------------------------------------------------------------
 #P wb97xd/6-311++G(d,p) Symm(None) scf(xqc) pop(None) freq opt(CalcFC,
  Tight)
 ----------------------------------------------------------------------

 ------------------------------
 Gaussian input prepared by ASE
 ------------------------------
 Symbolic Z-matrix:
 Charge =  0 Multiplicity = 1

 SCF Done:  E(RwB97XD) =  -1199.82736305     A.U. after   14 cycles
 SCF Done:  E(RwB97XD) =  -1199.83306439     A.U. after   15 cycles
 SCF Done:  E(RwB97XD) =  -1199.83289421     A.U. after   15 cycles
 SCF Done:  E(RwB97XD) =  -1199.83365598     A.U. after   13 cycles
 SCF Done:  E(RwB97XD) =  -1199.83364977     A.U. after   12 cycles
 SCF Done:  E(RwB97XD) =  -1199.83372010     A.U. after   11 cycles
 SCF Done:  E(RwB97XD) =  -1199.83373379     A.U. after   11 cycles
 SCF Done:  E(RwB97XD) =  -1199.83373801     A.U. after   10 cycles
 SCF Done:  E(RwB97XD) =  -1199.83373898     A.U. after   10 cycles
 SCF Done:  E(RwB97XD) =  -1199.83373913     A.U. after    8 cycles
 SCF Done:  E(RwB97XD) =  -1199.83373925     A.U. after    8 cycles
 SCF Done:  E(RwB97XD) =  -1199.83373925     A.U. after    8 cycles
 Optimization completed.
    -- Stationary point found.
 Normal termination of Gaussian 16 at Fri May 23 04:30:55 2025.

 ----------------------------------------------------------------------
 #P Geom=AllCheck Guess=TCheck SCRF=Check GenChk RwB97XD/6-311++G(d,p)
 Freq
 ----------------------------------------------------------------------

 Structure from the checkpoint file:  "/tmp/Gau-59810.chk"
 ------------------------------
 Gaussian input prepared by ASE
 ------------------------------
 Charge =  0 Multiplicity = 1

                          Input orientation:
 ---------------------------------------------------------------------
 Center     Atomic      Atomic             Coordinates (Angstroms)
 Number     Number       Type             X           Y           Z
 ---------------------------------------------------------------------
      1          6           0       -0.000198    0.072680   -0.018416
      2          6           0        1.552812    0.014777   -0.017249
      3          9           0        1.465958   -0.163391    2.636201
      4          9           0        1.942990   -0.784790   -1.047149
      5         16           0        2.316609   -0.863093    1.473268
      6          8           0        3.645100   -0.324954    1.558561
      7          8           0        2.026871   -2.256622    1.512067
      8          8           0        2.040644    1.254680   -0.101073
      9          9           0       -0.506661   -1.132591    0.218925
     10          9           0       -0.443867    0.917858    0.900260
     11          9           0       -0.410212    0.481825   -1.213431
     12          1           0        2.992730    1.258198    0.070883
 ---------------------------------------------------------------------

 SCF Done:  E(RwB97XD) =  -1199.83373925     A.U. after    1 cycles

 Isotropic polarizability for W=    0.000000       55.97 Bohr**3.
 End of Minotr F.D. properties file   721 does not exist.

                      1                      2                      3
                      A                      A                      A
 Frequencies --     36.8859                71.3407               140.1880
 Red. masses --     17.8983                16.5594                17.3150
 Frc consts  --      0.0143                 0.0497                 0.2005
 IR Inten    --      0.0450                 0.2544                 1.5789

                      4                      5                      6
                      A                      A                      A
 Frequencies --    196.4283               229.8652               238.5652
 Red. masses --     15.5263                16.4768                13.3840
 Frc consts  --      0.3530                 0.5129                 0.4488
 IR Inten    --      2.4991                 2.6566                 1.8092

                      7                      8                      9
                      A                      A                      A
 Frequencies --    280.2799               308.1386               323.1501
 Red. masses --     13.4326                14.6129                 5.4436
 Frc consts  --      0.6217                 0.8175                 0.3349
 IR Inten    --     12.0650                 3.9905                18.7901

                     10                     11                     12
                      A                      A                      A
 Frequencies --    373.1758               422.9936               453.7481
 Red. masses --     11.1754                14.3114                 2.3401
 Frc consts  --      0.9169                 1.5087                 0.2839
 IR Inten    --      1.8525                 8.4336                49.0380

                     13                     14                     15
                      A                      A                      A
 Frequencies --    462.2081               498.1682               543.9634
 Red. masses --      2.5310                12.1624                13.2501
 Frc consts  --      0.3186                 1.7784                 2.3100
 IR Inten    --     66.0692                 9.0628                51.6279

                     16                     17                     18
                      A                      A                      A
 Frequencies --    599.9921               608.1419               664.3712
 Red. masses --     15.1668                19.9287                 9.5498
 Frc consts  --      3.2169                 4.3425                 2.4835
 IR Inten    --      9.1538               110.5570                34.3917

                     19                     20                     21
                      A                      A                      A
 Frequencies --    750.0046               788.9292               934.6080
 Red. masses --     16.7547                20.4845                 5.2525
 Frc consts  --      5.5528                 7.5119                 2.7032
 IR Inten    --     87.4332               118.8227                71.9687

                     22                     23                     24
                      A                      A                      A
 Frequencies --   1082.5321              1216.5489              1230.5024
 Red. masses --     10.4225                12.7897                 7.0972
 Frc consts  --      7.1962                11.1524                 6.3315
 IR Inten    --    133.4404               206.9029               309.3194

                     25                     26                     27
                      A                      A                      A
 Frequencies --   1244.7132              1252.5457              1292.7601
 Red. masses --      5.8351                13.1472                 3.5676
 Frc consts  --      5.3264                12.1526                 3.5129
 IR Inten    --    125.7289               356.0133               158.0194

                     28                     29                     30
                      A                      A                      A
 Frequencies --   1431.8796              1450.0029              3792.7368
 Red. masses --      4.8214                 4.9054                 1.0656
 Frc consts  --      5.8241                 6.0766                 9.0312
 IR Inten    --    180.8298               116.3460               124.0852

 - Thermochemistry -
 -------------------
 Temperature   298.150 Kelvin.  Pressure   1.00000 Atm.
 Atom     1 has atomic number  6 and mass  12.00000

 Molecular mass:   199.95666 amu.
 Principal axes and moments of inertia in atomic units:
                           1         2         3
     Eigenvalues --  1151.703132161.953822299.51981
           X            0.76531  -0.63712   0.09155
           Y           -0.30099  -0.22851   0.92585
           Z            0.56896   0.73611   0.36664
 This molecule is an asymmetric top.
 Rotational symmetry number  1.
 Warning -- assumption of classical behavior for rotation
           may cause significant error
 Rotational temperatures (Kelvin)      0.07521     0.04006     0.03767
 Rotational constants (GHZ):           1.56702     0.83477     0.78483
 Zero-point vibrational energy     137088.3 (Joules/Mol)
                                   32.76488 (Kcal/Mol)
 Warning -- explicit consideration of  17 degrees of freedom as
           vibrations may cause significant error
 Vibrational temperatures:     53.07   102.64   201.70   282.62   330.72
          (Kelvin)            343.24   403.26   443.34   464.94   536.92
                              608.59   652.84   665.01   716.75   782.64
                              863.25   874.98   955.88  1079.09  1135.09
                             1344.69  1557.52  1750.34  1770.42  1790.86
                             1802.13  1859.99  2060.16  2086.23  5456.90

 Zero-point correction=                           0.052214 (Hartree/Particle)
 Thermal correction to Energy=                    0.062525
 Thermal correction to Enthalpy=                  0.063470
 Thermal correction to Gibbs Free Energy=         0.015427
 Sum of electronic and zero-point Energies=          -1199.781525
 Sum of electronic and thermal Energies=             -1199.771214
 Sum of electronic and thermal Enthalpies=           -1199.770270
 Sum of electronic and thermal Free Energies=        -1199.818312

                     E (Thermal)             CV                S
                      KCal/Mol        Cal/Mol-Kelvin    Cal/Mol-Kelvin
 Total                   39.235             36.451            101.113
 Electronic               0.000              0.000              0.000
 Translational            0.889              2.981             41.783
 Rotational               0.889              2.981             30.127
 Vibrational             37.458             30.490             29.203
 Vibration     1          0.594              1.982              5.420
 Vibration     2          0.598              1.968              4.116
 Vibration     3          0.615              1.913              2.801
 Vibration     4          0.636              1.845              2.166
 Vibration     5          0.652              1.795              1.880
 Vibration     6          0.657              1.782              1.814
 Vibration     7          0.680              1.710              1.532
 Vibration     8          0.698              1.658              1.372
 Vibration     9          0.708              1.629              1.294
 Vibration    10          0.745              1.527              1.067
 Vibration    11          0.785              1.420              0.882
 Vibration    12          0.812              1.353              0.785
 Vibration    13          0.820              1.334              0.760
 Vibration    14          0.854              1.254              0.663
 Vibration    15          0.899              1.153              0.557
 Vibration    16          0.958              1.032              0.450
 Vibration    17          0.967              1.015              0.436

 Optimization completed.
    -- Stationary point found.
 Normal termination of Gaussian 16 at Fri May 23 04:32:21 2025.
