 Gaussian 16, Revision C.01,
 Gaussian 16:  ES64L-G16RevC.01  3-Jul-2019

 ----------------------------------------------------------------------
 #P wb97xd/6-311++G(d,p) Symm(None) scf(xqc) pop(None) freq opt(CalcFC,
  Tight)
 ----------------------------------------------------------------------

 ------------------------------
 Gaussian input prepared by ASE
 ------------------------------
 Symbolic Z-matrix:
 Charge =  0 Multiplicity = 1

 SCF Done:  E(RwB97XD) =  -1199.59167816     A.U. after   18 cycles
 SCF Done:  E(RwB97XD) =  -1199.59946029     A.U. after   20 cycles
 SCF Done:  E(RwB97XD) =  -1199.59844118     A.U. after   15 cycles
 SCF Done:  E(RwB97XD) =  -1199.59998689     A.U. after   19 cycles
 SCF Done:  E(RwB97XD) =  -1199.59899792     A.U. after   18 cycles
 SCF Done:  E(RwB97XD) =  -1199.60043119     A.U. after   18 cycles
 SCF Done:  E(RwB97XD) =  -1199.60071148     A.U. after   17 cycles
 SCF Done:  E(RwB97XD) =  -1199.60098134     A.U. after   18 cycles
 SCF Done:  E(RwB97XD) =  -1199.45181702     A.U. after   33 cycles
 SCF Done:  E(RwB97XD) =  -1199.45181702     a.u. after    1 cycles
 SCF Done:  E(RwB97XD) =  -1199.60355393     A.U. after   15 cycles
 SCF Done:  E(RwB97XD) =  -1199.60355400     A.U. after   14 cycles
 SCF Done:  E(RwB97XD) =  -1199.60356246     A.U. after   14 cycles
 SCF Done:  E(RwB97XD) =  -1199.60356627     A.U. after   15 cycles
 SCF Done:  E(RwB97XD) =  -1199.60356808     A.U. after   13 cycles
 SCF Done:  E(RwB97XD) =  -1199.60356904     A.U. after   12 cycles
 SCF Done:  E(RwB97XD) =  -1199.60356912     A.U. after   11 cycles
 SCF Done:  E(RwB97XD) =  -1199.60356914     A.U. after   10 cycles
 SCF Done:  E(RwB97XD) =  -1199.60356914     A.U. after    9 cycles
 Optimization completed.
    -- Stationary point found.
 Normal termination of Gaussian 16 at Fri May 23 07:40:54 2025.

 ----------------------------------------------------------------------
 #P Geom=AllCheck Guess=TCheck SCRF=Check GenChk RwB97XD/6-311++G(d,p)
 Freq
 ----------------------------------------------------------------------

 Structure from the checkpoint file:  "/tmp/Gau-209225.chk"
 ------------------------------
 Gaussian input prepared by ASE
 ------------------------------
 Charge =  0 Multiplicity = 1

                          Input orientation:
 ---------------------------------------------------------------------
 Center     Atomic      Atomic             Coordinates (Angstroms)
 Number     Number       Type             X           Y           Z
 ---------------------------------------------------------------------
      1          6           0       -0.682700    0.569883   -1.341043
      2          6           0        0.077645   -0.085483   -0.147312
      3          9           0       -0.337819    0.425257    0.993507
      4          9           0       -0.309484   -1.440042   -0.175561
      5         16           0        1.989567   -0.132672   -0.156932
      6          8           0        0.592690   -2.265459    0.943301
      7          8           0        2.385769   -0.894164   -1.329979
      8          8           0        1.958610    1.492316   -0.539036
      9          9           0       -0.691339    1.884121   -1.200635
     10          9           0       -0.118649    0.243234   -2.490558
     11          9           0       -1.944011    0.137005   -1.340192
     12          1           0        2.757192    1.913703   -0.205624
 ---------------------------------------------------------------------

 SCF Done:  E(RwB97XD) =  -1199.60356914     A.U. after    1 cycles

 Isotropic polarizability for W=    0.000000       61.96 Bohr**3.
 End of Minotr F.D. properties file   721 does not exist.

                      1                      2                      3
                      A                      A                      A
 Frequencies --     40.2778                82.2312               105.1627
 Red. masses --     13.2681                11.3385                16.2594
 Frc consts  --      0.0127                 0.0452                 0.1059
 IR Inten    --      1.4036                 3.5872                 1.6721

                      4                      5                      6
                      A                      A                      A
 Frequencies --    140.2877               154.9100               190.5675
 Red. masses --     13.7090                12.5563                13.1158
 Frc consts  --      0.1590                 0.1775                 0.2806
 IR Inten    --      0.2747                 6.1803                 7.7381

                      7                      8                      9
                      A                      A                      A
 Frequencies --    205.3124               232.3383               250.8953
 Red. masses --      2.2082                 6.2483                 3.5534
 Frc consts  --      0.0548                 0.1987                 0.1318
 IR Inten    --     63.3215                25.2540                21.3619

                     10                     11                     12
                      A                      A                      A
 Frequencies --    286.7208               321.4318               358.0400
 Red. masses --     16.9115                 8.0633                12.2393
 Frc consts  --      0.8191                 0.4908                 0.9244
 IR Inten    --      1.1762                10.2581                 1.1885

                     13                     14                     15
                      A                      A                      A
 Frequencies --    407.8308               431.1812               476.5514
 Red. masses --      9.7222                14.3030                14.5490
 Frc consts  --      0.9527                 1.5667                 1.9467
 IR Inten    --     26.6822                13.8325                12.0917

                     16                     17                     18
                      A                      A                      A
 Frequencies --    533.3997               558.0561               596.2486
 Red. masses --     17.9074                17.3687                17.5503
 Frc consts  --      3.0019                 3.1869                 3.6761
 IR Inten    --     11.3954                35.1474                23.6997

                     19                     20                     21
                      A                      A                      A
 Frequencies --    630.3513               722.0973               757.1447
 Red. masses --     16.6426                15.1394                16.6366
 Frc consts  --      3.8962                 4.6510                 5.6192
 IR Inten    --      3.9034               129.6618                50.2539

                     22                     23                     24
                      A                      A                      A
 Frequencies --    975.2734               995.4353              1103.5184
 Red. masses --      9.2302                 9.4875                 1.2308
 Frc consts  --      5.1727                 5.5390                 0.8831
 IR Inten    --    219.0817                70.6223                72.7347

                     25                     26                     27
                      A                      A                      A
 Frequencies --   1213.0654              1225.1135              1247.2895
 Red. masses --     12.6060                13.1018                15.8009
 Frc consts  --     10.9294                11.5860                14.4832
 IR Inten    --    150.6666               224.7254                74.7523

                     28                     29                     30
                      A                      A                      A
 Frequencies --   1276.9456              1327.5461              3878.4557
 Red. masses --     14.3561                12.5399                 1.0674
 Frc consts  --     13.7921                13.0210                 9.4598
 IR Inten    --    488.7861               129.5878               164.2518

 - Thermochemistry -
 -------------------
 Temperature   298.150 Kelvin.  Pressure   1.00000 Atm.
 Atom     1 has atomic number  6 and mass  12.00000

 Molecular mass:   199.95666 amu.
 Principal axes and moments of inertia in atomic units:
                           1         2         3
     Eigenvalues --  1443.858621924.873202384.26813
           X            0.81937   0.56730  -0.08254
           Y           -0.43072   0.70423   0.56440
           Z            0.37831  -0.42689   0.82137
 This molecule is an asymmetric top.
 Rotational symmetry number  1.
 Warning -- assumption of classical behavior for rotation
           may cause significant error
 Rotational temperatures (Kelvin)      0.05999     0.04500     0.03633
 Rotational constants (GHZ):           1.24994     0.93759     0.75694
 Zero-point vibrational energy     123955.1 (Joules/Mol)
                                   29.62599 (Kcal/Mol)
 Warning -- explicit consideration of  18 degrees of freedom as
           vibrations may cause significant error
 Vibrational temperatures:     57.95   118.31   151.31   201.84   222.88
          (Kelvin)            274.18   295.40   334.28   360.98   412.53
                              462.47   515.14   586.78   620.37   685.65
                              767.44   802.92   857.87   906.93  1038.94
                             1089.36  1403.20  1432.21  1587.72  1745.33
                             1762.67  1794.57  1837.24  1910.04  5580.23

 Zero-point correction=                           0.047212 (Hartree/Particle)
 Thermal correction to Energy=                    0.058879
 Thermal correction to Enthalpy=                  0.059823
 Thermal correction to Gibbs Free Energy=         0.008913
 Sum of electronic and zero-point Energies=          -1199.556357
 Sum of electronic and thermal Energies=             -1199.544690
 Sum of electronic and thermal Enthalpies=           -1199.543746
 Sum of electronic and thermal Free Energies=        -1199.594656

                     E (Thermal)             CV                S
                      KCal/Mol        Cal/Mol-Kelvin    Cal/Mol-Kelvin
 Total                   36.947             39.683            107.148
 Electronic               0.000              0.000              0.000
 Translational            0.889              2.981             41.783
 Rotational               0.889              2.981             30.273
 Vibrational             35.169             33.721             35.092
 Vibration     1          0.594              1.981              5.245
 Vibration     2          0.600              1.961              3.837
 Vibration     3          0.605              1.945              3.356
 Vibration     4          0.615              1.913              2.800
 Vibration     5          0.620              1.897              2.611
 Vibration     6          0.634              1.853              2.222
 Vibration     7          0.640              1.832              2.085
 Vibration     8          0.653              1.791              1.861
 Vibration     9          0.663              1.761              1.724
 Vibration    10          0.684              1.698              1.493
 Vibration    11          0.707              1.632              1.303
 Vibration    12          0.733              1.559              1.131
 Vibration    13          0.772              1.453              0.934
 Vibration    14          0.792              1.402              0.855
 Vibration    15          0.833              1.302              0.719
 Vibration    16          0.888              1.176              0.580
 Vibration    17          0.914              1.122              0.528
 Vibration    18          0.954              1.040              0.456

 Optimization completed.
    -- Stationary point found.
 Normal termination of Gaussian 16 at Fri May 23 07:42:14 2025.
