 Gaussian 16, Revision C.01,
 Gaussian 16:  ES64L-G16RevC.01  3-Jul-2019

 ----------------------------------------------------------------------
 #P wb97xd/6-311++G(d,p) Symm(None) scf(xqc) pop(None) opt(NoFreeze,TS,
 CalcAll,NoEigentest,MaxCycle=999)
 ----------------------------------------------------------------------

 ------------------------------
 Gaussian input prepared by ASE
 ------------------------------
 Symbolic Z-matrix:
 Charge =  0 Multiplicity = 1

 SCF Done:  E(RwB97XD) =  -1199.56439668     A.U. after   30 cycles
 SCF Done:  E(RwB97XD) =  -1199.58586691     A.U. after   24 cycles
 SCF Done:  E(RwB97XD) =  -1199.59025248     A.U. after   25 cycles
 SCF Done:  E(RwB97XD) =  -1199.59546601     A.U. after   28 cycles
 SCF Done:  E(RwB97XD) =  -1199.59589649     A.U. after   23 cycles
 SCF Done:  E(RwB97XD) =  -1199.59643520     A.U. after   21 cycles
 SCF Done:  E(RwB97XD) =  -1199.59649831     A.U. after   21 cycles
 SCF Done:  E(RwB97XD) =  -1199.59650223     A.U. after   19 cycles
 SCF Done:  E(RwB97XD) =  -1199.59650232     A.U. after   19 cycles

 Isotropic polarizability for W=    0.000000       74.38 Bohr**3.
 End of Minotr F.D. properties file   721 does not exist.

 Optimization completed.
    -- Stationary point found.

                          Input orientation:
 ---------------------------------------------------------------------
 Center     Atomic      Atomic             Coordinates (Angstroms)
 Number     Number       Type             X           Y           Z
 ---------------------------------------------------------------------
      1          6           0       -0.580894   -1.395308   -0.130402
      2          6           0        0.077234   -0.004885    0.001737
      3          9           0       -0.434477    0.847413   -0.870373
      4          9           0       -0.109783    0.461709    1.251092
      5         16           0        2.001488   -0.065835   -0.100350
      6          8           0        1.644372    1.150727    2.259302
      7          8           0        2.376179   -0.709629   -1.347856
      8          8           0        2.177096    1.527844   -0.281226
      9          9           0       -0.522467   -1.808005   -1.385635
     10          9           0        0.067754   -2.260004    0.649090
     11          9           0       -1.852400   -1.343251    0.250672
     12          1           0        2.185019    1.874086    0.638929
 ---------------------------------------------------------------------

 ******    1 imaginary frequencies (negative Signs) ******

                      1                      2                      3
                      A                      A                      A
 Frequencies --   -298.0717                43.7832                59.8411
 Red. masses --     17.0547                15.0648                17.2279
 Frc consts  --      0.8928                 0.0170                 0.0363
 IR Inten    --     56.9894                 0.4664                 0.0578

                      4                      5                      6
                      A                      A                      A
 Frequencies --    121.0683               151.1828               192.4652
 Red. masses --     16.2903                 9.8124                14.8114
 Frc consts  --      0.1407                 0.1321                 0.3233
 IR Inten    --      0.8188                 8.7094                11.3454

                      7                      8                      9
                      A                      A                      A
 Frequencies --    227.1625               236.4015               261.7108
 Red. masses --     17.4731                14.5616                12.5070
 Frc consts  --      0.5312                 0.4795                 0.5047
 IR Inten    --      2.9894                 2.4881                 7.8127

                     10                     11                     12
                      A                      A                      A
 Frequencies --    280.5448               342.3048               375.9143
 Red. masses --     14.1711                17.7685                18.3501
 Frc consts  --      0.6571                 1.2267                 1.5278
 IR Inten    --      2.1360                 1.1331                 1.1454

                     13                     14                     15
                      A                      A                      A
 Frequencies --    408.4895               434.0596               505.8658
 Red. masses --     15.1930                12.4909                16.6197
 Frc consts  --      1.4937                 1.3866                 2.5058
 IR Inten    --     15.8455                18.4275                35.1911

                     16                     17                     18
                      A                      A                      A
 Frequencies --    544.5151               601.1536               634.0295
 Red. masses --     17.8330                17.7075                 7.5785
 Frc consts  --      3.1153                 3.7703                 1.7949
 IR Inten    --      2.0589                 6.6340                39.2703

                     19                     20                     21
                      A                      A                      A
 Frequencies --    642.1991               759.4487               783.3320
 Red. masses --      1.1757                16.4553                 9.7010
 Frc consts  --      0.2857                 5.5918                 3.5072
 IR Inten    --     95.3622                33.1044                87.0109

                     22                     23                     24
                      A                      A                      A
 Frequencies --    938.2918              1094.5378              1177.6606
 Red. masses --     13.1484                12.6628                 1.4366
 Frc consts  --      6.8203                 8.9380                 1.1739
 IR Inten    --    100.5509                32.7592               201.0742

                     25                     26                     27
                      A                      A                      A
 Frequencies --   1223.9470              1229.6718              1248.1037
 Red. masses --     12.4785                10.5314                10.4741
 Frc consts  --     11.0138                 9.3824                 9.6132
 IR Inten    --    314.3050                65.9228               134.0214

                     28                     29                     30
                      A                      A                      A
 Frequencies --   1278.0909              1351.0267              3475.6858
 Red. masses --      6.8588                12.2860                 1.0665
 Frc consts  --      6.6012                13.2126                 7.5912
 IR Inten    --    272.6834               218.7021                 6.6036

 - Thermochemistry -
 -------------------
 Temperature   298.150 Kelvin.  Pressure   1.00000 Atm.
 Atom     1 has atomic number  6 and mass  12.00000

 Molecular mass:   199.95666 amu.
 Principal axes and moments of inertia in atomic units:
                           1         2         3
     Eigenvalues --  1293.864802212.719262582.99070
           X            0.76905  -0.46678  -0.43667
           Y            0.62189   0.38856   0.67990
           Z            0.14769   0.79444  -0.58911
 This molecule is an asymmetric top.
 Rotational symmetry number  1.
 Warning -- assumption of classical behavior for rotation
           may cause significant error
 Rotational temperatures (Kelvin)      0.06694     0.03914     0.03353
 Rotational constants (GHZ):           1.39485     0.81562     0.69870
    1 imaginary frequencies ignored.
 Zero-point vibrational energy     123349.9 (Joules/Mol)
                                   29.48133 (Kcal/Mol)
 Warning -- explicit consideration of  16 degrees of freedom as
           vibrations may cause significant error
 Vibrational temperatures:     62.99    86.10   174.19   217.52   276.91
          (Kelvin)            326.84   340.13   376.54   403.64   492.50
                              540.86   587.73   624.51   727.83   783.44
                              864.93   912.23   923.98  1092.68  1127.04
                             1349.99  1574.80  1694.39  1760.99  1769.22
                             1795.74  1838.89  1943.83  5000.74

 Zero-point correction=                           0.046981 (Hartree/Particle)
 Thermal correction to Energy=                    0.057791
 Thermal correction to Enthalpy=                  0.058735
 Thermal correction to Gibbs Free Energy=         0.009380
 Sum of electronic and zero-point Energies=          -1199.549521
 Sum of electronic and thermal Energies=             -1199.538711
 Sum of electronic and thermal Enthalpies=           -1199.537767
 Sum of electronic and thermal Free Energies=        -1199.587122

                     E (Thermal)             CV                S
                      KCal/Mol        Cal/Mol-Kelvin    Cal/Mol-Kelvin
 Total                   36.264             37.106            103.875
 Electronic               0.000              0.000              0.000
 Translational            0.889              2.981             41.783
 Rotational               0.889              2.981             30.382
 Vibrational             34.487             31.145             31.710
 Vibration     1          0.595              1.980              5.080
 Vibration     2          0.597              1.973              4.462
 Vibration     3          0.609              1.932              3.083
 Vibration     4          0.619              1.901              2.657
 Vibration     5          0.634              1.850              2.204
 Vibration     6          0.651              1.800              1.901
 Vibration     7          0.655              1.785              1.830
 Vibration     8          0.669              1.743              1.650
 Vibration     9          0.680              1.710              1.530
 Vibration    10          0.721              1.591              1.201
 Vibration    11          0.747              1.521              1.056
 Vibration    12          0.773              1.452              0.932
 Vibration    13          0.795              1.396              0.845
 Vibration    14          0.861              1.237              0.644
 Vibration    15          0.900              1.152              0.556
 Vibration    16          0.959              1.029              0.448

 Normal termination of Gaussian 16 at Fri May 23 07:44:27 2025.
