 Gaussian 16, Revision C.01,
 Gaussian 16:  ES64L-G16RevC.01  3-Jul-2019

 ----------------------------------------------------------------------
 #P wb97xd/6-311++G(d,p) Symm(None) scf(xqc) pop(None) freq opt(CalcFC,
  Tight)
 ----------------------------------------------------------------------

 ------------------------------
 Gaussian input prepared by ASE
 ------------------------------
 Symbolic Z-matrix:
 Charge =  0 Multiplicity = 1

 SCF Done:  E(RwB97XD) =  -1199.59487864     A.U. after   20 cycles
 SCF Done:  E(RwB97XD) =  -1199.60353125     A.U. after   19 cycles
 SCF Done:  E(RwB97XD) =  -1199.60470129     A.U. after   19 cycles
 SCF Done:  E(RwB97XD) =  -1199.60292752     A.U. after   19 cycles
 SCF Done:  E(RwB97XD) =  -1199.60453757     A.U. after   18 cycles
 SCF Done:  E(RwB97XD) =  -1199.60515111     A.U. after   16 cycles
 SCF Done:  E(RwB97XD) =  -1199.60521613     A.U. after   16 cycles
 SCF Done:  E(RwB97XD) =  -1199.60534948     A.U. after   17 cycles
 SCF Done:  E(RwB97XD) =  -1199.60448294     A.U. after   19 cycles
 SCF Done:  E(RwB97XD) =  -1199.60558426     A.U. after   17 cycles
 SCF Done:  E(RwB97XD) =  -1199.60590328     A.U. after   13 cycles
 SCF Done:  E(RwB97XD) =  -1199.60590443     A.U. after   12 cycles
 SCF Done:  E(RwB97XD) =  -1199.60590511     A.U. after   12 cycles
 SCF Done:  E(RwB97XD) =  -1199.60590519     A.U. after   11 cycles
 SCF Done:  E(RwB97XD) =  -1199.60590524     A.U. after   10 cycles
 SCF Done:  E(RwB97XD) =  -1199.60590524     A.U. after   10 cycles
 SCF Done:  E(RwB97XD) =  -1199.60590524     A.U. after    9 cycles
 SCF Done:  E(RwB97XD) =  -1199.60590524     A.U. after    8 cycles
 SCF Done:  E(RwB97XD) =  -1199.60590524     A.U. after    8 cycles
 Optimization completed on the basis of negligible forces.
    -- Stationary point found.
 Normal termination of Gaussian 16 at Fri May 23 07:41:02 2025.

 ----------------------------------------------------------------------
 #P Geom=AllCheck Guess=TCheck SCRF=Check GenChk RwB97XD/6-311++G(d,p)
 Freq
 ----------------------------------------------------------------------

 Structure from the checkpoint file:  "/tmp/Gau-105064.chk"
 ------------------------------
 Gaussian input prepared by ASE
 ------------------------------
 Charge =  0 Multiplicity = 1

                          Input orientation:
 ---------------------------------------------------------------------
 Center     Atomic      Atomic             Coordinates (Angstroms)
 Number     Number       Type             X           Y           Z
 ---------------------------------------------------------------------
      1          6           0       -0.735500    0.442286   -1.394598
      2          6           0       -0.009117   -0.143230   -0.151670
      3          9           0       -0.502348    0.369208    0.956696
      4          9           0       -0.342566   -1.510641   -0.174680
      5         16           0        1.920618   -0.037795   -0.120225
      6          8           0        0.670248   -2.374980    0.820722
      7          8           0        2.307673   -0.364898   -1.490652
      8          8           0        1.953486    1.588482    0.091805
      9          9           0       -0.326979    1.704713   -1.583916
     10          9           0       -0.470676   -0.261110   -2.476303
     11          9           0       -2.046030    0.457096   -1.188945
     12          1           0        1.701905    2.068001   -0.710104
 ---------------------------------------------------------------------

 SCF Done:  E(RwB97XD) =  -1199.60590524     A.U. after    1 cycles

 Isotropic polarizability for W=    0.000000       61.43 Bohr**3.
 End of Minotr F.D. properties file   721 does not exist.

                      1                      2                      3
                      A                      A                      A
 Frequencies --     43.5122                49.4912                78.8644
 Red. masses --     12.9465                17.2343                14.4465
 Frc consts  --      0.0144                 0.0249                 0.0529
 IR Inten    --      0.1110                 1.5511                 1.0984

                      4                      5                      6
                      A                      A                      A
 Frequencies --    135.7266               154.9896               199.5835
 Red. masses --     16.1529                13.3637                11.6159
 Frc consts  --      0.1753                 0.1891                 0.2726
 IR Inten    --      2.5444                 1.9507                10.7660

                      7                      8                      9
                      A                      A                      A
 Frequencies --    215.9178               235.8023               275.2590
 Red. masses --     16.9627                10.3754                16.3622
 Frc consts  --      0.4659                 0.3399                 0.7304
 IR Inten    --      1.0812                 1.0472                 1.7444

                     10                     11                     12
                      A                      A                      A
 Frequencies --    320.4861               338.0800               358.8399
 Red. masses --     14.5612                 3.3149                 4.0591
 Frc consts  --      0.8812                 0.2232                 0.3080
 IR Inten    --      1.5260                23.9482                 7.3854

                     13                     14                     15
                      A                      A                      A
 Frequencies --    434.5707               452.1905               481.8198
 Red. masses --     10.6991                16.1012                 2.1173
 Frc consts  --      1.1905                 1.9398                 0.2896
 IR Inten    --     16.3985                21.3981               156.0490

                     16                     17                     18
                      A                      A                      A
 Frequencies --    535.6366               542.5897               599.1266
 Red. masses --     17.8183                17.0151                17.4609
 Frc consts  --      3.0120                 2.9514                 3.6928
 IR Inten    --      1.9650                52.8234                33.2719

                     19                     20                     21
                      A                      A                      A
 Frequencies --    629.1650               751.9148               754.9046
 Red. masses --     15.5924                15.5228                17.0024
 Frc consts  --      3.6366                 5.1708                 5.7088
 IR Inten    --      6.1031               187.7966                30.7947

                     22                     23                     24
                      A                      A                      A
 Frequencies --    979.9443               989.2001              1102.0505
 Red. masses --     12.8844                12.1630                 1.3083
 Frc consts  --      7.2898                 7.0123                 0.9362
 IR Inten    --    214.9789                57.9892                72.4010

                     25                     26                     27
                      A                      A                      A
 Frequencies --   1194.5020              1228.7979              1237.3475
 Red. masses --     13.1282                12.7208                 7.5885
 Frc consts  --     11.0365                11.3169                 6.8452
 IR Inten    --    117.8825               137.6365                94.7329

                     28                     29                     30
                      A                      A                      A
 Frequencies --   1272.1380              1333.4564              3799.1002
 Red. masses --     12.5796                12.7894                 1.0656
 Frc consts  --     11.9946                13.3986                 9.0620
 IR Inten    --    500.5959               143.7485               105.7883

 - Thermochemistry -
 -------------------
 Temperature   298.150 Kelvin.  Pressure   1.00000 Atm.
 Atom     1 has atomic number  6 and mass  12.00000

 Molecular mass:   199.95666 amu.
 Principal axes and moments of inertia in atomic units:
                           1         2         3
     Eigenvalues --  1502.379501926.303762364.13127
           X            0.86609   0.43911  -0.23888
           Y           -0.26478   0.80832   0.52585
           Z            0.42400  -0.39218   0.81634
 This molecule is an asymmetric top.
 Rotational symmetry number  1.
 Warning -- assumption of classical behavior for rotation
           may cause significant error
 Rotational temperatures (Kelvin)      0.05765     0.04496     0.03664
 Rotational constants (GHZ):           1.20126     0.93689     0.76338
 Zero-point vibrational energy     123963.1 (Joules/Mol)
                                   29.62789 (Kcal/Mol)
 Warning -- explicit consideration of  18 degrees of freedom as
           vibrations may cause significant error
 Vibrational temperatures:     62.60    71.21   113.47   195.28   223.00
          (Kelvin)            287.16   310.66   339.27   396.04   461.11
                              486.42   516.29   625.25   650.60   693.23
                              770.66   780.67   862.01   905.23  1081.84
                             1086.14  1409.92  1423.24  1585.60  1718.62
                             1767.97  1780.27  1830.32  1918.55  5466.06

 Zero-point correction=                           0.047215 (Hartree/Particle)
 Thermal correction to Energy=                    0.058822
 Thermal correction to Enthalpy=                  0.059766
 Thermal correction to Gibbs Free Energy=         0.008525
 Sum of electronic and zero-point Energies=          -1199.558690
 Sum of electronic and thermal Energies=             -1199.547083
 Sum of electronic and thermal Enthalpies=           -1199.546139
 Sum of electronic and thermal Free Energies=        -1199.597380

                     E (Thermal)             CV                S
                      KCal/Mol        Cal/Mol-Kelvin    Cal/Mol-Kelvin
 Total                   36.911             39.423            107.847
 Electronic               0.000              0.000              0.000
 Translational            0.889              2.981             41.783
 Rotational               0.889              2.981             30.304
 Vibrational             35.134             33.462             35.759
 Vibration     1          0.595              1.980              5.092
 Vibration     2          0.595              1.978              4.838
 Vibration     3          0.600              1.963              3.919
 Vibration     4          0.614              1.918              2.863
 Vibration     5          0.620              1.897              2.610
 Vibration     6          0.638              1.840              2.137
 Vibration     7          0.645              1.817              1.993
 Vibration     8          0.655              1.786              1.834
 Vibration     9          0.677              1.719              1.563
 Vibration    10          0.706              1.634              1.308
 Vibration    11          0.718              1.599              1.221
 Vibration    12          0.734              1.557              1.127
 Vibration    13          0.795              1.395              0.844
 Vibration    14          0.811              1.356              0.789
 Vibration    15          0.838              1.290              0.705
 Vibration    16          0.891              1.171              0.575
 Vibration    17          0.898              1.156              0.560
 Vibration    18          0.957              1.034              0.451

 Optimization completed.
    -- Stationary point found.
 Normal termination of Gaussian 16 at Fri May 23 07:42:30 2025.
