 Gaussian 16, Revision C.01,
 Gaussian 16:  ES64L-G16RevC.01  3-Jul-2019

 ----------------------------------------------------------------------
 #P wb97xd/6-311++G(d,p) Symm(None) scf(xqc) pop(None) freq opt(CalcFC,
  Tight)
 ----------------------------------------------------------------------

 ------------------------------
 Gaussian input prepared by ASE
 ------------------------------
 Symbolic Z-matrix:
 Charge =  0 Multiplicity = 1

 SCF Done:  E(RwB97XD) =  -1199.57378145     A.U. after   21 cycles
 SCF Done:  E(RwB97XD) =  -1199.58019573     A.U. after   18 cycles
 SCF Done:  E(RwB97XD) =  -1199.58454034     A.U. after   17 cycles
 SCF Done:  E(RwB97XD) =  -1199.59125874     A.U. after   20 cycles
 SCF Done:  E(RwB97XD) =  -1199.58705147     A.U. after   22 cycles
 SCF Done:  E(RwB97XD) =  -1199.57837205     A.U. after   19 cycles
 SCF Done:  E(RwB97XD) =  -1199.57956237     A.U. after   18 cycles
 SCF Done:  E(RwB97XD) =  -1199.59262476     A.U. after   13 cycles
 SCF Done:  E(RwB97XD) =  -1199.59567908     A.U. after   18 cycles
 SCF Done:  E(RwB97XD) =  -1199.59631072     A.U. after   19 cycles
 SCF Done:  E(RwB97XD) =  -1199.59739274     A.U. after   10 cycles
 SCF Done:  E(RwB97XD) =  -1199.59739277     A.U. after   12 cycles
 SCF Done:  E(RwB97XD) =  -1199.59739278     A.U. after   11 cycles
 SCF Done:  E(RwB97XD) =  -1199.59739278     A.U. after   10 cycles
 SCF Done:  E(RwB97XD) =  -1199.59739278     A.U. after   10 cycles
 SCF Done:  E(RwB97XD) =  -1199.59739278     A.U. after    5 cycles
 SCF Done:  E(RwB97XD) =  -1199.59739278     A.U. after   10 cycles
 SCF Done:  E(RwB97XD) =  -1199.59739278     A.U. after   10 cycles
 SCF Done:  E(RwB97XD) =  -1199.59739278     A.U. after    9 cycles
 Optimization completed.
    -- Stationary point found.
 Normal termination of Gaussian 16 at Fri May 23 07:43:30 2025.

 ----------------------------------------------------------------------
 #P Geom=AllCheck Guess=TCheck SCRF=Check GenChk RwB97XD/6-311++G(d,p)
 Freq
 ----------------------------------------------------------------------

 Structure from the checkpoint file:  "/tmp/Gau-104084.chk"
 ------------------------------
 Gaussian input prepared by ASE
 ------------------------------
 Charge =  0 Multiplicity = 1

                          Input orientation:
 ---------------------------------------------------------------------
 Center     Atomic      Atomic             Coordinates (Angstroms)
 Number     Number       Type             X           Y           Z
 ---------------------------------------------------------------------
      1          6           0       -0.614390   -1.488048    0.265586
      2          6           0       -0.097938   -0.030693    0.147869
      3          9           0       -0.582518    0.567606   -0.907076
      4          9           0       -0.468828    0.673966    1.298703
      5         16           0        1.819843    0.074454    0.204061
      6          8           0       -2.103304    1.137745    1.423653
      7          8           0        2.268802   -0.599357   -1.006480
      8          8           0        1.726892    1.696627   -0.080055
      9          9           0       -0.243210   -2.166521   -0.811920
     10          9           0       -0.055188   -2.045869    1.343483
     11          9           0       -1.925607   -1.542121    0.378187
     12          1           0        2.344997    2.157726    0.497362
 ---------------------------------------------------------------------

 SCF Done:  E(RwB97XD) =  -1199.59739278     A.U. after    1 cycles

 Isotropic polarizability for W=    0.000000       63.56 Bohr**3.
 End of Minotr F.D. properties file   721 does not exist.

                      1                      2                      3
                      A                      A                      A
 Frequencies --     12.5764                44.0902                85.5933
 Red. masses --     16.1749                 9.8039                14.4754
 Frc consts  --      0.0015                 0.0112                 0.0625
 IR Inten    --      0.8856                 9.1992                 0.1684

                      4                      5                      6
                      A                      A                      A
 Frequencies --    119.3204               148.1237               160.2898
 Red. masses --      4.3956                 2.4915                11.2465
 Frc consts  --      0.0369                 0.0322                 0.1702
 IR Inten    --     19.7255                59.0485                10.8618

                      7                      8                      9
                      A                      A                      A
 Frequencies --    197.9734               213.5470               237.8608
 Red. masses --     14.6920                15.2187                 7.8694
 Frc consts  --      0.3393                 0.4089                 0.2623
 IR Inten    --      3.9556                 3.3758                 2.4540

                     10                     11                     12
                      A                      A                      A
 Frequencies --    266.0795               295.8273               351.0936
 Red. masses --      8.9060                 4.7492                14.3597
 Frc consts  --      0.3715                 0.2449                 1.0429
 IR Inten    --      9.7218                23.9483                 6.0383

                     13                     14                     15
                      A                      A                      A
 Frequencies --    403.9380               418.6495               480.0068
 Red. masses --     14.7499                10.0689                15.8216
 Frc consts  --      1.4180                 1.0398                 2.1478
 IR Inten    --      8.4670                 2.5218                94.7423

                     16                     17                     18
                      A                      A                      A
 Frequencies --    515.7250               553.1185               594.3538
 Red. masses --     14.7533                16.9708                17.7105
 Frc consts  --      2.3119                 3.0591                 3.6861
 IR Inten    --      7.7452                 8.1407                 8.4162

                     19                     20                     21
                      A                      A                      A
 Frequencies --    629.7899               749.7053               759.9635
 Red. masses --     14.9146                14.8531                17.0995
 Frc consts  --      3.4854                 4.9187                 5.8186
 IR Inten    --     32.5670               134.6311                17.0554

                     22                     23                     24
                      A                      A                      A
 Frequencies --    946.6285              1011.7642              1087.0357
 Red. masses --     12.7135                12.8597                 1.1665
 Frc consts  --      6.7123                 7.7561                 0.8121
 IR Inten    --     92.2583               195.1033               112.9171

                     25                     26                     27
                      A                      A                      A
 Frequencies --   1222.1974              1227.7929              1250.3709
 Red. masses --     13.1951                13.8467                12.6130
 Frc consts  --     11.6130                12.2983                11.6184
 IR Inten    --    327.5280                33.8421               134.9673

                     28                     29                     30
                      A                      A                      A
 Frequencies --   1278.9850              1369.2342              3869.0459
 Red. masses --     13.7704                12.3141                 1.0674
 Frc consts  --     13.2718                13.6021                 9.4144
 IR Inten    --    336.3974               131.8564               181.5179

 - Thermochemistry -
 -------------------
 Temperature   298.150 Kelvin.  Pressure   1.00000 Atm.
 Atom     1 has atomic number  6 and mass  12.00000

 Molecular mass:   199.95666 amu.
 Principal axes and moments of inertia in atomic units:
                           1         2         3
     Eigenvalues --  1412.083951981.945782670.81181
           X            0.88433  -0.32354   0.33658
           Y            0.40315   0.89278  -0.20102
           Z           -0.23545   0.31346   0.91995
 This molecule is an asymmetric top.
 Rotational symmetry number  1.
 Warning -- assumption of classical behavior for rotation
           may cause significant error
 Rotational temperatures (Kelvin)      0.06134     0.04370     0.03243
 Rotational constants (GHZ):           1.27807     0.91059     0.67573
 Zero-point vibrational energy     122621.3 (Joules/Mol)
                                   29.30719 (Kcal/Mol)
 Warning -- explicit consideration of  18 degrees of freedom as
           vibrations may cause significant error
 Vibrational temperatures:     18.09    63.44   123.15   171.68   213.12
          (Kelvin)            230.62   284.84   307.25   342.23   382.83
                              425.63   505.15   581.18   602.34   690.62
                              742.01   795.81   855.14   906.13  1078.66
                             1093.42  1361.99  1455.70  1564.00  1758.47
                             1766.52  1799.00  1840.17  1970.02  5566.69

 Zero-point correction=                           0.046704 (Hartree/Particle)
 Thermal correction to Energy=                    0.058791
 Thermal correction to Enthalpy=                  0.059735
 Thermal correction to Gibbs Free Energy=         0.006228
 Sum of electronic and zero-point Energies=          -1199.550689
 Sum of electronic and thermal Energies=             -1199.538602
 Sum of electronic and thermal Enthalpies=           -1199.537658
 Sum of electronic and thermal Free Energies=        -1199.591165

                     E (Thermal)             CV                S
                      KCal/Mol        Cal/Mol-Kelvin    Cal/Mol-Kelvin
 Total                   36.892             39.978            112.614
 Electronic               0.000              0.000              0.000
 Translational            0.889              2.981             41.783
 Rotational               0.889              2.981             30.392
 Vibrational             35.114             34.017             40.438
 Vibration     1          0.593              1.987              7.556
 Vibration     2          0.595              1.980              5.066
 Vibration     3          0.601              1.959              3.758
 Vibration     4          0.609              1.933              3.111
 Vibration     5          0.617              1.905              2.696
 Vibration     6          0.622              1.891              2.546
 Vibration     7          0.637              1.843              2.152
 Vibration     8          0.644              1.820              2.013
 Vibration     9          0.656              1.783              1.819
 Vibration    10          0.672              1.735              1.622
 Vibration    11          0.690              1.682              1.440
 Vibration    12          0.728              1.573              1.161
 Vibration    13          0.769              1.462              0.948
 Vibration    14          0.782              1.430              0.897
 Vibration    15          0.836              1.294              0.710
 Vibration    16          0.871              1.215              0.620
 Vibration    17          0.908              1.133              0.538
 Vibration    18          0.952              1.044              0.459

 Optimization completed.
    -- Stationary point found.
 Normal termination of Gaussian 16 at Fri May 23 07:44:47 2025.
