 Gaussian 16, Revision C.01,
 Gaussian 16:  ES64L-G16RevC.01  3-Jul-2019

 ----------------------------------------------------------------------
 #P wb97xd/6-311++G(d,p) Symm(None) scf(xqc) pop(None) freq opt(CalcFC,
  Tight)
 ----------------------------------------------------------------------

 ------------------------------
 Gaussian input prepared by ASE
 ------------------------------
 Symbolic Z-matrix:
 Charge =  0 Multiplicity = 1

 SCF Done:  E(RwB97XD) =  -1199.59742193     A.U. after   16 cycles
 SCF Done:  E(RwB97XD) =  -1199.60638413     A.U. after   15 cycles
 SCF Done:  E(RwB97XD) =  -1199.60591107     A.U. after   15 cycles
 SCF Done:  E(RwB97XD) =  -1199.60780228     A.U. after   14 cycles
 SCF Done:  E(RwB97XD) =  -1199.60789748     A.U. after   13 cycles
 SCF Done:  E(RwB97XD) =  -1199.60790600     A.U. after   12 cycles
 SCF Done:  E(RwB97XD) =  -1199.60791109     A.U. after   12 cycles
 SCF Done:  E(RwB97XD) =  -1199.60791143     A.U. after   11 cycles
 SCF Done:  E(RwB97XD) =  -1199.60791148     A.U. after    8 cycles
 SCF Done:  E(RwB97XD) =  -1199.60791149     A.U. after    8 cycles
 SCF Done:  E(RwB97XD) =  -1199.60791149     A.U. after    7 cycles
 Optimization completed.
    -- Stationary point found.
 Normal termination of Gaussian 16 at Fri May 23 05:18:56 2025.

 ----------------------------------------------------------------------
 #P Geom=AllCheck Guess=TCheck SCRF=Check GenChk RwB97XD/6-311++G(d,p)
 Freq
 ----------------------------------------------------------------------

 Structure from the checkpoint file:  "/tmp/Gau-14536.chk"
 ------------------------------
 Gaussian input prepared by ASE
 ------------------------------
 Charge =  0 Multiplicity = 1

                          Input orientation:
 ---------------------------------------------------------------------
 Center     Atomic      Atomic             Coordinates (Angstroms)
 Number     Number       Type             X           Y           Z
 ---------------------------------------------------------------------
      1          6           0        2.587976    0.047587   -2.583466
      2          6           0        2.720334   -0.555776   -1.216779
      3          9           0       -0.570508   -0.939495   -0.070607
      4          9           0        3.059644   -1.854710   -1.231177
      5         16           0        1.832635   -0.105335    0.075227
      6          8           0        0.106275    0.282022   -0.041292
      7          8           0        1.984168   -0.911552    1.248953
      8          8           0        2.111624    1.445679    0.207871
      9          9           0        2.084739    1.284255   -2.531199
     10          9           0        3.781502    0.102895   -3.181423
     11          9           0        1.789603   -0.686192   -3.373388
     12          1           0        1.360484    1.906594    0.612251
 ---------------------------------------------------------------------

 SCF Done:  E(RwB97XD) =  -1199.60791149     A.U. after    1 cycles

 Isotropic polarizability for W=    0.000000       63.63 Bohr**3.
 End of Minotr F.D. properties file   721 does not exist.

                      1                      2                      3
                      A                      A                      A
 Frequencies --     34.9004                45.1350                89.2057
 Red. masses --     17.7673                16.7576                16.4233
 Frc consts  --      0.0128                 0.0201                 0.0770
 IR Inten    --      0.1832                 0.5908                 0.9377

                      4                      5                      6
                      A                      A                      A
 Frequencies --    147.7345               180.8423               197.3036
 Red. masses --     14.8453                11.4298                 9.9959
 Frc consts  --      0.1909                 0.2202                 0.2293
 IR Inten    --      0.1052                 7.7375                 9.4549

                      7                      8                      9
                      A                      A                      A
 Frequencies --    249.8861               261.6929               314.8599
 Red. masses --     16.4008                10.5809                 6.4703
 Frc consts  --      0.6034                 0.4269                 0.3779
 IR Inten    --      0.8112                 9.4282                10.8482

                     10                     11                     12
                      A                      A                      A
 Frequencies --    337.5985               362.9024               384.5470
 Red. masses --     12.9184                 2.4325                 2.6621
 Frc consts  --      0.8675                 0.1887                 0.2319
 IR Inten    --      0.1593                30.9272                57.4519

                     13                     14                     15
                      A                      A                      A
 Frequencies --    444.5870               459.7435               475.7398
 Red. masses --     12.5252                11.8741                14.5292
 Frc consts  --      1.4586                 1.4787                 1.9375
 IR Inten    --     18.3826                37.1054                18.1476

                     16                     17                     18
                      A                      A                      A
 Frequencies --    534.8850               590.7015               596.3010
 Red. masses --     11.9433                15.9989                14.9521
 Frc consts  --      2.0132                 3.2891                 3.1324
 IR Inten    --     59.4965                 9.6439                10.5863

                     19                     20                     21
                      A                      A                      A
 Frequencies --    625.3138               761.1944               872.2244
 Red. masses --      9.5906                15.3361                17.5509
 Frc consts  --      2.2095                 5.2355                 7.8669
 IR Inten    --    242.5149                17.5657               206.4245

                     22                     23                     24
                      A                      A                      A
 Frequencies --   1027.0342              1074.7274              1165.6394
 Red. masses --     16.0432                 6.8161                 3.1025
 Frc consts  --      9.9704                 4.6386                 2.4836
 IR Inten    --     15.7970               135.6852               433.5344

                     25                     26                     27
                      A                      A                      A
 Frequencies --   1174.6692              1207.5674              1274.1995
 Red. masses --      2.0024                12.1178                12.9522
 Frc consts  --      1.6280                10.4111                12.3899
 IR Inten    --     17.7664               322.5244                14.6964

                     28                     29                     30
                      A                      A                      A
 Frequencies --   1342.7729              1362.1215              3779.7559
 Red. masses --     11.9862                17.1754                 1.0657
 Frc consts  --     12.7332                18.7754                 8.9701
 IR Inten    --    447.5300               192.8107               184.8947

 - Thermochemistry -
 -------------------
 Temperature   298.150 Kelvin.  Pressure   1.00000 Atm.
 Atom     1 has atomic number  6 and mass  12.00000

 Molecular mass:   199.95666 amu.
 Principal axes and moments of inertia in atomic units:
                           1         2         3
     Eigenvalues --  1237.508602546.467432612.48107
           X           -0.51820   0.68352   0.51406
           Y           -0.05562  -0.62672   0.77725
           Z            0.85345   0.37418   0.36279
 This molecule is an asymmetric top.
 Rotational symmetry number  1.
 Warning -- assumption of classical behavior for rotation
           may cause significant error
 Rotational temperatures (Kelvin)      0.06999     0.03401     0.03315
 Rotational constants (GHZ):           1.45837     0.70872     0.69082
 Zero-point vibrational energy     127855.6 (Joules/Mol)
                                   30.55822 (Kcal/Mol)
 Warning -- explicit consideration of  18 degrees of freedom as
           vibrations may cause significant error
 Vibrational temperatures:     50.21    64.94   128.35   212.56   260.19
          (Kelvin)            283.88   359.53   376.52   453.01   485.73
                              522.14   553.28   639.66   661.47   684.48
                              769.58   849.89   857.94   899.69  1095.19
                             1254.94  1477.67  1546.29  1677.10  1690.09
                             1737.42  1833.29  1931.95  1959.79  5438.23

 Zero-point correction=                           0.048698 (Hartree/Particle)
 Thermal correction to Energy=                    0.059943
 Thermal correction to Enthalpy=                  0.060887
 Thermal correction to Gibbs Free Energy=         0.010183
 Sum of electronic and zero-point Energies=          -1199.559214
 Sum of electronic and thermal Energies=             -1199.547969
 Sum of electronic and thermal Enthalpies=           -1199.547024
 Sum of electronic and thermal Free Energies=        -1199.597729

                     E (Thermal)             CV                S
                      KCal/Mol        Cal/Mol-Kelvin    Cal/Mol-Kelvin
 Total                   37.615             38.524            106.716
 Electronic               0.000              0.000              0.000
 Translational            0.889              2.981             41.783
 Rotational               0.889              2.981             30.488
 Vibrational             35.837             32.562             34.444
 Vibration     1          0.594              1.983              5.529
 Vibration     2          0.595              1.979              5.020
 Vibration     3          0.602              1.957              3.677
 Vibration     4          0.617              1.905              2.701
 Vibration     5          0.630              1.866              2.320
 Vibration     6          0.637              1.844              2.158
 Vibration     7          0.663              1.763              1.731
 Vibration     8          0.669              1.743              1.650
 Vibration     9          0.702              1.645              1.337
 Vibration    10          0.718              1.600              1.223
 Vibration    11          0.737              1.549              1.110
 Vibration    12          0.753              1.503              1.021
 Vibration    13          0.804              1.373              0.812
 Vibration    14          0.818              1.339              0.767
 Vibration    15          0.832              1.304              0.722
 Vibration    16          0.890              1.173              0.576
 Vibration    17          0.948              1.052              0.466
 Vibration    18          0.954              1.040              0.456

 Optimization completed.
    -- Stationary point found.
 Normal termination of Gaussian 16 at Fri May 23 05:20:21 2025.
