 Gaussian 16, Revision C.01,
 Gaussian 16:  ES64L-G16RevC.01  3-Jul-2019

 ----------------------------------------------------------------------
 #P wb97xd/6-311++G(d,p) Symm(None) scf(xqc) pop(None) opt(NoFreeze,TS,
 CalcAll,NoEigentest,MaxCycle=999)
 ----------------------------------------------------------------------

 ------------------------------
 Gaussian input prepared by ASE
 ------------------------------
 Symbolic Z-matrix:
 Charge =  0 Multiplicity = 1

 SCF Done:  E(RwB97XD) =  -1199.62586769     A.U. after   21 cycles
 SCF Done:  E(RwB97XD) =  -1199.63513155     A.U. after   18 cycles
 SCF Done:  E(RwB97XD) =  -1199.63793986     A.U. after   19 cycles
 SCF Done:  E(RwB97XD) =  -1199.64066246     A.U. after   18 cycles
 SCF Done:  E(RwB97XD) =  -1199.64174294     A.U. after   18 cycles
 SCF Done:  E(RwB97XD) =  -1199.64184027     A.U. after   16 cycles
 SCF Done:  E(RwB97XD) =  -1199.64184130     A.U. after   13 cycles

 Isotropic polarizability for W=    0.000000       69.61 Bohr**3.
 End of Minotr F.D. properties file   721 does not exist.

 Optimization completed.
    -- Stationary point found.

                          Input orientation:
 ---------------------------------------------------------------------
 Center     Atomic      Atomic             Coordinates (Angstroms)
 Number     Number       Type             X           Y           Z
 ---------------------------------------------------------------------
      1          6           0       -0.873900    0.656518   -1.065103
      2          6           0       -0.106265    0.033579    0.131373
      3          9           0       -0.489219    0.650427    1.249762
      4          9           0       -0.428183   -1.266984    0.194020
      5         16           0        1.916622    0.040771   -0.229648
      6          8           0        2.042641   -0.464403    1.224724
      7          8           0        3.483835   -0.181789    0.119983
      8          8           0        1.886020    1.663677   -0.236362
      9          9           0       -0.796624    1.979073   -1.053675
     10          9           0       -0.361326    0.204497   -2.214222
     11          9           0       -2.158605    0.308492   -1.014305
     12          1           0        2.775170    2.001333   -0.072065
 ---------------------------------------------------------------------

 ******    1 imaginary frequencies (negative Signs) ******

                      1                      2                      3
                      A                      A                      A
 Frequencies --   -891.9480                43.2755                74.7247
 Red. masses --     17.6728                12.4214                16.0739
 Frc consts  --      8.2839                 0.0137                 0.0529
 IR Inten    --    481.0257                 0.8472                 0.4158

                      4                      5                      6
                      A                      A                      A
 Frequencies --    124.2763               151.8513               194.4839
 Red. masses --     13.5013                13.1540                 7.2315
 Frc consts  --      0.1229                 0.1787                 0.1612
 IR Inten    --      1.4212                 1.0420                 9.3837

                      7                      8                      9
                      A                      A                      A
 Frequencies --    221.5082               233.4440               280.6582
 Red. masses --     16.3868                18.0962                17.5105
 Frc consts  --      0.4737                 0.5810                 0.8127
 IR Inten    --      2.1340                 2.0770                 1.7802

                     10                     11                     12
                      A                      A                      A
 Frequencies --    301.7744               329.9691               366.3469
 Red. masses --      9.1813                 1.3061                16.0266
 Frc consts  --      0.4926                 0.0838                 1.2673
 IR Inten    --      3.9446               105.5354                 6.8861

                     13                     14                     15
                      A                      A                      A
 Frequencies --    369.2404               432.3778               456.9791
 Red. masses --     12.8769                 6.7367                16.6119
 Frc consts  --      1.0344                 0.7420                 2.0439
 IR Inten    --      7.0560                36.1132                 2.9673

                     16                     17                     18
                      A                      A                      A
 Frequencies --    537.9031               594.2667               621.3055
 Red. masses --     17.5764                17.8826                16.9465
 Frc consts  --      2.9963                 3.7209                 3.8542
 IR Inten    --      2.7094                 1.3583                11.5167

                     19                     20                     21
                      A                      A                      A
 Frequencies --    682.2759               747.9873               805.8859
 Red. masses --     16.8567                16.6499                17.4594
 Frc consts  --      4.6232                 5.4885                 6.6808
 IR Inten    --    102.0990                36.7395               137.8072

                     22                     23                     24
                      A                      A                      A
 Frequencies --    919.2962              1012.8319              1118.8450
 Red. masses --     13.5634                14.6039                 3.5780
 Frc consts  --      6.7535                 8.8266                 2.6389
 IR Inten    --    167.8923                35.2657               201.5682

                     25                     26                     27
                      A                      A                      A
 Frequencies --   1140.4996              1208.4372              1213.7843
 Red. masses --      1.6611                11.0368                 9.8776
 Frc consts  --      1.2730                 9.4960                 8.5740
 IR Inten    --     91.2308                82.1637               237.8110

                     28                     29                     30
                      A                      A                      A
 Frequencies --   1243.7397              1314.3705              3842.3890
 Red. masses --     12.6941                12.2585                 1.0662
 Frc consts  --     11.5695                12.4774                 9.2748
 IR Inten    --    342.5402               347.9278               155.1414

 - Thermochemistry -
 -------------------
 Temperature   298.150 Kelvin.  Pressure   1.00000 Atm.
 Atom     1 has atomic number  6 and mass  12.00000

 Molecular mass:   199.95666 amu.
 Principal axes and moments of inertia in atomic units:
                           1         2         3
     Eigenvalues --  1056.909982436.984902685.01837
           X            0.93908   0.32070  -0.12358
           Y           -0.13408   0.67293   0.72745
           Z            0.31645  -0.66657   0.67494
 This molecule is an asymmetric top.
 Rotational symmetry number  1.
 Warning -- assumption of classical behavior for rotation
           may cause significant error
 Rotational temperatures (Kelvin)      0.08195     0.03554     0.03226
 Rotational constants (GHZ):           1.70756     0.74056     0.67215
    1 imaginary frequencies ignored.
 Zero-point vibrational energy     123124.0 (Joules/Mol)
                                   29.42735 (Kcal/Mol)
 Warning -- explicit consideration of  16 degrees of freedom as
           vibrations may cause significant error
 Vibrational temperatures:     62.26   107.51   178.81   218.48   279.82
          (Kelvin)            318.70   335.87   403.80   434.19   474.75
                              527.09   531.25   622.10   657.49   773.92
                              855.02   893.92   981.64  1076.19  1159.49
                             1322.66  1457.24  1609.77  1640.92  1738.67
                             1746.36  1789.46  1891.09  5528.34

 Zero-point correction=                           0.046895 (Hartree/Particle)
 Thermal correction to Energy=                    0.057753
 Thermal correction to Enthalpy=                  0.058697
 Thermal correction to Gibbs Free Energy=         0.009479
 Sum of electronic and zero-point Energies=          -1199.594946
 Sum of electronic and thermal Energies=             -1199.584088
 Sum of electronic and thermal Enthalpies=           -1199.583144
 Sum of electronic and thermal Free Energies=        -1199.632363

                     E (Thermal)             CV                S
                      KCal/Mol        Cal/Mol-Kelvin    Cal/Mol-Kelvin
 Total                   36.241             37.505            103.589
 Electronic               0.000              0.000              0.000
 Translational            0.889              2.981             41.783
 Rotational               0.889              2.981             30.315
 Vibrational             34.463             31.544             31.490
 Vibration     1          0.595              1.980              5.103
 Vibration     2          0.599              1.966              4.025
 Vibration     3          0.610              1.929              3.033
 Vibration     4          0.619              1.901              2.649
 Vibration     5          0.635              1.848              2.185
 Vibration     6          0.648              1.808              1.947
 Vibration     7          0.654              1.790              1.852
 Vibration     8          0.680              1.709              1.530
 Vibration     9          0.694              1.670              1.407
 Vibration    10          0.713              1.616              1.260
 Vibration    11          0.739              1.541              1.095
 Vibration    12          0.742              1.535              1.083
 Vibration    13          0.793              1.400              0.851
 Vibration    14          0.815              1.345              0.775
 Vibration    15          0.893              1.166              0.570
 Vibration    16          0.952              1.044              0.460

 Normal termination of Gaussian 16 at Fri May 23 04:45:18 2025.
