 Gaussian 16, Revision C.01,
 Gaussian 16:  ES64L-G16RevC.01  3-Jul-2019

 ----------------------------------------------------------------------
 #P wb97xd/6-311++G(d,p) Symm(None) scf(xqc) pop(None) opt(NoFreeze,TS,
 CalcAll,NoEigentest,MaxCycle=999)
 ----------------------------------------------------------------------

 ------------------------------
 Gaussian input prepared by ASE
 ------------------------------
 Symbolic Z-matrix:
 Charge =  0 Multiplicity = 1

 SCF Done:  E(RwB97XD) =  -1199.66266041     A.U. after   17 cycles
 SCF Done:  E(RwB97XD) =  -1199.66738106     A.U. after   16 cycles
 SCF Done:  E(RwB97XD) =  -1199.66925678     A.U. after   16 cycles
 SCF Done:  E(RwB97XD) =  -1199.67112282     A.U. after   16 cycles
 SCF Done:  E(RwB97XD) =  -1199.67290980     A.U. after   16 cycles
 SCF Done:  E(RwB97XD) =  -1199.67361975     A.U. after   16 cycles
 SCF Done:  E(RwB97XD) =  -1199.67403915     A.U. after   17 cycles
 SCF Done:  E(RwB97XD) =  -1199.67445977     A.U. after   14 cycles
 SCF Done:  E(RwB97XD) =  -1199.67451992     A.U. after   14 cycles
 SCF Done:  E(RwB97XD) =  -1199.67453262     A.U. after   13 cycles
 SCF Done:  E(RwB97XD) =  -1199.67453274     A.U. after   10 cycles

 Isotropic polarizability for W=    0.000000       70.59 Bohr**3.
 End of Minotr F.D. properties file   721 does not exist.

 Optimization completed.
    -- Stationary point found.

                          Input orientation:
 ---------------------------------------------------------------------
 Center     Atomic      Atomic             Coordinates (Angstroms)
 Number     Number       Type             X           Y           Z
 ---------------------------------------------------------------------
      1          6           0       -0.111676    1.207701    0.682725
      2          6           0        0.020917   -0.123757    0.221098
      3          9           0       -0.271550   -1.055493    1.113403
      4          9           0       -0.498001   -0.384877   -0.970703
      5         16           0        2.296197   -0.186304   -0.124042
      6          8           0        2.242903   -1.542622    0.353184
      7          8           0        2.143444    0.264525   -1.482467
      8          8           0        3.775234    0.226346    0.353762
      9          9           0        1.837887    1.432462    0.918263
     10          9           0       -0.271514    2.171708   -0.138335
     11          9           0       -0.353309    1.491504    1.905620
     12          1           0        3.872604    1.185903    0.296942
 ---------------------------------------------------------------------

 ******    1 imaginary frequencies (negative Signs) ******

                      1                      2                      3
                      A                      A                      A
 Frequencies --   -644.2827                36.4697                76.8029
 Red. masses --     14.0688                14.3812                 8.3018
 Frc consts  --      3.4408                 0.0113                 0.0289
 IR Inten    --    190.6873                 0.9522                 8.7972

                      4                      5                      6
                      A                      A                      A
 Frequencies --    169.3295               190.5645               197.5226
 Red. masses --     12.7931                12.3192                12.1236
 Frc consts  --      0.2161                 0.2636                 0.2787
 IR Inten    --     19.0142                 5.0641                 3.6542

                      7                      8                      9
                      A                      A                      A
 Frequencies --    214.8957               239.5651               276.9602
 Red. masses --     18.1111                 3.9012                 7.5179
 Frc consts  --      0.4928                 0.1319                 0.3398
 IR Inten    --      4.8852                15.6845                 6.6942

                     10                     11                     12
                      A                      A                      A
 Frequencies --    303.1099               328.5738               370.3046
 Red. masses --     13.7067                14.1141                11.0414
 Frc consts  --      0.7420                 0.8978                 0.8921
 IR Inten    --     12.1991                14.0128                64.4922

                     13                     14                     15
                      A                      A                      A
 Frequencies --    423.5193               436.8800               488.4444
 Red. masses --      3.8383                 3.9851                 6.8585
 Frc consts  --      0.4056                 0.4481                 0.9641
 IR Inten    --    161.5742                74.4707                36.3524

                     16                     17                     18
                      A                      A                      A
 Frequencies --    520.8509               545.5804               555.8405
 Red. masses --     10.3365                14.6005                15.0968
 Frc consts  --      1.6522                 2.5606                 2.7481
 IR Inten    --    115.5143               162.6713                95.8648

                     19                     20                     21
                      A                      A                      A
 Frequencies --    600.7740               679.8336               782.1645
 Red. masses --     16.9968                12.2491                15.9106
 Frc consts  --      3.6144                 3.3355                 5.7350
 IR Inten    --      8.9431                14.4599               222.3348

                     22                     23                     24
                      A                      A                      A
 Frequencies --    821.8005              1133.9712              1198.9951
 Red. masses --     17.0435                10.0637                 2.7810
 Frc consts  --      6.7817                 7.6245                 2.3555
 IR Inten    --    196.3946                73.6858               258.9453

                     25                     26                     27
                      A                      A                      A
 Frequencies --   1205.7148              1293.7887              1400.1660
 Red. masses --      1.9684                13.1100                13.2076
 Frc consts  --      1.6859                12.9294                15.2557
 IR Inten    --    180.6299               123.0841               195.1857

                     28                     29                     30
                      A                      A                      A
 Frequencies --   1457.9353              1558.9130              3830.3618
 Red. masses --     13.2551                12.5218                 1.0659
 Frc consts  --     16.6000                17.9293                 9.2136
 IR Inten    --    344.7257               704.0548               134.5635

 - Thermochemistry -
 -------------------
 Temperature   298.150 Kelvin.  Pressure   1.00000 Atm.
 Atom     1 has atomic number  6 and mass  12.00000

 Molecular mass:   199.95666 amu.
 Principal axes and moments of inertia in atomic units:
                           1         2         3
     Eigenvalues --  1275.924772105.503792372.99685
           X            0.91144   0.39716   0.10746
           Y           -0.34703   0.88239  -0.31774
           Z           -0.22101   0.25231   0.94207
 This molecule is an asymmetric top.
 Rotational symmetry number  1.
 Warning -- assumption of classical behavior for rotation
           may cause significant error
 Rotational temperatures (Kelvin)      0.06788     0.04114     0.03650
 Rotational constants (GHZ):           1.41446     0.85715     0.76053
    1 imaginary frequencies ignored.
 Zero-point vibrational energy     127639.3 (Joules/Mol)
                                   30.50654 (Kcal/Mol)
 Warning -- explicit consideration of  18 degrees of freedom as
           vibrations may cause significant error
 Vibrational temperatures:     52.47   110.50   243.63   274.18   284.19
          (Kelvin)            309.19   344.68   398.48   436.11   472.74
                              532.79   609.35   628.57   702.76   749.39
                              784.97   799.73   864.38   978.13  1125.36
                             1182.39  1631.53  1725.09  1734.75  1861.47
                             2014.53  2097.64  2242.93  5511.04

 Zero-point correction=                           0.048615 (Hartree/Particle)
 Thermal correction to Energy=                    0.059375
 Thermal correction to Enthalpy=                  0.060319
 Thermal correction to Gibbs Free Energy=         0.011451
 Sum of electronic and zero-point Energies=          -1199.625917
 Sum of electronic and thermal Energies=             -1199.615158
 Sum of electronic and thermal Enthalpies=           -1199.614213
 Sum of electronic and thermal Free Energies=        -1199.663082

                     E (Thermal)             CV                S
                      KCal/Mol        Cal/Mol-Kelvin    Cal/Mol-Kelvin
 Total                   37.258             37.441            102.852
 Electronic               0.000              0.000              0.000
 Translational            0.889              2.981             41.783
 Rotational               0.889              2.981             30.234
 Vibrational             35.481             31.479             30.835
 Vibration     1          0.594              1.982              5.442
 Vibration     2          0.599              1.965              3.971
 Vibration     3          0.625              1.880              2.443
 Vibration     4          0.634              1.853              2.222
 Vibration     5          0.637              1.843              2.156
 Vibration     6          0.645              1.818              2.002
 Vibration     7          0.657              1.780              1.806
 Vibration     8          0.678              1.716              1.552
 Vibration     9          0.695              1.668              1.400
 Vibration    10          0.712              1.618              1.267
 Vibration    11          0.742              1.533              1.079
 Vibration    12          0.786              1.419              0.880
 Vibration    13          0.797              1.390              0.836
 Vibration    14          0.844              1.276              0.688
 Vibration    15          0.876              1.204              0.608
 Vibration    16          0.901              1.149              0.553
 Vibration    17          0.911              1.127              0.532
 Vibration    18          0.959              1.030              0.448

 Normal termination of Gaussian 16 at Fri May 23 05:16:47 2025.
