 Gaussian 16, Revision C.01,
 Gaussian 16:  ES64L-G16RevC.01  3-Jul-2019

 ------------------------------------------
 #P am1 Symm(None) scf(xqc) pop(None) force
 ------------------------------------------

 ------------------------------
 Gaussian input prepared by ASE
 ------------------------------
 Symbolic Z-matrix:
 Charge =  0 Multiplicity = 1

                          Input orientation:
 ---------------------------------------------------------------------
 Center     Atomic      Atomic             Coordinates (Angstroms)
 Number     Number       Type             X           Y           Z
 ---------------------------------------------------------------------
      1          6           0       -0.965914    0.354808    1.355170
      2          6           0       -0.016335    0.378925    0.126325
      3          9           0        0.777130   -0.705959    0.038331
      4          9           0       -0.678299    0.398940   -1.041359
      5         16           0        2.324572   -0.001166   -0.038880
      6          8           0        2.811932   -0.514714    1.195903
      7          8           0        2.703712   -0.507079   -1.314521
      8          8           0        2.063312    1.487704   -0.016167
      9          9           0       -1.958078   -0.520420    1.280084
     10          9           0       -0.317984    0.085664    2.486992
     11          9           0       -1.533167    1.550242    1.530165
     12          1           0        0.839542    1.591094    0.216251
 ---------------------------------------------------------------------

 SCF Done:  E(RAM1) =  0.887924010293     A.U. after   15 cycles
 Normal termination of Gaussian 16 at Fri May 23 04:47:59 2025.
