 Gaussian 16, Revision C.01,
 Gaussian 16:  ES64L-G16RevC.01  3-Jul-2019

 ----------------------------------------------------------------------
 #P wb97xd/6-311++G(d,p) Symm(None) scf(xqc) pop(None) freq opt(CalcFC,
  Tight)
 ----------------------------------------------------------------------

 ------------------------------
 Gaussian input prepared by ASE
 ------------------------------
 Symbolic Z-matrix:
 Charge =  0 Multiplicity = 1

 SCF Done:  E(RwB97XD) =  -1199.82665112     A.U. after   14 cycles
 SCF Done:  E(RwB97XD) =  -1199.83197823     A.U. after   13 cycles
 SCF Done:  E(RwB97XD) =  -1199.83225747     A.U. after   13 cycles
 SCF Done:  E(RwB97XD) =  -1199.83233302     A.U. after   12 cycles
 SCF Done:  E(RwB97XD) =  -1199.83236431     A.U. after   12 cycles
 SCF Done:  E(RwB97XD) =  -1199.83236716     A.U. after   10 cycles
 SCF Done:  E(RwB97XD) =  -1199.83236767     A.U. after   10 cycles
 SCF Done:  E(RwB97XD) =  -1199.83236767     A.U. after    7 cycles
 SCF Done:  E(RwB97XD) =  -1199.83236767     A.U. after    4 cycles
 Optimization completed.
    -- Stationary point found.
 Normal termination of Gaussian 16 at Fri May 23 04:29:50 2025.

 ----------------------------------------------------------------------
 #P Geom=AllCheck Guess=TCheck SCRF=Check GenChk RwB97XD/6-311++G(d,p)
 Freq
 ----------------------------------------------------------------------

 Structure from the checkpoint file:  "/tmp/Gau-19305.chk"
 ------------------------------
 Gaussian input prepared by ASE
 ------------------------------
 Charge =  0 Multiplicity = 1

                          Input orientation:
 ---------------------------------------------------------------------
 Center     Atomic      Atomic             Coordinates (Angstroms)
 Number     Number       Type             X           Y           Z
 ---------------------------------------------------------------------
      1          6           0        0.032227    0.050804    0.006623
      2          6           0        1.586119    0.025355   -0.033415
      3          9           0        3.795723   -0.335980    1.225883
      4          9           0        1.977893   -0.733992   -1.082792
      5         16           0        2.274996   -0.878193    1.488148
      6          8           0        2.313409   -2.289290    1.295696
      7          8           0        1.823897   -0.240153    2.681974
      8          8           0        2.036319    1.283201   -0.093739
      9          9           0       -0.431199   -1.173386    0.251759
     10          9           0       -0.403610    0.873393    0.946578
     11          9           0       -0.424539    0.454424   -1.171624
     12          1           0        3.000636    1.303967   -0.102821
 ---------------------------------------------------------------------

 SCF Done:  E(RwB97XD) =  -1199.83236767     A.U. after    1 cycles

 Isotropic polarizability for W=    0.000000       56.16 Bohr**3.
 End of Minotr F.D. properties file   721 does not exist.

                      1                      2                      3
                      A                      A                      A
 Frequencies --     39.4490                66.5670               133.8258
 Red. masses --     17.5788                15.5966                17.1106
 Frc consts  --      0.0161                 0.0407                 0.1805
 IR Inten    --      0.0783                 0.2359                 1.8015

                      4                      5                      6
                      A                      A                      A
 Frequencies --    198.8457               226.0549               241.5572
 Red. masses --     15.1697                16.4988                14.0684
 Frc consts  --      0.3534                 0.4967                 0.4837
 IR Inten    --      1.9211                 1.4019                 1.7691

                      7                      8                      9
                      A                      A                      A
 Frequencies --    268.5734               311.7444               322.7746
 Red. masses --     15.6986                12.9164                 5.2470
 Frc consts  --      0.6672                 0.7396                 0.3221
 IR Inten    --     11.6319                 3.9379                16.2291

                     10                     11                     12
                      A                      A                      A
 Frequencies --    365.8241               404.9300               427.5278
 Red. masses --      3.8750                 3.8540                 2.3792
 Frc consts  --      0.3055                 0.3723                 0.2562
 IR Inten    --     25.3260                21.3867                77.1254

                     13                     14                     15
                      A                      A                      A
 Frequencies --    458.3355               486.9731               544.8402
 Red. masses --     17.6157                16.8960                13.3412
 Frc consts  --      2.1803                 2.3607                 2.3334
 IR Inten    --      8.5525                 3.3197                62.7853

                     16                     17                     18
                      A                      A                      A
 Frequencies --    598.0721               601.0113               655.4926
 Red. masses --     20.0467                16.9663                 8.9746
 Frc consts  --      4.2247                 3.6108                 2.2720
 IR Inten    --     80.3410                11.0091               138.9577

                     19                     20                     21
                      A                      A                      A
 Frequencies --    698.6024               772.0875               940.1233
 Red. masses --     15.8259                17.3316                 5.7461
 Frc consts  --      4.5507                 6.0873                 2.9922
 IR Inten    --    163.3262                 1.4433                28.1531

                     22                     23                     24
                      A                      A                      A
 Frequencies --   1093.7755              1210.2996              1232.2200
 Red. masses --      7.6104                 8.8997                 5.3089
 Frc consts  --      5.3643                 7.6809                 4.7493
 IR Inten    --    234.2804                46.4375               399.7504

                     25                     26                     27
                      A                      A                      A
 Frequencies --   1250.4136              1257.8331              1289.3490
 Red. masses --      8.1477                10.6699                 4.5761
 Frc consts  --      7.5057                 9.9462                 4.4822
 IR Inten    --    277.8882               198.2175                93.7580

                     28                     29                     30
                      A                      A                      A
 Frequencies --   1435.1411              1457.8879              3844.0658
 Red. masses --      2.9011                20.2494                 1.0657
 Frc consts  --      3.5205                25.3577                 9.2786
 IR Inten    --     26.8403               293.8443               130.4784

 - Thermochemistry -
 -------------------
 Temperature   298.150 Kelvin.  Pressure   1.00000 Atm.
 Atom     1 has atomic number  6 and mass  12.00000

 Molecular mass:   199.95666 amu.
 Principal axes and moments of inertia in atomic units:
                           1         2         3
     Eigenvalues --  1138.055122207.564672339.19714
           X            0.81528  -0.57712   0.04741
           Y           -0.29481  -0.34321   0.89179
           Z            0.49840   0.74104   0.44995
 This molecule is an asymmetric top.
 Rotational symmetry number  1.
 Warning -- assumption of classical behavior for rotation
           may cause significant error
 Rotational temperatures (Kelvin)      0.07611     0.03924     0.03703
 Rotational constants (GHZ):           1.58581     0.81753     0.77152
 Zero-point vibrational energy     136578.8 (Joules/Mol)
                                   32.64312 (Kcal/Mol)
 Warning -- explicit consideration of  17 degrees of freedom as
           vibrations may cause significant error
 Vibrational temperatures:     56.76    95.78   192.55   286.09   325.24
          (Kelvin)            347.55   386.42   448.53   464.40   526.34
                              582.60   615.12   659.44   700.65   783.90
                              860.49   864.72   943.11  1005.13  1110.86
                             1352.63  1573.70  1741.35  1772.89  1799.07
                             1809.74  1855.09  2064.85  2097.58  5530.75

 Zero-point correction=                           0.052020 (Hartree/Particle)
 Thermal correction to Energy=                    0.062445
 Thermal correction to Enthalpy=                  0.063390
 Thermal correction to Gibbs Free Energy=         0.015127
 Sum of electronic and zero-point Energies=          -1199.780348
 Sum of electronic and thermal Energies=             -1199.769922
 Sum of electronic and thermal Enthalpies=           -1199.768978
 Sum of electronic and thermal Free Energies=        -1199.817241

                     E (Thermal)             CV                S
                      KCal/Mol        Cal/Mol-Kelvin    Cal/Mol-Kelvin
 Total                   39.185             36.755            101.578
 Electronic               0.000              0.000              0.000
 Translational            0.889              2.981             41.783
 Rotational               0.889              2.981             30.153
 Vibrational             37.408             30.793             29.641
 Vibration     1          0.594              1.981              5.287
 Vibration     2          0.598              1.970              4.252
 Vibration     3          0.613              1.920              2.890
 Vibration     4          0.637              1.841              2.144
 Vibration     5          0.650              1.801              1.910
 Vibration     6          0.658              1.777              1.791
 Vibration     7          0.673              1.731              1.605
 Vibration     8          0.700              1.651              1.353
 Vibration     9          0.708              1.630              1.296
 Vibration    10          0.739              1.543              1.097
 Vibration    11          0.770              1.459              0.945
 Vibration    12          0.789              1.410              0.867
 Vibration    13          0.816              1.342              0.771
 Vibration    14          0.843              1.279              0.692
 Vibration    15          0.900              1.151              0.555
 Vibration    16          0.956              1.036              0.453
 Vibration    17          0.959              1.030              0.448

 Optimization completed.
    -- Stationary point found.
 Normal termination of Gaussian 16 at Fri May 23 04:31:55 2025.
