 Gaussian 16, Revision C.01,
 Gaussian 16:  ES64L-G16RevC.01  3-Jul-2019

 ----------------------------------------------------------------------
 #P wb97xd/6-311++G(d,p) Symm(None) scf(xqc) pop(None) opt(NoFreeze,TS,
 CalcAll,NoEigentest,MaxCycle=999)
 ----------------------------------------------------------------------

 ------------------------------
 Gaussian input prepared by ASE
 ------------------------------
 Symbolic Z-matrix:
 Charge =  0 Multiplicity = 1

 SCF Done:  E(RwB97XD) =  -1199.65753854     A.U. after   17 cycles
 SCF Done:  E(RwB97XD) =  -1199.65753873     A.U. after   10 cycles

 Isotropic polarizability for W=    0.000000       62.41 Bohr**3.
 End of Minotr F.D. properties file   721 does not exist.

 Optimization completed.
    -- Stationary point found.

                          Input orientation:
 ---------------------------------------------------------------------
 Center     Atomic      Atomic             Coordinates (Angstroms)
 Number     Number       Type             X           Y           Z
 ---------------------------------------------------------------------
      1          6           0       -0.076093   -0.779516    1.349315
      2          6           0       -0.000093   -0.000056    0.000092
      3          9           0       -0.628617   -0.558982   -1.002668
      4          9           0       -0.507864    1.218515    0.185849
      5         16           0        1.870219   -0.000151   -0.000047
      6          8           0        1.948293   -0.266888    1.463489
      7          8           0        2.741070   -0.411023   -1.064584
      8          8           0        2.055573    1.621579   -0.000758
      9          9           0        1.120424   -1.920080    0.033750
     10          9           0       -0.244703   -0.066408    2.403734
     11          9           0       -0.662361   -1.890849    1.500783
     12          1           0        2.599362    1.865827   -0.758359
 ---------------------------------------------------------------------

 ******    1 imaginary frequencies (negative Signs) ******

                      1                      2                      3
                      A                      A                      A
 Frequencies --   -357.4050               111.6132               171.9962
 Red. masses --     15.8000                12.7573                12.5092
 Frc consts  --      1.1891                 0.0936                 0.2180
 IR Inten    --     14.2063                14.6307                89.7473

                      4                      5                      6
                      A                      A                      A
 Frequencies --    184.2051               198.0991               242.1713
 Red. masses --     14.0989                16.3275                15.9526
 Frc consts  --      0.2819                 0.3775                 0.5512
 IR Inten    --      8.4306               114.5061                 4.7195

                      7                      8                      9
                      A                      A                      A
 Frequencies --    270.5105               290.1047               313.9178
 Red. masses --     14.5654                18.2337                13.6374
 Frc consts  --      0.6280                 0.9041                 0.7918
 IR Inten    --     25.3839                 5.8824                41.4231

                     10                     11                     12
                      A                      A                      A
 Frequencies --    334.2024               377.7863               398.6750
 Red. masses --      1.4049                 7.2269                14.5703
 Frc consts  --      0.0925                 0.6077                 1.3644
 IR Inten    --     89.3992                19.3426                37.2296

                     13                     14                     15
                      A                      A                      A
 Frequencies --    411.6216               478.9903               510.2770
 Red. masses --     15.0442                 4.9551                12.5167
 Frc consts  --      1.5018                 0.6698                 1.9202
 IR Inten    --     43.2153                14.5017                15.8221

                     16                     17                     18
                      A                      A                      A
 Frequencies --    537.8883               568.2723               626.1670
 Red. masses --     14.5429                16.4426                14.7850
 Frc consts  --      2.4791                 3.1285                 3.4155
 IR Inten    --     29.2502               179.0127                 7.2589

                     19                     20                     21
                      A                      A                      A
 Frequencies --    670.0484               754.1158               769.3654
 Red. masses --     15.4994                14.8873                17.8875
 Frc consts  --      4.0999                 4.9882                 6.2383
 IR Inten    --     53.2681                48.1898               227.3464

                     22                     23                     24
                      A                      A                      A
 Frequencies --    955.0810              1070.3298              1140.3635
 Red. masses --     13.3683                16.5191                 1.5840
 Frc consts  --      7.1847                11.1499                 1.2136
 IR Inten    --     54.7003               220.3647               152.7077

                     25                     26                     27
                      A                      A                      A
 Frequencies --   1146.6050              1277.4085              1347.5355
 Red. masses --      4.2352                12.6410                13.2075
 Frc consts  --      3.2806                12.1532                14.1302
 IR Inten    --     58.6989               287.7908               284.6049

                     28                     29                     30
                      A                      A                      A
 Frequencies --   1354.0865              1450.3592              3859.8467
 Red. masses --      9.3657                13.2934                 1.0664
 Frc consts  --     10.1178                16.4754                 9.3611
 IR Inten    --    335.2000               308.8343               166.4276

 - Thermochemistry -
 -------------------
 Temperature   298.150 Kelvin.  Pressure   1.00000 Atm.
 Atom     1 has atomic number  6 and mass  12.00000

 Molecular mass:   199.95666 amu.
 Principal axes and moments of inertia in atomic units:
                           1         2         3
     Eigenvalues --  1256.154591913.083232019.05562
           X            0.78907  -0.34557   0.50788
           Y            0.36124   0.92974   0.07137
           Z           -0.49686   0.12715   0.85846
 This molecule is an asymmetric top.
 Rotational symmetry number  1.
 Warning -- assumption of classical behavior for rotation
           may cause significant error
 Rotational temperatures (Kelvin)      0.06895     0.04527     0.04290
 Rotational constants (GHZ):           1.43672     0.94337     0.89385
    1 imaginary frequencies ignored.
 Zero-point vibrational energy     130522.4 (Joules/Mol)
                                   31.19561 (Kcal/Mol)
 Warning -- explicit consideration of  16 degrees of freedom as
           vibrations may cause significant error
 Vibrational temperatures:    160.59   247.46   265.03   285.02   348.43
          (Kelvin)            389.20   417.40   451.66   480.84   543.55
                              573.60   592.23   689.16   734.17   773.90
                              817.62   900.91   964.05  1085.00  1106.95
                             1374.15  1539.97  1640.73  1649.71  1837.91
                             1938.80  1948.23  2086.74  5553.46

 Zero-point correction=                           0.049713 (Hartree/Particle)
 Thermal correction to Energy=                    0.059560
 Thermal correction to Enthalpy=                  0.060504
 Thermal correction to Gibbs Free Energy=         0.014778
 Sum of electronic and zero-point Energies=          -1199.607825
 Sum of electronic and thermal Energies=             -1199.597979
 Sum of electronic and thermal Enthalpies=           -1199.597035
 Sum of electronic and thermal Free Energies=        -1199.642760

                     E (Thermal)             CV                S
                      KCal/Mol        Cal/Mol-Kelvin    Cal/Mol-Kelvin
 Total                   37.374             36.177             96.238
 Electronic               0.000              0.000              0.000
 Translational            0.889              2.981             41.783
 Rotational               0.889              2.981             29.963
 Vibrational             35.597             30.216             24.492
 Vibration     1          0.607              1.940              3.241
 Vibration     2          0.626              1.877              2.414
 Vibration     3          0.631              1.861              2.285
 Vibration     4          0.637              1.843              2.151
 Vibration     5          0.658              1.776              1.787
 Vibration     6          0.674              1.728              1.593
 Vibration     7          0.686              1.692              1.473
 Vibration     8          0.702              1.647              1.342
 Vibration     9          0.716              1.607              1.240
 Vibration    10          0.748              1.517              1.048
 Vibration    11          0.765              1.473              0.968
 Vibration    12          0.776              1.445              0.921
 Vibration    13          0.835              1.297              0.713
 Vibration    14          0.865              1.227              0.633
 Vibration    15          0.893              1.166              0.570
 Vibration    16          0.924              1.100              0.508

 Normal termination of Gaussian 16 at Fri May 23 04:48:45 2025.
