 Gaussian 16, Revision C.01,
 Gaussian 16:  ES64L-G16RevC.01  3-Jul-2019

 ----------------------------------------------------------------------
 #P wb97xd/6-311++G(d,p) Symm(None) scf(xqc) pop(None) freq opt(CalcFC,
  Tight)
 ----------------------------------------------------------------------

 ------------------------------
 Gaussian input prepared by ASE
 ------------------------------
 Symbolic Z-matrix:
 Charge =  0 Multiplicity = 1

 SCF Done:  E(RwB97XD) =  -1199.82058478     A.U. after   14 cycles
 SCF Done:  E(RwB97XD) =  -1199.82508709     A.U. after   13 cycles
 SCF Done:  E(RwB97XD) =  -1199.82052148     A.U. after   14 cycles
 SCF Done:  E(RwB97XD) =  -1199.82581920     A.U. after   12 cycles
 SCF Done:  E(RwB97XD) =  -1199.82587706     A.U. after   11 cycles
 SCF Done:  E(RwB97XD) =  -1199.82587766     A.U. after   10 cycles
 SCF Done:  E(RwB97XD) =  -1199.82588127     A.U. after   10 cycles
 SCF Done:  E(RwB97XD) =  -1199.82588129     A.U. after    9 cycles
 SCF Done:  E(RwB97XD) =  -1199.82588134     A.U. after    8 cycles
 SCF Done:  E(RwB97XD) =  -1199.82588135     A.U. after    6 cycles
 Optimization completed.
    -- Stationary point found.
 Normal termination of Gaussian 16 at Fri May 23 01:56:12 2025.

 ----------------------------------------------------------------------
 #P Geom=AllCheck Guess=TCheck SCRF=Check GenChk RwB97XD/6-311++G(d,p)
 Freq
 ----------------------------------------------------------------------

 Structure from the checkpoint file:  "/tmp/Gau-299378.chk"
 ------------------------------
 Gaussian input prepared by ASE
 ------------------------------
 Charge =  0 Multiplicity = 1

                          Input orientation:
 ---------------------------------------------------------------------
 Center     Atomic      Atomic             Coordinates (Angstroms)
 Number     Number       Type             X           Y           Z
 ---------------------------------------------------------------------
      1          6           0       -0.570197    0.324214    1.370551
      2          6           0        0.034494    0.002238   -0.026900
      3          9           0       -0.407309   -1.190584   -0.424030
      4          9           0       -0.356413    0.934149   -0.894922
      5         16           0        1.910732   -0.073883   -0.056910
      6          8           0        2.336009   -0.726002    1.150547
      7          8           0        2.269793   -0.510776   -1.367096
      8          8           0        2.267562    1.484385    0.024501
      9          9           0       -0.434171   -0.699185    2.193522
     10          9           0        0.046038    1.391247    1.897533
     11          9           0       -1.858716    0.608098    1.238415
     12          1           0        2.340584    1.766053    0.946073
 ---------------------------------------------------------------------

 SCF Done:  E(RwB97XD) =  -1199.82588135     A.U. after    1 cycles

 Isotropic polarizability for W=    0.000000       55.69 Bohr**3.
 End of Minotr F.D. properties file   721 does not exist.

                      1                      2                      3
                      A                      A                      A
 Frequencies --     56.2640                67.8432               142.6665
 Red. masses --     12.7434                16.6519                15.5230
 Frc consts  --      0.0238                 0.0452                 0.1862
 IR Inten    --      1.6487                 0.5910                 1.4303

                      4                      5                      6
                      A                      A                      A
 Frequencies --    201.0181               225.5709               239.8996
 Red. masses --     14.3236                17.5148                11.9767
 Frc consts  --      0.3410                 0.5251                 0.4061
 IR Inten    --      3.8325                 1.8392                 1.6916

                      7                      8                      9
                      A                      A                      A
 Frequencies --    277.3193               308.7565               318.3642
 Red. masses --     17.6202                13.5702                10.6954
 Frc consts  --      0.7984                 0.7622                 0.6387
 IR Inten    --      4.2143                 2.1418                 5.7582

                     10                     11                     12
                      A                      A                      A
 Frequencies --    361.8661               395.4594               440.8867
 Red. masses --      4.9091                 2.5878                13.7272
 Frc consts  --      0.3787                 0.2384                 1.5721
 IR Inten    --     19.0416                52.4812                14.6838

                     13                     14                     15
                      A                      A                      A
 Frequencies --    478.5672               510.4474               537.8717
 Red. masses --      2.0946                16.2881                17.7794
 Frc consts  --      0.2826                 2.5005                 3.0306
 IR Inten    --     62.7905                 9.5123                27.4663

                     16                     17                     18
                      A                      A                      A
 Frequencies --    599.2437               609.2048               656.3772
 Red. masses --     17.8102                20.4806                15.9596
 Frc consts  --      3.7681                 4.4784                 4.0512
 IR Inten    --      2.7305               118.6753                27.6886

                     19                     20                     21
                      A                      A                      A
 Frequencies --    763.5312               834.7066              1002.8057
 Red. masses --     17.2720                17.2106                12.7430
 Frc consts  --      5.9326                 7.0650                 7.5501
 IR Inten    --     18.8805               194.4664               101.1254

                     22                     23                     24
                      A                      A                      A
 Frequencies --   1137.6991              1155.6883              1208.0149
 Red. masses --      1.2167                12.6623                13.9052
 Frc consts  --      0.9279                 9.9643                11.9556
 IR Inten    --    142.0517               151.2687                84.1296

                     25                     26                     27
                      A                      A                      A
 Frequencies --   1226.2638              1227.9795              1262.0431
 Red. masses --     12.3809                13.0068                13.3187
 Frc consts  --     10.9691                11.5559                12.4986
 IR Inten    --    118.4648               196.7252               374.1670

                     28                     29                     30
                      A                      A                      A
 Frequencies --   1348.6459              1442.7635              3834.6957
 Red. masses --     12.6940                13.9823                 1.0661
 Frc consts  --     13.6033                17.1483                 9.2369
 IR Inten    --    113.7303               294.0532               150.1490

 - Thermochemistry -
 -------------------
 Temperature   298.150 Kelvin.  Pressure   1.00000 Atm.
 Atom     1 has atomic number  6 and mass  12.00000

 Molecular mass:   199.95666 amu.
 Principal axes and moments of inertia in atomic units:
                           1         2         3
     Eigenvalues --  1152.605392137.707422288.84296
           X            0.87287   0.48665  -0.03559
           Y           -0.09280   0.23716   0.96703
           Z           -0.47904   0.84079  -0.25217
 This molecule is an asymmetric top.
 Rotational symmetry number  1.
 Warning -- assumption of classical behavior for rotation
           may cause significant error
 Rotational temperatures (Kelvin)      0.07515     0.04052     0.03784
 Rotational constants (GHZ):           1.56579     0.84424     0.78849
 Zero-point vibrational energy     136807.7 (Joules/Mol)
                                   32.69783 (Kcal/Mol)
 Warning -- explicit consideration of  17 degrees of freedom as
           vibrations may cause significant error
 Vibrational temperatures:     80.95    97.61   205.27   289.22   324.55
          (Kelvin)            345.16   399.00   444.23   458.06   520.64
                              568.98   634.34   688.55   734.42   773.88
                              862.18   876.51   944.38  1098.55  1200.96
                             1442.81  1636.90  1662.78  1738.06  1764.32
                             1766.79  1815.80  1940.40  2075.81  5517.27

 Zero-point correction=                           0.052107 (Hartree/Particle)
 Thermal correction to Energy=                    0.062400
 Thermal correction to Enthalpy=                  0.063344
 Thermal correction to Gibbs Free Energy=         0.015631
 Sum of electronic and zero-point Energies=          -1199.773774
 Sum of electronic and thermal Energies=             -1199.763481
 Sum of electronic and thermal Enthalpies=           -1199.762537
 Sum of electronic and thermal Free Energies=        -1199.810250

                     E (Thermal)             CV                S
                      KCal/Mol        Cal/Mol-Kelvin    Cal/Mol-Kelvin
 Total                   39.157             36.438            100.421
 Electronic               0.000              0.000              0.000
 Translational            0.889              2.981             41.783
 Rotational               0.889              2.981             30.112
 Vibrational             37.379             30.476             28.525
 Vibration     1          0.596              1.975              4.584
 Vibration     2          0.598              1.970              4.215
 Vibration     3          0.616              1.911              2.768
 Vibration     4          0.638              1.838              2.124
 Vibration     5          0.650              1.802              1.914
 Vibration     6          0.657              1.779              1.804
 Vibration     7          0.678              1.715              1.550
 Vibration     8          0.698              1.657              1.369
 Vibration     9          0.705              1.638              1.318
 Vibration    10          0.736              1.551              1.114
 Vibration    11          0.762              1.480              0.979
 Vibration    12          0.801              1.381              0.824
 Vibration    13          0.835              1.298              0.714
 Vibration    14          0.866              1.227              0.633
 Vibration    15          0.893              1.166              0.570
 Vibration    16          0.957              1.033              0.451
 Vibration    17          0.968              1.012              0.434

 Optimization completed.
    -- Stationary point found.
 Normal termination of Gaussian 16 at Fri May 23 01:57:30 2025.
