 Gaussian 16, Revision C.01,
 Gaussian 16:  ES64L-G16RevC.01  3-Jul-2019

 ----------------------------------------------------------------------
 #P wb97xd/6-311++G(d,p) Symm(None) scf(xqc) pop(None) freq opt(CalcFC,
  Tight)
 ----------------------------------------------------------------------

 ------------------------------
 Gaussian input prepared by ASE
 ------------------------------
 Symbolic Z-matrix:
 Charge =  0 Multiplicity = 1

 SCF Done:  E(RwB97XD) =  -1199.59644200     A.U. after   18 cycles
 SCF Done:  E(RwB97XD) =  -1199.60310670     A.U. after   20 cycles
 SCF Done:  E(RwB97XD) =  -1199.59344273     A.U. after   20 cycles
 SCF Done:  E(RwB97XD) =  -1199.60476670     A.U. after   18 cycles
 SCF Done:  E(RwB97XD) =  -1199.60447043     A.U. after   18 cycles
 SCF Done:  E(RwB97XD) =  -1199.60501204     A.U. after   18 cycles
 SCF Done:  E(RwB97XD) =  -1199.60544506     A.U. after   18 cycles
 SCF Done:  E(RwB97XD) =  -1199.60558203     A.U. after   15 cycles
 SCF Done:  E(RwB97XD) =  -1199.60567835     A.U. after   18 cycles
 SCF Done:  E(RwB97XD) =  -1199.60570812     A.U. after   15 cycles
 SCF Done:  E(RwB97XD) =  -1199.60573104     A.U. after   12 cycles
 SCF Done:  E(RwB97XD) =  -1199.60573152     A.U. after   12 cycles
 SCF Done:  E(RwB97XD) =  -1199.60573171     A.U. after   11 cycles
 SCF Done:  E(RwB97XD) =  -1199.60573178     A.U. after   10 cycles
 SCF Done:  E(RwB97XD) =  -1199.60573179     A.U. after   10 cycles
 SCF Done:  E(RwB97XD) =  -1199.60573179     A.U. after    9 cycles
 SCF Done:  E(RwB97XD) =  -1199.60573179     A.U. after    8 cycles
 SCF Done:  E(RwB97XD) =  -1199.60573179     A.U. after    8 cycles
 SCF Done:  E(RwB97XD) =  -1199.60573179     A.U. after    8 cycles
 Optimization completed.
    -- Stationary point found.
 Normal termination of Gaussian 16 at Fri May 23 07:47:48 2025.

 ----------------------------------------------------------------------
 #P Geom=AllCheck Guess=TCheck SCRF=Check GenChk RwB97XD/6-311++G(d,p)
 Freq
 ----------------------------------------------------------------------

 Structure from the checkpoint file:  "/tmp/Gau-293679.chk"
 ------------------------------
 Gaussian input prepared by ASE
 ------------------------------
 Charge =  0 Multiplicity = 1

                          Input orientation:
 ---------------------------------------------------------------------
 Center     Atomic      Atomic             Coordinates (Angstroms)
 Number     Number       Type             X           Y           Z
 ---------------------------------------------------------------------
      1          6           0       -0.599913   -1.308328    0.349019
      2          6           0       -0.010633    0.107211    0.074837
      3          9           0       -0.415537    0.552011   -1.104512
      4          9           0       -0.553595    1.017371    1.000980
      5         16           0        1.908076    0.194715    0.167305
      6          8           0        0.169443    0.726516    2.467998
      7          8           0        2.276056   -0.652699   -0.969572
      8          8           0        1.953184    1.765760   -0.284431
      9          9           0       -0.594597   -1.994882   -0.785648
     10          9           0        0.135055   -1.953249    1.243735
     11          9           0       -1.847244   -1.213617    0.789720
     12          1           0        1.700422    1.867022   -1.214031
 ---------------------------------------------------------------------

 SCF Done:  E(RwB97XD) =  -1199.60573179     A.U. after    1 cycles

 Isotropic polarizability for W=    0.000000       60.72 Bohr**3.
 End of Minotr F.D. properties file   721 does not exist.

                      1                      2                      3
                      A                      A                      A
 Frequencies --     40.3177                54.3438                85.1097
 Red. masses --     17.7185                10.7452                16.5281
 Frc consts  --      0.0170                 0.0187                 0.0705
 IR Inten    --      0.4713                 1.4948                 1.4880

                      4                      5                      6
                      A                      A                      A
 Frequencies --    114.8028               172.0043               214.1319
 Red. masses --     15.6740                15.7952                14.9481
 Frc consts  --      0.1217                 0.2753                 0.4038
 IR Inten    --      0.6508                 3.9467                 4.7931

                      7                      8                      9
                      A                      A                      A
 Frequencies --    227.8020               236.3739               279.0237
 Red. masses --      8.2311                12.2421                16.1585
 Frc consts  --      0.2517                 0.4030                 0.7412
 IR Inten    --      7.9422                 1.4767                 0.8916

                     10                     11                     12
                      A                      A                      A
 Frequencies --    305.7757               336.6090               353.7664
 Red. masses --     10.8361                 4.6881                 2.9916
 Frc consts  --      0.5969                 0.3130                 0.2206
 IR Inten    --      0.8892                11.4450                24.0194

                     13                     14                     15
                      A                      A                      A
 Frequencies --    409.4466               457.2638               486.8529
 Red. masses --     15.7390                 4.1237                 3.7530
 Frc consts  --      1.5546                 0.5080                 0.5241
 IR Inten    --      6.8960                86.8486                62.3445

                     16                     17                     18
                      A                      A                      A
 Frequencies --    539.3915               564.8465               595.3349
 Red. masses --     14.5541                16.8491                16.7450
 Frc consts  --      2.4948                 3.1673                 3.4967
 IR Inten    --     45.2575                19.7398                31.7690

                     19                     20                     21
                      A                      A                      A
 Frequencies --    653.4531               753.7577               763.5203
 Red. masses --     17.0094                16.9085                15.6025
 Frc consts  --      4.2793                 5.6600                 5.3590
 IR Inten    --     40.0659                17.9603               203.0085

                     22                     23                     24
                      A                      A                      A
 Frequencies --    960.5615              1014.8547              1109.4720
 Red. masses --     13.2138                13.1564                 1.3397
 Frc consts  --      7.1834                 7.9836                 0.9716
 IR Inten    --     54.2512               183.2318                65.2388

                     25                     26                     27
                      A                      A                      A
 Frequencies --   1206.6846              1216.6915              1248.0706
 Red. masses --     13.2235                 7.0476                11.1488
 Frc consts  --     11.3445                 6.1468                10.2319
 IR Inten    --    192.9804                18.4102               401.4591

                     28                     29                     30
                      A                      A                      A
 Frequencies --   1252.9597              1336.6724              3785.8809
 Red. masses --     13.0790                12.7450                 1.0656
 Frc consts  --     12.0976                13.4165                 8.9990
 IR Inten    --    271.6240               122.9149               100.6230

 - Thermochemistry -
 -------------------
 Temperature   298.150 Kelvin.  Pressure   1.00000 Atm.
 Atom     1 has atomic number  6 and mass  12.00000

 Molecular mass:   199.95666 amu.
 Principal axes and moments of inertia in atomic units:
                           1         2         3
     Eigenvalues --  1345.863022053.508562391.59525
           X            0.78190  -0.30256   0.54506
           Y            0.59161   0.63580  -0.49573
           Z           -0.19656   0.71008   0.67613
 This molecule is an asymmetric top.
 Rotational symmetry number  1.
 Warning -- assumption of classical behavior for rotation
           may cause significant error
 Rotational temperatures (Kelvin)      0.06436     0.04218     0.03622
 Rotational constants (GHZ):           1.34095     0.87886     0.75462
 Zero-point vibrational energy     124266.7 (Joules/Mol)
                                   29.70046 (Kcal/Mol)
 Warning -- explicit consideration of  18 degrees of freedom as
           vibrations may cause significant error
 Vibrational temperatures:     58.01    78.19   122.45   165.18   247.48
          (Kelvin)            308.09   327.76   340.09   401.45   439.94
                              484.31   508.99   589.10   657.90   700.47
                              776.06   812.69   856.55   940.17  1084.49
                             1098.54  1382.03  1460.15  1596.28  1736.15
                             1750.55  1795.70  1802.73  1923.17  5447.04

 Zero-point correction=                           0.047331 (Hartree/Particle)
 Thermal correction to Energy=                    0.058895
 Thermal correction to Enthalpy=                  0.059839
 Thermal correction to Gibbs Free Energy=         0.008729
 Sum of electronic and zero-point Energies=          -1199.558401
 Sum of electronic and thermal Energies=             -1199.546837
 Sum of electronic and thermal Enthalpies=           -1199.545893
 Sum of electronic and thermal Free Energies=        -1199.597003

                     E (Thermal)             CV                S
                      KCal/Mol        Cal/Mol-Kelvin    Cal/Mol-Kelvin
 Total                   36.957             39.319            107.569
 Electronic               0.000              0.000              0.000
 Translational            0.889              2.981             41.783
 Rotational               0.889              2.981             30.270
 Vibrational             35.179             33.357             35.516
 Vibration     1          0.594              1.981              5.243
 Vibration     2          0.596              1.976              4.653
 Vibration     3          0.601              1.960              3.769
 Vibration     4          0.608              1.937              3.186
 Vibration     5          0.626              1.877              2.413
 Vibration     6          0.644              1.819              2.008
 Vibration     7          0.651              1.799              1.896
 Vibration     8          0.655              1.785              1.830
 Vibration     9          0.679              1.712              1.540
 Vibration    10          0.696              1.663              1.385
 Vibration    11          0.717              1.602              1.228
 Vibration    12          0.730              1.568              1.149
 Vibration    13          0.774              1.450              0.929
 Vibration    14          0.815              1.345              0.774
 Vibration    15          0.843              1.279              0.692
 Vibration    16          0.894              1.163              0.567
 Vibration    17          0.921              1.107              0.514
 Vibration    18          0.953              1.042              0.458

 Optimization completed.
    -- Stationary point found.
 Normal termination of Gaussian 16 at Fri May 23 07:50:12 2025.
