 Gaussian 16, Revision C.01,
 Gaussian 16:  ES64L-G16RevC.01  3-Jul-2019

 ----------------------------------------------------------------------
 #P wb97xd/6-311++G(d,p) Symm(None) scf(xqc) pop(None) freq opt(CalcFC,
  Tight)
 ----------------------------------------------------------------------

 ------------------------------
 Gaussian input prepared by ASE
 ------------------------------
 Symbolic Z-matrix:
 Charge =  0 Multiplicity = 1

 SCF Done:  E(RwB97XD) =  -1199.81568030     A.U. after   14 cycles
 SCF Done:  E(RwB97XD) =  -1199.82093351     A.U. after   13 cycles
 SCF Done:  E(RwB97XD) =  -1199.82321408     A.U. after   13 cycles
 SCF Done:  E(RwB97XD) =  -1199.82384128     A.U. after   12 cycles
 SCF Done:  E(RwB97XD) =  -1199.82495305     A.U. after   13 cycles
 SCF Done:  E(RwB97XD) =  -1199.82568372     A.U. after   13 cycles
 SCF Done:  E(RwB97XD) =  -1199.82597994     A.U. after   12 cycles
 SCF Done:  E(RwB97XD) =  -1199.82591909     A.U. after   12 cycles
 SCF Done:  E(RwB97XD) =  -1199.82603450     A.U. after   12 cycles
 SCF Done:  E(RwB97XD) =  -1199.82604327     A.U. after   11 cycles
 SCF Done:  E(RwB97XD) =  -1199.82604689     A.U. after   10 cycles
 SCF Done:  E(RwB97XD) =  -1199.82604855     A.U. after   10 cycles
 SCF Done:  E(RwB97XD) =  -1199.82604864     A.U. after    9 cycles
 SCF Done:  E(RwB97XD) =  -1199.82604864     A.U. after    6 cycles
 SCF Done:  E(RwB97XD) =  -1199.82604864     A.U. after    5 cycles
 Optimization completed.
    -- Stationary point found.
 Normal termination of Gaussian 16 at Fri May 23 01:57:26 2025.

 ----------------------------------------------------------------------
 #P Geom=AllCheck Guess=TCheck SCRF=Check GenChk RwB97XD/6-311++G(d,p)
 Freq
 ----------------------------------------------------------------------

 Structure from the checkpoint file:  "/tmp/Gau-242874.chk"
 ------------------------------
 Gaussian input prepared by ASE
 ------------------------------
 Charge =  0 Multiplicity = 1

                          Input orientation:
 ---------------------------------------------------------------------
 Center     Atomic      Atomic             Coordinates (Angstroms)
 Number     Number       Type             X           Y           Z
 ---------------------------------------------------------------------
      1          6           0       -0.650410   -1.400959   -0.330131
      2          6           0       -0.078415    0.036259   -0.167583
      3          9           0       -0.573839    0.816990   -1.123688
      4          9           0       -0.444724    0.514885    1.029836
      5         16           0        1.793528    0.122899   -0.255075
      6          8           0        2.306665   -0.738122    0.773596
      7          8           0        2.179299    0.045298   -1.626321
      8          8           0        1.974292    1.651331    0.192756
      9          9           0       -0.175814   -1.959232   -1.436581
     10          9           0       -0.329617   -2.151519    0.712636
     11          9           0       -1.974881   -1.327393   -0.416139
     12          1           0        2.024340    1.716925    1.155516
 ---------------------------------------------------------------------

 SCF Done:  E(RwB97XD) =  -1199.82604864     A.U. after    1 cycles

 Isotropic polarizability for W=    0.000000       55.70 Bohr**3.
 End of Minotr F.D. properties file   721 does not exist.

                      1                      2                      3
                      A                      A                      A
 Frequencies --     29.7806                67.8466               131.5553
 Red. masses --     14.2249                14.4020                14.5941
 Frc consts  --      0.0074                 0.0391                 0.1488
 IR Inten    --      1.2713                 0.7472                 1.3056

                      4                      5                      6
                      A                      A                      A
 Frequencies --    193.2345               222.5531               234.0784
 Red. masses --      8.8506                17.8676                 7.9561
 Frc consts  --      0.1947                 0.5214                 0.2568
 IR Inten    --      8.7510                 1.2541                 9.8351

                      7                      8                      9
                      A                      A                      A
 Frequencies --    275.2591               310.8412               318.0668
 Red. masses --     15.1635                 4.9749                18.2024
 Frc consts  --      0.6769                 0.2832                 1.0850
 IR Inten    --      1.3874                17.1184                 0.3379

                     10                     11                     12
                      A                      A                      A
 Frequencies --    357.6083               371.4895               436.1184
 Red. masses --      1.8782                17.7969                 4.2281
 Frc consts  --      0.1415                 1.4471                 0.4738
 IR Inten    --     56.7678                 0.1295                30.3987

                     13                     14                     15
                      A                      A                      A
 Frequencies --    484.5960               489.6219               539.3624
 Red. masses --     13.1484                 8.5437                17.8542
 Frc consts  --      1.8192                 1.2068                 3.0602
 IR Inten    --     14.0768                21.0531                28.5721

                     16                     17                     18
                      A                      A                      A
 Frequencies --    600.3116               609.2569               653.7556
 Red. masses --     17.3800                20.1377                17.3522
 Frc consts  --      3.6902                 4.4041                 4.3695
 IR Inten    --      3.5498               118.5302                30.1757

                     19                     20                     21
                      A                      A                      A
 Frequencies --    764.7474               825.3926              1005.8863
 Red. masses --     17.1232                17.1252                13.8188
 Frc consts  --      5.9003                 6.8739                 8.2379
 IR Inten    --     40.9476               217.9158                52.8240

                     22                     23                     24
                      A                      A                      A
 Frequencies --   1131.2756              1158.0060              1202.7089
 Red. masses --      1.1952                12.1478                15.9771
 Frc consts  --      0.9012                 9.5978                13.6166
 IR Inten    --    108.1202               241.1540                 6.6413

                     25                     26                     27
                      A                      A                      A
 Frequencies --   1219.2200              1249.3371              1253.7606
 Red. masses --     13.1206                13.7448                13.1802
 Frc consts  --     11.4913                12.6400                12.2068
 IR Inten    --    108.6060               333.0490               262.3967

                     28                     29                     30
                      A                      A                      A
 Frequencies --   1344.7631              1445.1343              3832.4392
 Red. masses --     12.6453                14.2906                 1.0662
 Frc consts  --     13.4732                17.5839                 9.2270
 IR Inten    --    106.8741               312.6075               161.8764

 - Thermochemistry -
 -------------------
 Temperature   298.150 Kelvin.  Pressure   1.00000 Atm.
 Atom     1 has atomic number  6 and mass  12.00000

 Molecular mass:   199.95666 amu.
 Principal axes and moments of inertia in atomic units:
                           1         2         3
     Eigenvalues --  1133.456432197.779892320.48254
           X            0.83583  -0.54699   0.04693
           Y            0.54751   0.82424  -0.14444
           Z            0.04033   0.14642   0.98840
 This molecule is an asymmetric top.
 Rotational symmetry number  1.
 Warning -- assumption of classical behavior for rotation
           may cause significant error
 Rotational temperatures (Kelvin)      0.07642     0.03941     0.03733
 Rotational constants (GHZ):           1.59225     0.82117     0.77774
 Zero-point vibrational energy     136123.1 (Joules/Mol)
                                   32.53420 (Kcal/Mol)
 Warning -- explicit consideration of  17 degrees of freedom as
           vibrations may cause significant error
 Vibrational temperatures:     42.85    97.62   189.28   278.02   320.20
          (Kelvin)            336.79   396.04   447.23   457.63   514.52
                              534.49   627.48   697.23   704.46   776.02
                              863.71   876.58   940.61  1100.30  1187.56
                             1447.25  1627.65  1666.11  1730.43  1754.19
                             1797.52  1803.88  1934.81  2079.23  5514.03

 Zero-point correction=                           0.051847 (Hartree/Particle)
 Thermal correction to Energy=                    0.062287
 Thermal correction to Enthalpy=                  0.063231
 Thermal correction to Gibbs Free Energy=         0.014685
 Sum of electronic and zero-point Energies=          -1199.774202
 Sum of electronic and thermal Energies=             -1199.763762
 Sum of electronic and thermal Enthalpies=           -1199.762818
 Sum of electronic and thermal Free Energies=        -1199.811363

                     E (Thermal)             CV                S
                      KCal/Mol        Cal/Mol-Kelvin    Cal/Mol-Kelvin
 Total                   39.085             36.599            102.173
 Electronic               0.000              0.000              0.000
 Translational            0.889              2.981             41.783
 Rotational               0.889              2.981             30.137
 Vibrational             37.308             30.637             30.252
 Vibration     1          0.594              1.984              5.844
 Vibration     2          0.598              1.970              4.215
 Vibration     3          0.612              1.922              2.923
 Vibration     4          0.635              1.849              2.197
 Vibration     5          0.648              1.807              1.938
 Vibration     6          0.654              1.789              1.847
 Vibration     7          0.677              1.719              1.563
 Vibration     8          0.700              1.653              1.358
 Vibration     9          0.704              1.639              1.320
 Vibration    10          0.733              1.560              1.132
 Vibration    11          0.743              1.531              1.074
 Vibration    12          0.797              1.391              0.839
 Vibration    13          0.841              1.284              0.698
 Vibration    14          0.845              1.273              0.685
 Vibration    15          0.894              1.163              0.567
 Vibration    16          0.958              1.031              0.449
 Vibration    17          0.968              1.012              0.434

 Optimization completed.
    -- Stationary point found.
 Normal termination of Gaussian 16 at Fri May 23 01:58:41 2025.
