 Gaussian 16, Revision C.01,
 Gaussian 16:  ES64L-G16RevC.01  3-Jul-2019

 ----------------------------------------------------------------------
 #P wb97xd/6-311++G(d,p) Symm(None) scf(xqc) pop(None) freq opt(CalcFC,
  Tight)
 ----------------------------------------------------------------------

 ------------------------------
 Gaussian input prepared by ASE
 ------------------------------
 Symbolic Z-matrix:
 Charge =  0 Multiplicity = 1

 SCF Done:  E(RwB97XD) =  -1199.60181555     A.U. after   16 cycles
 SCF Done:  E(RwB97XD) =  -1199.61023727     A.U. after   15 cycles
 SCF Done:  E(RwB97XD) =  -1199.61097924     A.U. after   14 cycles
 SCF Done:  E(RwB97XD) =  -1199.61105668     A.U. after   13 cycles
 SCF Done:  E(RwB97XD) =  -1199.61106504     A.U. after   12 cycles
 SCF Done:  E(RwB97XD) =  -1199.61106627     A.U. after   11 cycles
 SCF Done:  E(RwB97XD) =  -1199.61106643     A.U. after   10 cycles
 SCF Done:  E(RwB97XD) =  -1199.61106644     A.U. after    8 cycles
 SCF Done:  E(RwB97XD) =  -1199.61106644     A.U. after    7 cycles
 SCF Done:  E(RwB97XD) =  -1199.61106644     A.U. after    5 cycles
 SCF Done:  E(RwB97XD) =  -1199.61106644     A.U. after    6 cycles
 SCF Done:  E(RwB97XD) =  -1199.61106644     A.U. after    6 cycles
 Optimization completed.
    -- Stationary point found.
 Normal termination of Gaussian 16 at Fri May 23 05:21:31 2025.

 ----------------------------------------------------------------------
 #P Geom=AllCheck Guess=TCheck SCRF=Check GenChk RwB97XD/6-311++G(d,p)
 Freq
 ----------------------------------------------------------------------

 Structure from the checkpoint file:  "/tmp/Gau-77271.chk"
 ------------------------------
 Gaussian input prepared by ASE
 ------------------------------
 Charge =  0 Multiplicity = 1

                          Input orientation:
 ---------------------------------------------------------------------
 Center     Atomic      Atomic             Coordinates (Angstroms)
 Number     Number       Type             X           Y           Z
 ---------------------------------------------------------------------
      1          6           0        2.575437    0.049783   -2.632201
      2          6           0        2.628292   -0.508213   -1.239742
      3          9           0       -0.589192    0.644244    0.831702
      4          9           0        2.848476   -1.836323   -1.209471
      5         16           0        1.790149    0.060253    0.045306
      6          8           0        0.159498    0.092433   -0.259083
      7          8           0        2.030254   -0.590831    1.294705
      8          8           0        1.960761    1.632850    0.057522
      9          9           0        2.399655    1.375038   -2.632663
     10          9           0        3.727491   -0.220228   -3.254978
     11          9           0        1.596748   -0.491180   -3.370933
     12          1           0        2.891445    1.863851    0.183772
 ---------------------------------------------------------------------

 SCF Done:  E(RwB97XD) =  -1199.61106644     A.U. after    1 cycles

 Isotropic polarizability for W=    0.000000       66.05 Bohr**3.
 End of Minotr F.D. properties file   721 does not exist.

                      1                      2                      3
                      A                      A                      A
 Frequencies --     30.3095                59.7975               115.7399
 Red. masses --     16.0128                16.9471                14.9886
 Frc consts  --      0.0087                 0.0357                 0.1183
 IR Inten    --      0.5013                 0.6785                 3.4447

                      4                      5                      6
                      A                      A                      A
 Frequencies --    128.5650               181.6507               213.5615
 Red. masses --     16.2644                 9.1891                13.9706
 Frc consts  --      0.1584                 0.1786                 0.3754
 IR Inten    --      0.4996                 7.3163                 2.5385

                      7                      8                      9
                      A                      A                      A
 Frequencies --    240.2520               271.1508               300.6391
 Red. masses --      5.4053                14.2543                 1.6674
 Frc consts  --      0.1838                 0.6175                 0.0888
 IR Inten    --     16.7488                 9.3731                53.4432

                     10                     11                     12
                      A                      A                      A
 Frequencies --    322.3533               350.8714               424.1062
 Red. masses --     15.9686                 4.7665                 8.8501
 Frc consts  --      0.9776                 0.3457                 0.9379
 IR Inten    --      2.8102                19.3469                14.2278

                     13                     14                     15
                      A                      A                      A
 Frequencies --    439.2648               455.9172               492.1189
 Red. masses --     10.7282                14.6833                13.7884
 Frc consts  --      1.2196                 1.7982                 1.9675
 IR Inten    --     27.3702                 4.1075                26.0265

                     16                     17                     18
                      A                      A                      A
 Frequencies --    589.6362               594.3824               616.8459
 Red. masses --     17.5017                15.7232                17.7935
 Frc consts  --      3.5851                 3.2728                 3.9890
 IR Inten    --     18.5830                 2.6468                86.5748

                     19                     20                     21
                      A                      A                      A
 Frequencies --    644.2688               761.2331               820.2466
 Red. masses --     15.9179                17.6552                16.9717
 Frc consts  --      3.8929                 6.0278                 6.7277
 IR Inten    --     62.9173                 6.7799               141.6766

                     22                     23                     24
                      A                      A                      A
 Frequencies --    879.0845              1078.6526              1139.9183
 Red. masses --     18.1515                10.6960                 1.1857
 Frc consts  --      8.2647                 7.3322                 0.9078
 IR Inten    --    198.9367               109.9284                94.6911

                     25                     26                     27
                      A                      A                      A
 Frequencies --   1169.2146              1204.2380              1260.5021
 Red. masses --     13.0766                13.2308                13.7521
 Frc consts  --     10.5326                11.3047                12.8738
 IR Inten    --    298.5456               349.7681                13.5325

                     28                     29                     30
                      A                      A                      A
 Frequencies --   1335.9827              1366.0092              3820.5611
 Red. masses --     12.2176                18.0299                 1.0662
 Frc consts  --     12.8481                19.8221                 9.1692
 IR Inten    --    454.9951               249.7209               182.9583

 - Thermochemistry -
 -------------------
 Temperature   298.150 Kelvin.  Pressure   1.00000 Atm.
 Atom     1 has atomic number  6 and mass  12.00000

 Molecular mass:   199.95666 amu.
 Principal axes and moments of inertia in atomic units:
                           1         2         3
     Eigenvalues --  1106.048332648.060852909.43050
           X           -0.50705  -0.50462   0.69876
           Y            0.12433   0.75940   0.63863
           Z            0.85290  -0.41070   0.32231
 This molecule is an asymmetric top.
 Rotational symmetry number  1.
 Warning -- assumption of classical behavior for rotation
           may cause significant error
 Rotational temperatures (Kelvin)      0.07831     0.03271     0.02977
 Rotational constants (GHZ):           1.63170     0.68153     0.62031
 Zero-point vibrational energy     127444.6 (Joules/Mol)
                                   30.45999 (Kcal/Mol)
 Warning -- explicit consideration of  18 degrees of freedom as
           vibrations may cause significant error
 Vibrational temperatures:     43.61    86.04   166.52   184.98   261.35
          (Kelvin)            307.27   345.67   390.13   432.55   463.79
                              504.83   610.19   632.00   655.96   708.05
                              848.35   855.18   887.50   926.96  1095.24
                             1180.15  1264.81  1551.94  1640.09  1682.24
                             1732.63  1813.58  1922.18  1965.38  5496.94

 Zero-point correction=                           0.048541 (Hartree/Particle)
 Thermal correction to Energy=                    0.059714
 Thermal correction to Enthalpy=                  0.060658
 Thermal correction to Gibbs Free Energy=         0.010263
 Sum of electronic and zero-point Energies=          -1199.562525
 Sum of electronic and thermal Energies=             -1199.551353
 Sum of electronic and thermal Enthalpies=           -1199.550409
 Sum of electronic and thermal Free Energies=        -1199.600804

                     E (Thermal)             CV                S
                      KCal/Mol        Cal/Mol-Kelvin    Cal/Mol-Kelvin
 Total                   37.471             38.555            106.066
 Electronic               0.000              0.000              0.000
 Translational            0.889              2.981             41.783
 Rotational               0.889              2.981             30.522
 Vibrational             35.693             32.593             33.760
 Vibration     1          0.594              1.984              5.809
 Vibration     2          0.597              1.973              4.464
 Vibration     3          0.608              1.936              3.170
 Vibration     4          0.611              1.925              2.967
 Vibration     5          0.630              1.865              2.311
 Vibration     6          0.644              1.820              2.013
 Vibration     7          0.657              1.779              1.801
 Vibration     8          0.675              1.726              1.589
 Vibration     9          0.693              1.672              1.413
 Vibration    10          0.707              1.631              1.298
 Vibration    11          0.728              1.573              1.162
 Vibration    12          0.786              1.418              0.878
 Vibration    13          0.799              1.385              0.829
 Vibration    14          0.814              1.348              0.778
 Vibration    15          0.848              1.268              0.678
 Vibration    16          0.947              1.054              0.468
 Vibration    17          0.952              1.044              0.459
 Vibration    18          0.977              0.996              0.422

 Optimization completed.
    -- Stationary point found.
 Normal termination of Gaussian 16 at Fri May 23 05:23:18 2025.
