 Gaussian 16, Revision C.01,
 Gaussian 16:  ES64L-G16RevC.01  3-Jul-2019

 ----------------------------------------------------------------------
 #P wb97xd/6-311++G(d,p) Symm(None) scf(xqc) pop(None) opt(NoFreeze,TS,
 CalcAll,NoEigentest,MaxCycle=999)
 ----------------------------------------------------------------------

 ------------------------------
 Gaussian input prepared by ASE
 ------------------------------
 Symbolic Z-matrix:
 Charge =  0 Multiplicity = 1

 SCF Done:  E(RwB97XD) =  -1199.57382466     A.U. after   30 cycles
 SCF Done:  E(RwB97XD) =  -1199.58937301     A.U. after   25 cycles
 SCF Done:  E(RwB97XD) =  -1199.58943028     A.U. after   27 cycles
 SCF Done:  E(RwB97XD) =  -1199.59086962     A.U. after   22 cycles
 SCF Done:  E(RwB97XD) =  -1199.59103777     A.U. after   22 cycles
 SCF Done:  E(RwB97XD) =  -1199.59103949     A.U. after   21 cycles

 Isotropic polarizability for W=    0.000000       72.55 Bohr**3.
 End of Minotr F.D. properties file   721 does not exist.

 Optimization completed.
    -- Stationary point found.

                          Input orientation:
 ---------------------------------------------------------------------
 Center     Atomic      Atomic             Coordinates (Angstroms)
 Number     Number       Type             X           Y           Z
 ---------------------------------------------------------------------
      1          6           0       -0.573457   -1.320835   -0.456244
      2          6           0       -0.007211    0.058286   -0.050292
      3          9           0       -0.493537    1.007598   -0.853177
      4          9           0       -0.350722    0.326445    1.219019
      5         16           0        1.906404    0.125096   -0.014389
      6          8           0        1.336453    0.357606    2.644067
      7          8           0        2.367022   -0.429660   -1.286241
      8          8           0        1.980950    1.746809   -0.051446
      9          9           0       -0.407825   -1.522715   -1.753809
     10          9           0        0.064299   -2.271775    0.224005
     11          9           0       -1.870048   -1.385905   -0.171560
     12          1           0        1.741672    2.087086   -0.926760
 ---------------------------------------------------------------------

 ******    1 imaginary frequencies (negative Signs) ******

                      1                      2                      3
                      A                      A                      A
 Frequencies --   -374.6410                43.9848                59.4399
 Red. masses --     17.0838                15.4734                17.9507
 Frc consts  --      1.4127                 0.0176                 0.0374
 IR Inten    --     93.3843                 0.5048                 0.0482

                      4                      5                      6
                      A                      A                      A
 Frequencies --     81.9974               125.9960               180.6381
 Red. masses --     10.9618                15.7037                11.9810
 Frc consts  --      0.0434                 0.1469                 0.2303
 IR Inten    --      1.6046                 0.4657                 8.5614

                      7                      8                      9
                      A                      A                      A
 Frequencies --    210.6470               226.5558               241.8463
 Red. masses --     13.6597                15.2513                 6.0017
 Frc consts  --      0.3571                 0.4612                 0.2068
 IR Inten    --      2.1457                 5.1691                 9.2276

                     10                     11                     12
                      A                      A                      A
 Frequencies --    280.4971               330.3413               357.6320
 Red. masses --     15.2797                14.6811                 2.0633
 Frc consts  --      0.7083                 0.9439                 0.1555
 IR Inten    --      0.4701                 3.2263                32.5227

                     13                     14                     15
                      A                      A                      A
 Frequencies --    375.4129               409.7227               479.0725
 Red. masses --     14.7667                14.9019                 2.5425
 Frc consts  --      1.2262                 1.4739                 0.3438
 IR Inten    --      2.8532                22.2412               132.4420

                     16                     17                     18
                      A                      A                      A
 Frequencies --    515.8183               544.4626               603.2029
 Red. masses --     12.3556                18.1022                16.7515
 Frc consts  --      1.9369                 3.1617                 3.5911
 IR Inten    --     32.5662                 4.8011                 9.4981

                     19                     20                     21
                      A                      A                      A
 Frequencies --    631.4811               758.8869               778.3162
 Red. masses --     17.1982                17.0658                16.3723
 Frc consts  --      4.0407                 5.7907                 5.8435
 IR Inten    --     14.2916                50.5930               171.6914

                     22                     23                     24
                      A                      A                      A
 Frequencies --    960.6423              1107.4674              1120.6051
 Red. masses --     13.4962                 4.8366                 1.5688
 Frc consts  --      7.3381                 3.4951                 1.1607
 IR Inten    --     83.5299                23.6815                92.6131

                     25                     26                     27
                      A                      A                      A
 Frequencies --   1201.4950              1221.1430              1238.5831
 Red. masses --     12.5558                 8.3628                12.4059
 Frc consts  --     10.6792                 7.3474                11.2132
 IR Inten    --    141.4495                56.5632               224.3454

                     28                     29                     30
                      A                      A                      A
 Frequencies --   1258.5781              1347.3587              3778.7435
 Red. masses --     11.0744                12.6419                 1.0655
 Frc consts  --     10.3355                13.5216                 8.9641
 IR Inten    --    371.2456               172.1871               128.9486

 - Thermochemistry -
 -------------------
 Temperature   298.150 Kelvin.  Pressure   1.00000 Atm.
 Atom     1 has atomic number  6 and mass  12.00000

 Molecular mass:   199.95666 amu.
 Principal axes and moments of inertia in atomic units:
                           1         2         3
     Eigenvalues --  1373.172252189.106772500.32827
           X            0.74963  -0.42187  -0.50999
           Y            0.60210   0.11471   0.79013
           Z            0.27483   0.89937  -0.34000
 This molecule is an asymmetric top.
 Rotational symmetry number  1.
 Warning -- assumption of classical behavior for rotation
           may cause significant error
 Rotational temperatures (Kelvin)      0.06308     0.03957     0.03464
 Rotational constants (GHZ):           1.31429     0.82442     0.72180
    1 imaginary frequencies ignored.
 Zero-point vibrational energy     122441.2 (Joules/Mol)
                                   29.26415 (Kcal/Mol)
 Warning -- explicit consideration of  17 degrees of freedom as
           vibrations may cause significant error
 Vibrational temperatures:     63.28    85.52   117.98   181.28   259.90
          (Kelvin)            303.07   325.96   347.96   403.57   475.29
                              514.55   540.14   589.50   689.28   742.15
                              783.36   867.87   908.56  1091.87  1119.82
                             1382.15  1593.40  1612.30  1728.68  1756.95
                             1782.04  1810.81  1938.55  5436.77

 Zero-point correction=                           0.046635 (Hartree/Particle)
 Thermal correction to Energy=                    0.057839
 Thermal correction to Enthalpy=                  0.058783
 Thermal correction to Gibbs Free Energy=         0.008355
 Sum of electronic and zero-point Energies=          -1199.544404
 Sum of electronic and thermal Energies=             -1199.533201
 Sum of electronic and thermal Enthalpies=           -1199.532256
 Sum of electronic and thermal Free Energies=        -1199.582685

                     E (Thermal)             CV                S
                      KCal/Mol        Cal/Mol-Kelvin    Cal/Mol-Kelvin
 Total                   36.294             37.820            106.135
 Electronic               0.000              0.000              0.000
 Translational            0.889              2.981             41.783
 Rotational               0.889              2.981             30.398
 Vibrational             34.517             31.858             33.954
 Vibration     1          0.595              1.980              5.071
 Vibration     2          0.597              1.974              4.476
 Vibration     3          0.600              1.961              3.842
 Vibration     4          0.611              1.927              3.006
 Vibration     5          0.630              1.866              2.322
 Vibration     6          0.643              1.825              2.038
 Vibration     7          0.650              1.801              1.906
 Vibration     8          0.658              1.776              1.789
 Vibration     9          0.680              1.710              1.531
 Vibration    10          0.713              1.615              1.258
 Vibration    11          0.733              1.560              1.132
 Vibration    12          0.746              1.522              1.058
 Vibration    13          0.774              1.449              0.928
 Vibration    14          0.836              1.296              0.713
 Vibration    15          0.871              1.215              0.620
 Vibration    16          0.900              1.152              0.556
 Vibration    17          0.962              1.025              0.444

 Normal termination of Gaussian 16 at Fri May 23 07:42:30 2025.
