 Gaussian 16, Revision C.01,
 Gaussian 16:  ES64L-G16RevC.01  3-Jul-2019

 ----------------------------------------------------------------------
 #P wb97xd/6-311++G(d,p) Symm(None) scf(xqc) pop(None) opt(NoFreeze,TS,
 CalcAll,NoEigentest,MaxCycle=999)
 ----------------------------------------------------------------------

 ------------------------------
 Gaussian input prepared by ASE
 ------------------------------
 Symbolic Z-matrix:
 Charge =  0 Multiplicity = 1

 SCF Done:  E(RwB97XD) =  -1199.64102633     A.U. after   22 cycles
 SCF Done:  E(RwB97XD) =  -1199.64254452     A.U. after   19 cycles
 SCF Done:  E(RwB97XD) =  -1199.64713466     A.U. after   19 cycles
 SCF Done:  E(RwB97XD) =  -1199.65296251     A.U. after   20 cycles
 SCF Done:  E(RwB97XD) =  -1199.65453165     A.U. after   18 cycles
 SCF Done:  E(RwB97XD) =  -1199.65621734     A.U. after   18 cycles
 SCF Done:  E(RwB97XD) =  -1199.65796701     A.U. after   17 cycles
 SCF Done:  E(RwB97XD) =  -1199.65870439     A.U. after   17 cycles
 SCF Done:  E(RwB97XD) =  -1199.65883732     A.U. after   17 cycles
 SCF Done:  E(RwB97XD) =  -1199.65884156     A.U. after   16 cycles
 SCF Done:  E(RwB97XD) =  -1199.65884157     A.U. after   11 cycles

 Isotropic polarizability for W=    0.000000       78.06 Bohr**3.
 End of Minotr F.D. properties file   721 does not exist.

 Optimization completed.
    -- Stationary point found.

                          Input orientation:
 ---------------------------------------------------------------------
 Center     Atomic      Atomic             Coordinates (Angstroms)
 Number     Number       Type             X           Y           Z
 ---------------------------------------------------------------------
      1          6           0        4.129447    2.149516    1.795029
      2          6           0        3.353999    0.890271    1.308120
      3          9           0        4.160119    0.105535    0.611032
      4          9           0        2.856072    0.240579    2.344015
      5         16           0        1.849230    1.415356    0.214671
      6          8           0       -0.426931    1.089573    0.434796
      7          8           0        2.339652    2.149206   -0.941732
      8          8           0        1.267415    0.049925    0.056473
      9          9           0        4.764659    2.726993    0.791112
     10          9           0        3.276215    3.013865    2.336020
     11          9           0        5.012504    1.778449    2.714749
     12          1           0       -1.335482    0.991493    0.104271
 ---------------------------------------------------------------------

 ******    1 imaginary frequencies (negative Signs) ******

                      1                      2                      3
                      A                      A                      A
 Frequencies --   -496.5341                37.9405                53.0314
 Red. masses --      2.5610                14.3121                 8.0540
 Frc consts  --      0.3720                 0.0121                 0.0133
 IR Inten    --    200.0993                 0.2238                 1.2172

                      4                      5                      6
                      A                      A                      A
 Frequencies --     75.1210               125.3201               186.3650
 Red. masses --      7.2946                16.4283                10.0925
 Frc consts  --      0.0243                 0.1520                 0.2065
 IR Inten    --      1.9626                 1.5850                 6.5272

                      7                      8                      9
                      A                      A                      A
 Frequencies --    223.3132               223.9166               267.4382
 Red. masses --     18.3798                15.1237                10.7170
 Frc consts  --      0.5400                 0.4468                 0.4516
 IR Inten    --      2.1029                 9.3674                17.1778

                     10                     11                     12
                      A                      A                      A
 Frequencies --    313.4064               326.6753               356.6765
 Red. masses --     17.3356                 1.9095                 3.7975
 Frc consts  --      1.0032                 0.1201                 0.2846
 IR Inten    --      4.7549                58.1481                77.6128

                     13                     14                     15
                      A                      A                      A
 Frequencies --    379.7155               402.9911               466.7567
 Red. masses --     11.7480                18.6581                18.3528
 Frc consts  --      0.9980                 1.7853                 2.3558
 IR Inten    --     36.9407                35.2904                28.2397

                     16                     17                     18
                      A                      A                      A
 Frequencies --    494.1661               550.1783               598.4911
 Red. masses --     14.3353                17.9980                17.7943
 Frc consts  --      2.0625                 3.2098                 3.7553
 IR Inten    --     50.7587                 3.4307                 4.3704

                     19                     20                     21
                      A                      A                      A
 Frequencies --    646.6823               758.8973               852.9125
 Red. masses --     16.9718                16.5830                 2.0657
 Frc consts  --      4.1818                 5.6270                 0.8854
 IR Inten    --     13.2893                65.1299               141.5580

                     22                     23                     24
                      A                      A                      A
 Frequencies --    930.1942               986.6867              1150.0089
 Red. masses --      9.8534                 7.5919                13.6227
 Frc consts  --      5.0232                 4.3547                10.6149
 IR Inten    --    260.6597                46.8381               198.3502

                     25                     26                     27
                      A                      A                      A
 Frequencies --   1232.0023              1252.5665              1257.1076
 Red. masses --     13.3323                12.9844                14.3857
 Frc consts  --     11.9228                12.0026                13.3944
 IR Inten    --    158.4224                 7.7704               239.8618

                     28                     29                     30
                      A                      A                      A
 Frequencies --   1285.4722              1338.2612              3769.8644
 Red. masses --     16.6273                12.6212                 1.0662
 Frc consts  --     16.1881                13.3178                 8.9276
 IR Inten    --    422.6571               246.5936               159.3337

 - Thermochemistry -
 -------------------
 Temperature   298.150 Kelvin.  Pressure   1.00000 Atm.
 Atom     1 has atomic number  6 and mass  12.00000

 Molecular mass:   199.95666 amu.
 Principal axes and moments of inertia in atomic units:
                           1         2         3
     Eigenvalues --  1112.304302630.733352768.13149
           X            0.86372   0.01651  -0.50371
           Y            0.24404   0.86077   0.44667
           Z            0.44095  -0.50872   0.73944
 This molecule is an asymmetric top.
 Rotational symmetry number  1.
 Warning -- assumption of classical behavior for rotation
           may cause significant error
 Rotational temperatures (Kelvin)      0.07787     0.03292     0.03129
 Rotational constants (GHZ):           1.62252     0.68602     0.65197
    1 imaginary frequencies ignored.
 Zero-point vibrational energy     122869.4 (Joules/Mol)
                                   29.36649 (Kcal/Mol)
 Warning -- explicit consideration of  17 degrees of freedom as
           vibrations may cause significant error
 Vibrational temperatures:     54.59    76.30   108.08   180.31   268.14
          (Kelvin)            321.30   322.17   384.78   450.92   470.01
                              513.18   546.33   579.81   671.56   710.99
                              791.58   861.10   930.43  1091.88  1227.15
                             1338.34  1419.62  1654.61  1772.58  1802.16
                             1808.70  1849.51  1925.46  5423.99

 Zero-point correction=                           0.046798 (Hartree/Particle)
 Thermal correction to Energy=                    0.057957
 Thermal correction to Enthalpy=                  0.058901
 Thermal correction to Gibbs Free Energy=         0.008315
 Sum of electronic and zero-point Energies=          -1199.612043
 Sum of electronic and thermal Energies=             -1199.600885
 Sum of electronic and thermal Enthalpies=           -1199.599940
 Sum of electronic and thermal Free Energies=        -1199.650527

                     E (Thermal)             CV                S
                      KCal/Mol        Cal/Mol-Kelvin    Cal/Mol-Kelvin
 Total                   36.369             37.713            106.468
 Electronic               0.000              0.000              0.000
 Translational            0.889              2.981             41.783
 Rotational               0.889              2.981             30.472
 Vibrational             34.591             31.752             34.212
 Vibration     1          0.594              1.982              5.364
 Vibration     2          0.596              1.976              4.701
 Vibration     3          0.599              1.966              4.014
 Vibration     4          0.610              1.928              3.017
 Vibration     5          0.632              1.859              2.264
 Vibration     6          0.649              1.806              1.932
 Vibration     7          0.649              1.805              1.927
 Vibration     8          0.673              1.733              1.613
 Vibration     9          0.701              1.648              1.344
 Vibration    10          0.710              1.622              1.276
 Vibration    11          0.732              1.562              1.137
 Vibration    12          0.750              1.513              1.040
 Vibration    13          0.768              1.464              0.952
 Vibration    14          0.824              1.324              0.747
 Vibration    15          0.850              1.263              0.673
 Vibration    16          0.905              1.139              0.544
 Vibration    17          0.956              1.035              0.452

 Normal termination of Gaussian 16 at Fri May 23 05:37:45 2025.
