 Gaussian 16, Revision C.01,
 Gaussian 16:  ES64L-G16RevC.01  3-Jul-2019

 ----------------------------------------------------------------------
 #P wb97xd/6-311++G(d,p) Symm(None) scf(xqc) pop(None) freq opt(CalcFC,
  Tight)
 ----------------------------------------------------------------------

 ------------------------------
 Gaussian input prepared by ASE
 ------------------------------
 Symbolic Z-matrix:
 Charge =  0 Multiplicity = 1

 SCF Done:  E(RwB97XD) =  -1199.56595282     A.U. after   21 cycles
 SCF Done:  E(RwB97XD) =  -1199.57230670     A.U. after   17 cycles
 SCF Done:  E(RwB97XD) =  -1199.57757181     A.U. after   18 cycles
 SCF Done:  E(RwB97XD) =  -1199.56229631     A.U. after   19 cycles
 SCF Done:  E(RwB97XD) =  -1199.59205711     A.U. after   19 cycles
 SCF Done:  E(RwB97XD) =  -1199.58860688     A.U. after   16 cycles
 SCF Done:  E(RwB97XD) =  -1199.59598974     A.U. after   18 cycles
 SCF Done:  E(RwB97XD) =  -1199.59323250     A.U. after   18 cycles
 SCF Done:  E(RwB97XD) =  -1199.58150254     A.U. after   19 cycles
 SCF Done:  E(RwB97XD) =  -1199.58459029     A.U. after   19 cycles
 SCF Done:  E(RwB97XD) =  -1199.60000992     A.U. after   13 cycles
 SCF Done:  E(RwB97XD) =  -1199.60001118     A.U. after   15 cycles
 SCF Done:  E(RwB97XD) =  -1199.60001132     A.U. after   10 cycles
 SCF Done:  E(RwB97XD) =  -1199.60001139     A.U. after   10 cycles
 SCF Done:  E(RwB97XD) =  -1199.60001140     A.U. after   10 cycles
 SCF Done:  E(RwB97XD) =  -1199.60001140     A.U. after    6 cycles
 SCF Done:  E(RwB97XD) =  -1199.60001140     A.U. after    5 cycles
 SCF Done:  E(RwB97XD) =  -1199.60001140     A.U. after    8 cycles
 SCF Done:  E(RwB97XD) =  -1199.60001140     A.U. after    8 cycles
 Optimization completed.
    -- Stationary point found.
 Normal termination of Gaussian 16 at Fri May 23 07:40:38 2025.

 ----------------------------------------------------------------------
 #P Geom=AllCheck Guess=TCheck SCRF=Check GenChk RwB97XD/6-311++G(d,p)
 Freq
 ----------------------------------------------------------------------

 Structure from the checkpoint file:  "/tmp/Gau-83656.chk"
 ------------------------------
 Gaussian input prepared by ASE
 ------------------------------
 Charge =  0 Multiplicity = 1

                          Input orientation:
 ---------------------------------------------------------------------
 Center     Atomic      Atomic             Coordinates (Angstroms)
 Number     Number       Type             X           Y           Z
 ---------------------------------------------------------------------
      1          6           0       -0.805253    0.976671    1.084925
      2          6           0       -0.104240    0.164782   -0.047027
      3          9           0       -0.577868   -1.064311   -0.101981
      4          9           0       -0.295806    0.767850   -1.276052
      5         16           0        1.788897   -0.013911    0.157116
      6          8           0       -1.935962    0.947406   -1.641536
      7          8           0        2.238751   -0.611754   -1.092571
      8          8           0        1.934803    1.634247    0.096914
      9          9           0       -0.114420    0.739531    2.216302
     10          9           0       -0.783426    2.269667    0.839052
     11          9           0       -2.045057    0.571096    1.274566
     12          1           0        2.769135    1.898014    0.499876
 ---------------------------------------------------------------------

 SCF Done:  E(RwB97XD) =  -1199.60001140     A.U. after    1 cycles

 Isotropic polarizability for W=    0.000000       63.34 Bohr**3.
 End of Minotr F.D. properties file   721 does not exist.

                      1                      2                      3
                      A                      A                      A
 Frequencies --     61.3500                72.1611                92.0983
 Red. masses --      8.8110                17.0430                15.9133
 Frc consts  --      0.0195                 0.0523                 0.0795
 IR Inten    --      4.3433                 0.9682                 1.0713

                      4                      5                      6
                      A                      A                      A
 Frequencies --    137.0160               146.6973               194.5870
 Red. masses --     11.4294                12.3489                10.4461
 Frc consts  --      0.1264                 0.1566                 0.2330
 IR Inten    --      4.6353                 2.9717                 4.1708

                      7                      8                      9
                      A                      A                      A
 Frequencies --    214.8614               230.2132               254.5605
 Red. masses --      2.6720                10.0390                 2.7644
 Frc consts  --      0.0727                 0.3135                 0.1055
 IR Inten    --     55.0286                13.6924                40.4718

                     10                     11                     12
                      A                      A                      A
 Frequencies --    272.8869               329.4658               363.7743
 Red. masses --      8.7611                 7.3874                13.7280
 Frc consts  --      0.3844                 0.4725                 1.0703
 IR Inten    --      3.7143                 5.1383                 0.7637

                     13                     14                     15
                      A                      A                      A
 Frequencies --    401.3926               421.3787               458.5577
 Red. masses --     15.6470                16.8770                15.4262
 Frc consts  --      1.4853                 1.7656                 1.9112
 IR Inten    --     14.0766                 4.5123                18.1639

                     16                     17                     18
                      A                      A                      A
 Frequencies --    534.7577               545.8857               593.2850
 Red. masses --     14.4684                17.9869                17.3412
 Frc consts  --      2.4377                 3.1580                 3.5963
 IR Inten    --     91.8793                 7.2403                 9.4766

                     19                     20                     21
                      A                      A                      A
 Frequencies --    636.3311               748.7144               760.7581
 Red. masses --     16.8861                15.7289                17.2202
 Frc consts  --      4.0285                 5.1950                 5.8720
 IR Inten    --     20.6274               107.9338                31.6364

                     22                     23                     24
                      A                      A                      A
 Frequencies --    966.7993              1035.6900              1105.6679
 Red. masses --     10.3942                 6.3593                 1.3097
 Frc consts  --      5.7242                 4.0190                 0.9434
 IR Inten    --     77.1291               220.9346               124.3600

                     25                     26                     27
                      A                      A                      A
 Frequencies --   1175.2458              1227.7973              1248.7312
 Red. masses --     10.2234                14.1388                16.5520
 Frc consts  --      8.3196                12.5579                15.2068
 IR Inten    --    143.2072               112.0111               311.9259

                     28                     29                     30
                      A                      A                      A
 Frequencies --   1282.6900              1345.3972              3868.4354
 Red. masses --     13.1571                12.7791                 1.0673
 Frc consts  --     12.7542                13.6287                 9.4106
 IR Inten    --    281.3113               129.8668               174.2269

 - Thermochemistry -
 -------------------
 Temperature   298.150 Kelvin.  Pressure   1.00000 Atm.
 Atom     1 has atomic number  6 and mass  12.00000

 Molecular mass:   199.95666 amu.
 Principal axes and moments of inertia in atomic units:
                           1         2         3
     Eigenvalues --  1345.997992083.846552454.28405
           X            0.92930   0.33933   0.14580
           Y           -0.25448   0.30218   0.91866
           Z           -0.26767   0.89081  -0.36717
 This molecule is an asymmetric top.
 Rotational symmetry number  1.
 Warning -- assumption of classical behavior for rotation
           may cause significant error
 Rotational temperatures (Kelvin)      0.06435     0.04156     0.03529
 Rotational constants (GHZ):           1.34082     0.86606     0.73534
 Zero-point vibrational energy     123976.1 (Joules/Mol)
                                   29.63100 (Kcal/Mol)
 Warning -- explicit consideration of  18 degrees of freedom as
           vibrations may cause significant error
 Vibrational temperatures:     88.27   103.82   132.51   197.14   211.06
          (Kelvin)            279.97   309.14   331.23   366.26   392.62
                              474.03   523.39   577.51   606.27   659.76
                              769.40   785.41   853.60   915.54  1077.23
                             1094.56  1391.01  1490.13  1590.81  1690.92
                             1766.53  1796.65  1845.50  1935.73  5565.82

 Zero-point correction=                           0.047220 (Hartree/Particle)
 Thermal correction to Energy=                    0.058909
 Thermal correction to Enthalpy=                  0.059853
 Thermal correction to Gibbs Free Energy=         0.009017
 Sum of electronic and zero-point Energies=          -1199.552791
 Sum of electronic and thermal Energies=             -1199.541103
 Sum of electronic and thermal Enthalpies=           -1199.540158
 Sum of electronic and thermal Free Energies=        -1199.590994

                     E (Thermal)             CV                S
                      KCal/Mol        Cal/Mol-Kelvin    Cal/Mol-Kelvin
 Total                   36.966             39.693            106.993
 Electronic               0.000              0.000              0.000
 Translational            0.889              2.981             41.783
 Rotational               0.889              2.981             30.310
 Vibrational             35.188             33.731             34.899
 Vibration     1          0.597              1.973              4.413
 Vibration     2          0.598              1.967              4.094
 Vibration     3          0.602              1.955              3.615
 Vibration     4          0.614              1.916              2.845
 Vibration     5          0.617              1.906              2.715
 Vibration     6          0.635              1.847              2.184
 Vibration     7          0.645              1.818              2.002
 Vibration     8          0.652              1.795              1.877
 Vibration     9          0.665              1.755              1.699
 Vibration    10          0.676              1.723              1.578
 Vibration    11          0.712              1.617              1.263
 Vibration    12          0.737              1.547              1.106
 Vibration    13          0.767              1.467              0.958
 Vibration    14          0.784              1.424              0.887
 Vibration    15          0.817              1.342              0.770
 Vibration    16          0.890              1.173              0.577
 Vibration    17          0.901              1.149              0.553
 Vibration    18          0.951              1.046              0.461

 Optimization completed.
    -- Stationary point found.
 Normal termination of Gaussian 16 at Fri May 23 07:41:59 2025.
