 Gaussian 16, Revision C.01,
 Gaussian 16:  ES64L-G16RevC.01  3-Jul-2019

 ----------------------------------------------------------------------
 #P wb97xd/6-311++G(d,p) Symm(None) scf(xqc) pop(None) opt(NoFreeze,TS,
 CalcAll,NoEigentest,MaxCycle=999)
 ----------------------------------------------------------------------

 ------------------------------
 Gaussian input prepared by ASE
 ------------------------------
 Symbolic Z-matrix:
 Charge =  0 Multiplicity = 1

 SCF Done:  E(RwB97XD) =  -1199.66039420     A.U. after   17 cycles
 SCF Done:  E(RwB97XD) =  -1199.67284216     A.U. after   17 cycles
 SCF Done:  E(RwB97XD) =  -1199.67421068     A.U. after   15 cycles
 SCF Done:  E(RwB97XD) =  -1199.67371741     A.U. after   18 cycles
 SCF Done:  E(RwB97XD) =  -1199.67445348     A.U. after   15 cycles
 SCF Done:  E(RwB97XD) =  -1199.67453086     A.U. after   14 cycles
 SCF Done:  E(RwB97XD) =  -1199.67453217     A.U. after   11 cycles

 Isotropic polarizability for W=    0.000000       70.57 Bohr**3.
 End of Minotr F.D. properties file   721 does not exist.

 Optimization completed.
    -- Stationary point found.

                          Input orientation:
 ---------------------------------------------------------------------
 Center     Atomic      Atomic             Coordinates (Angstroms)
 Number     Number       Type             X           Y           Z
 ---------------------------------------------------------------------
      1          6           0       -0.222944    1.388756   -0.059762
      2          6           0        0.014881   -0.002272   -0.169715
      3          9           0       -0.465578   -0.757631    0.808269
      4          9           0       -0.221359   -0.515751   -1.365770
      5         16           0        2.293048   -0.030200    0.157366
      6          8           0        2.127499   -0.176856    1.579716
      7          8           0        2.333382   -1.079219   -0.826466
      8          8           0        3.730538    0.647329   -0.089046
      9          9           0        1.700829    1.832011   -0.154252
     10          9           0       -0.503496    2.121143   -1.069354
     11          9           0       -0.441288    1.927161    1.076666
     12          1           0        3.758481    1.506020    0.352853
 ---------------------------------------------------------------------

 ******    1 imaginary frequencies (negative Signs) ******

                      1                      2                      3
                      A                      A                      A
 Frequencies --   -644.5062                35.9702                76.2384
 Red. masses --     14.0620                14.0706                 8.3197
 Frc consts  --      3.4415                 0.0107                 0.0285
 IR Inten    --    189.0724                 0.9748                 8.7915

                      4                      5                      6
                      A                      A                      A
 Frequencies --    169.8123               190.5062               197.3258
 Red. masses --     12.4457                11.9935                12.2877
 Frc consts  --      0.2115                 0.2565                 0.2819
 IR Inten    --     18.4786                 5.1062                 3.7954

                      7                      8                      9
                      A                      A                      A
 Frequencies --    214.9466               239.3263               276.7925
 Red. masses --     18.1001                 3.8641                 7.5924
 Frc consts  --      0.4927                 0.1304                 0.3427
 IR Inten    --      4.8814                15.5590                 6.3951

                     10                     11                     12
                      A                      A                      A
 Frequencies --    302.8547               329.3041               370.4503
 Red. masses --     13.5394                13.8901                11.1188
 Frc consts  --      0.7317                 0.8875                 0.8990
 IR Inten    --     12.5165                13.4445                64.6178

                     13                     14                     15
                      A                      A                      A
 Frequencies --    423.3059               436.3406               488.5169
 Red. masses --      3.5350                 4.4693                 6.8801
 Frc consts  --      0.3732                 0.5014                 0.9674
 IR Inten    --    152.7908                84.6207                36.1621

                     16                     17                     18
                      A                      A                      A
 Frequencies --    520.9529               545.6298               555.9146
 Red. masses --     10.4551                14.7115                15.1390
 Frc consts  --      1.6718                 2.5805                 2.7565
 IR Inten    --    116.1818               162.1163                96.1857

                     19                     20                     21
                      A                      A                      A
 Frequencies --    600.9838               680.3788               782.4074
 Red. masses --     16.9962                12.2732                15.9088
 Frc consts  --      3.6168                 3.3474                 5.7379
 IR Inten    --      8.9832                14.5986               222.0966

                     22                     23                     24
                      A                      A                      A
 Frequencies --    822.0812              1133.6494              1199.0198
 Red. masses --     17.0433                10.2485                 2.4239
 Frc consts  --      6.7863                 7.7601                 2.0532
 IR Inten    --    196.8658                74.2001               238.9573

                     25                     26                     27
                      A                      A                      A
 Frequencies --   1205.2991              1294.3888              1400.5293
 Red. masses --      2.1880                13.1134                13.2278
 Frc consts  --      1.8728                12.9447                15.2870
 IR Inten    --    199.6163               122.8329               195.3570

                     28                     29                     30
                      A                      A                      A
 Frequencies --   1458.0249              1559.0046              3831.2372
 Red. masses --     13.2549                12.5224                 1.0659
 Frc consts  --     16.6019                17.9321                 9.2179
 IR Inten    --    345.0319               702.6668               134.2269

 - Thermochemistry -
 -------------------
 Temperature   298.150 Kelvin.  Pressure   1.00000 Atm.
 Atom     1 has atomic number  6 and mass  12.00000

 Molecular mass:   199.95666 amu.
 Principal axes and moments of inertia in atomic units:
                           1         2         3
     Eigenvalues --  1275.746632105.550112372.76950
           X            0.93782   0.32693  -0.11663
           Y           -0.33832   0.93607  -0.09649
           Z            0.07763   0.12995   0.98848
 This molecule is an asymmetric top.
 Rotational symmetry number  1.
 Warning -- assumption of classical behavior for rotation
           may cause significant error
 Rotational temperatures (Kelvin)      0.06789     0.04114     0.03650
 Rotational constants (GHZ):           1.41465     0.85714     0.76061
    1 imaginary frequencies ignored.
 Zero-point vibrational energy     127648.7 (Joules/Mol)
                                   30.50877 (Kcal/Mol)
 Warning -- explicit consideration of  18 degrees of freedom as
           vibrations may cause significant error
 Vibrational temperatures:     51.75   109.69   244.32   274.10   283.91
          (Kelvin)            309.26   344.34   398.24   435.74   473.80
                              533.00   609.04   627.80   702.87   749.54
                              785.04   799.84   864.68   978.91  1125.71
                             1182.79  1631.07  1725.12  1734.16  1862.34
                             2015.05  2097.77  2243.06  5512.30

 Zero-point correction=                           0.048619 (Hartree/Particle)
 Thermal correction to Energy=                    0.059380
 Thermal correction to Enthalpy=                  0.060324
 Thermal correction to Gibbs Free Energy=         0.011438
 Sum of electronic and zero-point Energies=          -1199.625913
 Sum of electronic and thermal Energies=             -1199.615152
 Sum of electronic and thermal Enthalpies=           -1199.614208
 Sum of electronic and thermal Free Energies=        -1199.663095

                     E (Thermal)             CV                S
                      KCal/Mol        Cal/Mol-Kelvin    Cal/Mol-Kelvin
 Total                   37.262             37.439            102.891
 Electronic               0.000              0.000              0.000
 Translational            0.889              2.981             41.783
 Rotational               0.889              2.981             30.234
 Vibrational             35.484             31.478             30.874
 Vibration     1          0.594              1.982              5.470
 Vibration     2          0.599              1.965              3.985
 Vibration     3          0.625              1.880              2.438
 Vibration     4          0.634              1.853              2.223
 Vibration     5          0.637              1.844              2.158
 Vibration     6          0.645              1.818              2.001
 Vibration     7          0.657              1.780              1.808
 Vibration     8          0.678              1.716              1.553
 Vibration     9          0.694              1.668              1.401
 Vibration    10          0.712              1.617              1.263
 Vibration    11          0.742              1.533              1.078
 Vibration    12          0.785              1.420              0.881
 Vibration    13          0.797              1.391              0.838
 Vibration    14          0.844              1.276              0.687
 Vibration    15          0.876              1.204              0.608
 Vibration    16          0.901              1.149              0.553
 Vibration    17          0.911              1.127              0.532
 Vibration    18          0.959              1.030              0.448

 Normal termination of Gaussian 16 at Fri May 23 05:15:26 2025.
