 Gaussian 16, Revision C.01,
 Gaussian 16:  ES64L-G16RevC.01  3-Jul-2019

 ----------------------------------------------------------------------
 #P wb97xd/6-311++G(d,p) Symm(None) scf(xqc) pop(None) freq opt(CalcFC,
  Tight)
 ----------------------------------------------------------------------

 ------------------------------
 Gaussian input prepared by ASE
 ------------------------------
 Symbolic Z-matrix:
 Charge =  0 Multiplicity = 1

 SCF Done:  E(RwB97XD) =  -1199.70839428     A.U. after   16 cycles
 SCF Done:  E(RwB97XD) =  -1199.72565642     A.U. after   15 cycles
 SCF Done:  E(RwB97XD) =  -1199.71355583     A.U. after   16 cycles
 SCF Done:  E(RwB97XD) =  -1199.73160051     A.U. after   13 cycles
 SCF Done:  E(RwB97XD) =  -1199.73218428     A.U. after   13 cycles
 SCF Done:  E(RwB97XD) =  -1199.73239352     A.U. after   13 cycles
 SCF Done:  E(RwB97XD) =  -1199.73254407     A.U. after   11 cycles
 SCF Done:  E(RwB97XD) =  -1199.73261090     A.U. after   12 cycles
 SCF Done:  E(RwB97XD) =  -1199.73269734     A.U. after   12 cycles
 SCF Done:  E(RwB97XD) =  -1199.73276884     A.U. after   12 cycles
 SCF Done:  E(RwB97XD) =  -1199.73663905     A.U. after   12 cycles
 SCF Done:  E(RwB97XD) =  -1199.73664490     A.U. after   10 cycles
 SCF Done:  E(RwB97XD) =  -1199.73664579     A.U. after   10 cycles
 SCF Done:  E(RwB97XD) =  -1199.73664579     A.U. after    7 cycles
 SCF Done:  E(RwB97XD) =  -1199.73664606     A.U. after   10 cycles
 SCF Done:  E(RwB97XD) =  -1199.73664613     A.U. after    9 cycles
 SCF Done:  E(RwB97XD) =  -1199.73664613     A.U. after    6 cycles
 SCF Done:  E(RwB97XD) =  -1199.73664613     A.U. after    5 cycles
 SCF Done:  E(RwB97XD) =  -1199.73664613     A.U. after    5 cycles
 Optimization completed.
    -- Stationary point found.
 Normal termination of Gaussian 16 at Fri May 23 05:29:20 2025.

 ----------------------------------------------------------------------
 #P Geom=AllCheck Guess=TCheck SCRF=Check GenChk RwB97XD/6-311++G(d,p)
 Freq
 ----------------------------------------------------------------------

 Structure from the checkpoint file:  "/tmp/Gau-16094.chk"
 ------------------------------
 Gaussian input prepared by ASE
 ------------------------------
 Charge =  0 Multiplicity = 1

                          Input orientation:
 ---------------------------------------------------------------------
 Center     Atomic      Atomic             Coordinates (Angstroms)
 Number     Number       Type             X           Y           Z
 ---------------------------------------------------------------------
      1          6           0        4.084519    0.020034    0.318630
      2          6           0        3.269600    0.095270    1.641824
      3          9           0        2.931148   -1.140439    2.026691
      4          9           0        4.040436    0.653197    2.583100
      5         16           0        1.669422    1.142692    1.695545
      6          8           0       -0.141542    0.751241    0.011089
      7          8           0        2.053061    2.542623    1.555015
      8          8           0        1.243000    0.487597    0.193102
      9          9           0        3.511692   -0.799738   -0.549085
     10          9           0        4.196505    1.227389   -0.222398
     11          9           0        5.305194   -0.440888    0.589803
     12          1           0       -0.115548    1.424502   -0.680836
 ---------------------------------------------------------------------

 SCF Done:  E(RwB97XD) =  -1199.73664613     A.U. after    1 cycles

 Isotropic polarizability for W=    0.000000       61.12 Bohr**3.
 End of Minotr F.D. properties file   721 does not exist.

                      1                      2                      3
                      A                      A                      A
 Frequencies --     31.4043                70.9273                88.2893
 Red. masses --     13.2107                17.1911                 9.6115
 Frc consts  --      0.0077                 0.0510                 0.0441
 IR Inten    --      0.1777                 0.2107                 6.1481

                      4                      5                      6
                      A                      A                      A
 Frequencies --    129.1227               171.3474               218.1255
 Red. masses --      9.9064                13.6488                10.9677
 Frc consts  --      0.0973                 0.2361                 0.3075
 IR Inten    --      0.1731                 3.2997                 4.9545

                      7                      8                      9
                      A                      A                      A
 Frequencies --    229.4853               293.0358               300.8391
 Red. masses --     18.0888                 7.4114                13.3128
 Frc consts  --      0.5613                 0.3750                 0.7099
 IR Inten    --      0.7420                 2.0061                 8.9994

                     10                     11                     12
                      A                      A                      A
 Frequencies --    315.2656               341.1210               364.0497
 Red. masses --     14.0723                 1.5218                13.4975
 Frc consts  --      0.8241                 0.1043                 1.0540
 IR Inten    --      4.9824               101.0668                 3.7843

                     13                     14                     15
                      A                      A                      A
 Frequencies --    429.0549               459.9804               484.2957
 Red. masses --     14.1495                 6.7347                20.0804
 Frc consts  --      1.5347                 0.8396                 2.7749
 IR Inten    --     17.0579                20.6926                38.0968

                     16                     17                     18
                      A                      A                      A
 Frequencies --    546.9334               596.2745               636.2568
 Red. masses --     18.1205                17.8796                16.9805
 Frc consts  --      3.1937                 3.7454                 4.0501
 IR Inten    --      3.2079                 2.6070                17.6707

                     19                     20                     21
                      A                      A                      A
 Frequencies --    714.7673               762.5037               987.3909
 Red. masses --     16.7365                17.3026                13.6266
 Frc consts  --      5.0378                 5.9271                 7.8274
 IR Inten    --     76.1474                13.6506                84.8723

                     22                     23                     24
                      A                      A                      A
 Frequencies --    996.0824              1144.3271              1198.6419
 Red. masses --     14.9673                13.6633                13.6898
 Frc consts  --      8.7495                10.5416                11.5885
 IR Inten    --      7.8841               178.3080                81.5512

                     25                     26                     27
                      A                      A                      A
 Frequencies --   1220.6407              1237.0991              1262.3898
 Red. masses --     13.6229                14.6904                14.3773
 Frc consts  --     11.9590                13.2462                13.4994
 IR Inten    --    203.3432               136.9943               510.6823

                     28                     29                     30
                      A                      A                      A
 Frequencies --   1330.9888              1431.5752              3823.2148
 Red. masses --     12.8807                 1.1112                 1.0686
 Frc consts  --     13.4443                 1.3417                 9.2031
 IR Inten    --    139.5705                56.5662                84.6372

 - Thermochemistry -
 -------------------
 Temperature   298.150 Kelvin.  Pressure   1.00000 Atm.
 Atom     1 has atomic number  6 and mass  12.00000

 Molecular mass:   199.95666 amu.
 Principal axes and moments of inertia in atomic units:
                           1         2         3
     Eigenvalues --  1273.524382278.668542543.11712
           X            0.93274   0.17095   0.31745
           Y           -0.35899   0.35841   0.86178
           Z           -0.03354   0.91778  -0.39567
 This molecule is an asymmetric top.
 Rotational symmetry number  1.
 Warning -- assumption of classical behavior for rotation
           may cause significant error
 Rotational temperatures (Kelvin)      0.06801     0.03801     0.03406
 Rotational constants (GHZ):           1.41712     0.79202     0.70966
 Zero-point vibrational energy     130485.3 (Joules/Mol)
                                   31.18672 (Kcal/Mol)
 Warning -- explicit consideration of  17 degrees of freedom as
           vibrations may cause significant error
 Vibrational temperatures:     45.18   102.05   127.03   185.78   246.53
          (Kelvin)            313.83   330.18   421.61   432.84   453.60
                              490.80   523.79   617.31   661.81   696.79
                              786.92   857.91   915.43  1028.39  1097.07
                             1420.64  1433.14  1646.43  1724.58  1756.23
                             1779.91  1816.30  1915.00  2059.72  5500.75

 Zero-point correction=                           0.049699 (Hartree/Particle)
 Thermal correction to Energy=                    0.060896
 Thermal correction to Enthalpy=                  0.061841
 Thermal correction to Gibbs Free Energy=         0.011398
 Sum of electronic and zero-point Energies=          -1199.686947
 Sum of electronic and thermal Energies=             -1199.675750
 Sum of electronic and thermal Enthalpies=           -1199.674806
 Sum of electronic and thermal Free Energies=        -1199.725248

                     E (Thermal)             CV                S
                      KCal/Mol        Cal/Mol-Kelvin    Cal/Mol-Kelvin
 Total                   38.213             38.105            106.165
 Electronic               0.000              0.000              0.000
 Translational            0.889              2.981             41.783
 Rotational               0.889              2.981             30.380
 Vibrational             36.436             32.144             34.002
 Vibration     1          0.594              1.983              5.739
 Vibration     2          0.598              1.968              4.127
 Vibration     3          0.601              1.957              3.698
 Vibration     4          0.612              1.924              2.959
 Vibration     5          0.626              1.878              2.421
 Vibration     6          0.646              1.813              1.975
 Vibration     7          0.652              1.796              1.883
 Vibration     8          0.688              1.687              1.456
 Vibration     9          0.693              1.672              1.412
 Vibration    10          0.703              1.645              1.335
 Vibration    11          0.721              1.593              1.207
 Vibration    12          0.738              1.546              1.105
 Vibration    13          0.790              1.407              0.862
 Vibration    14          0.818              1.339              0.766
 Vibration    15          0.840              1.285              0.699
 Vibration    16          0.902              1.146              0.551
 Vibration    17          0.954              1.040              0.456

 Optimization completed.
    -- Stationary point found.
 Normal termination of Gaussian 16 at Fri May 23 05:30:33 2025.
