 Gaussian 16, Revision C.01,
 Gaussian 16:  ES64L-G16RevC.01  3-Jul-2019

 ----------------------------------------------------------------------
 #P wb97xd/6-311++G(d,p) Symm(None) scf(xqc) pop(None) freq opt(CalcFC,
  Tight)
 ----------------------------------------------------------------------

 ------------------------------
 Gaussian input prepared by ASE
 ------------------------------
 Symbolic Z-matrix:
 Charge =  0 Multiplicity = 1

 SCF Done:  E(RwB97XD) =  -1199.72511354     A.U. after   15 cycles
 SCF Done:  E(RwB97XD) =  -1199.73340158     A.U. after   16 cycles
 SCF Done:  E(RwB97XD) =  -1199.70932146     A.U. after   17 cycles
 SCF Done:  E(RwB97XD) =  -1199.73422681     A.U. after   14 cycles
 SCF Done:  E(RwB97XD) =  -1199.71568002     A.U. after   16 cycles
 SCF Done:  E(RwB97XD) =  -1199.73559459     A.U. after   13 cycles
 SCF Done:  E(RwB97XD) =  -1199.73596368     A.U. after   13 cycles
 SCF Done:  E(RwB97XD) =  -1199.73615570     A.U. after   13 cycles
 SCF Done:  E(RwB97XD) =  -1199.73644043     A.U. after   14 cycles
 SCF Done:  E(RwB97XD) =  -1199.73690195     A.U. after   14 cycles
 SCF Done:  E(RwB97XD) =  -1199.73890565     A.U. after   13 cycles
 SCF Done:  E(RwB97XD) =  -1199.73890511     A.U. after   13 cycles
 SCF Done:  E(RwB97XD) =  -1199.73904587     A.U. after   13 cycles
 SCF Done:  E(RwB97XD) =  -1199.73907570     A.U. after   11 cycles
 SCF Done:  E(RwB97XD) =  -1199.73907973     A.U. after   11 cycles
 SCF Done:  E(RwB97XD) =  -1199.73907994     A.U. after    9 cycles
 SCF Done:  E(RwB97XD) =  -1199.73908007     A.U. after    9 cycles
 SCF Done:  E(RwB97XD) =  -1199.73908009     A.U. after    8 cycles
 SCF Done:  E(RwB97XD) =  -1199.73908009     A.U. after    6 cycles
 Optimization completed.
    -- Stationary point found.
 Normal termination of Gaussian 16 at Fri May 23 05:26:55 2025.

 ----------------------------------------------------------------------
 #P Geom=AllCheck Guess=TCheck SCRF=Check GenChk RwB97XD/6-311++G(d,p)
 Freq
 ----------------------------------------------------------------------

 Structure from the checkpoint file:  "/tmp/Gau-17609.chk"
 ------------------------------
 Gaussian input prepared by ASE
 ------------------------------
 Charge =  0 Multiplicity = 1

                          Input orientation:
 ---------------------------------------------------------------------
 Center     Atomic      Atomic             Coordinates (Angstroms)
 Number     Number       Type             X           Y           Z
 ---------------------------------------------------------------------
      1          6           0       -1.427805    2.423927   -3.014839
      2          6           0       -0.414941    1.603040   -2.181073
      3          9           0       -0.572290    0.311641   -2.441457
      4          9           0        0.817885    1.996687   -2.502175
      5         16           0       -0.730478    1.915448   -0.298884
      6          8           0        1.339176    0.395053   -0.177358
      7          8           0       -1.547119    0.772876    0.113377
      8          8           0        0.855045    1.680610    0.184703
      9          9           0       -2.671781    2.102951   -2.666980
     10          9           0       -1.244312    3.724429   -2.782135
     11          9           0       -1.267712    2.192265   -4.310513
     12          1           0        1.047653   -0.151395    0.565232
 ---------------------------------------------------------------------

 SCF Done:  E(RwB97XD) =  -1199.73908009     A.U. after    1 cycles

 Isotropic polarizability for W=    0.000000       60.43 Bohr**3.
 End of Minotr F.D. properties file   721 does not exist.

                      1                      2                      3
                      A                      A                      A
 Frequencies --     40.4718                57.4131               107.1816
 Red. masses --     14.4225                16.2415                 8.9652
 Frc consts  --      0.0139                 0.0315                 0.0607
 IR Inten    --      0.0465                 0.0285                 1.2321

                      4                      5                      6
                      A                      A                      A
 Frequencies --    136.4141               189.5488               207.4749
 Red. masses --     14.2530                 7.3071                 6.4502
 Frc consts  --      0.1563                 0.1547                 0.1636
 IR Inten    --      5.1713                12.6877                 7.9411

                      7                      8                      9
                      A                      A                      A
 Frequencies --    231.6933               264.5749               285.9712
 Red. masses --      9.5617                 4.3562                12.4484
 Frc consts  --      0.3024                 0.1797                 0.5998
 IR Inten    --      7.3685                23.8411                 1.1451

                     10                     11                     12
                      A                      A                      A
 Frequencies --    306.3607               357.5870               366.4800
 Red. masses --      3.4482                 4.1886                18.5594
 Frc consts  --      0.1907                 0.3156                 1.4686
 IR Inten    --     50.9755                59.5805                 0.7218

                     13                     14                     15
                      A                      A                      A
 Frequencies --    441.6969               472.1458               542.3046
 Red. masses --      9.9485                13.0217                18.1123
 Frc consts  --      1.1435                 1.7103                 3.1384
 IR Inten    --     17.4536                19.8772                 3.3864

                     16                     17                     18
                      A                      A                      A
 Frequencies --    556.2026               599.1777               643.1510
 Red. masses --     14.3790                17.8299                18.2337
 Frc consts  --      2.6209                 3.7715                 4.4438
 IR Inten    --     28.5226                 2.2885                35.7471

                     19                     20                     21
                      A                      A                      A
 Frequencies --    667.6759               758.2254               949.1108
 Red. masses --     17.4614                17.1688                13.7266
 Frc consts  --      4.5863                 5.8155                 7.2853
 IR Inten    --     50.2983                18.4440                99.1532

                     22                     23                     24
                      A                      A                      A
 Frequencies --    955.7000              1161.2783              1211.4102
 Red. masses --     15.1633                13.6752                17.1650
 Frc consts  --      8.1600                10.8657                14.8414
 IR Inten    --     25.4893               192.6155                 8.2243

                     25                     26                     27
                      A                      A                      A
 Frequencies --   1226.6884              1239.7944              1252.3456
 Red. masses --     12.9387                13.0976                14.0386
 Frc consts  --     11.4712                11.8616                12.9725
 IR Inten    --    105.0062               227.9587               475.0380

                     28                     29                     30
                      A                      A                      A
 Frequencies --   1353.7748              1437.4595              3806.8924
 Red. masses --     12.6668                 1.1064                 1.0685
 Frc consts  --     13.6776                 1.3469                 9.1240
 IR Inten    --    137.6497                54.5771                75.1992

 - Thermochemistry -
 -------------------
 Temperature   298.150 Kelvin.  Pressure   1.00000 Atm.
 Atom     1 has atomic number  6 and mass  12.00000

 Molecular mass:   199.95666 amu.
 Principal axes and moments of inertia in atomic units:
                           1         2         3
     Eigenvalues --  1081.002982422.316382648.42093
           X            0.45646   0.84235   0.28654
           Y           -0.35358  -0.12380   0.92718
           Z            0.81648  -0.52453   0.24133
 This molecule is an asymmetric top.
 Rotational symmetry number  1.
 Warning -- assumption of classical behavior for rotation
           may cause significant error
 Rotational temperatures (Kelvin)      0.08012     0.03576     0.03270
 Rotational constants (GHZ):           1.66951     0.74505     0.68144
 Zero-point vibrational energy     130549.7 (Joules/Mol)
                                   31.20213 (Kcal/Mol)
 Warning -- explicit consideration of  17 degrees of freedom as
           vibrations may cause significant error
 Vibrational temperatures:     58.23    82.60   154.21   196.27   272.72
          (Kelvin)            298.51   333.36   380.66   411.45   440.78
                              514.49   527.28   635.50   679.31   780.26
                              800.25   862.08   925.35   960.64  1090.92
                             1365.56  1375.04  1670.82  1742.95  1764.93
                             1783.79  1801.85  1947.78  2068.18  5477.27

 Zero-point correction=                           0.049724 (Hartree/Particle)
 Thermal correction to Energy=                    0.060866
 Thermal correction to Enthalpy=                  0.061810
 Thermal correction to Gibbs Free Energy=         0.011693
 Sum of electronic and zero-point Energies=          -1199.689356
 Sum of electronic and thermal Energies=             -1199.678214
 Sum of electronic and thermal Enthalpies=           -1199.677270
 Sum of electronic and thermal Free Energies=        -1199.727387

                     E (Thermal)             CV                S
                      KCal/Mol        Cal/Mol-Kelvin    Cal/Mol-Kelvin
 Total                   38.194             38.069            105.481
 Electronic               0.000              0.000              0.000
 Translational            0.889              2.981             41.783
 Rotational               0.889              2.981             30.318
 Vibrational             36.417             32.108             33.380
 Vibration     1          0.594              1.981              5.236
 Vibration     2          0.596              1.975              4.544
 Vibration     3          0.606              1.943              3.319
 Vibration     4          0.614              1.917              2.854
 Vibration     5          0.633              1.854              2.232
 Vibration     6          0.641              1.829              2.066
 Vibration     7          0.653              1.793              1.866
 Vibration     8          0.671              1.738              1.631
 Vibration     9          0.684              1.700              1.498
 Vibration    10          0.697              1.662              1.382
 Vibration    11          0.733              1.560              1.133
 Vibration    12          0.739              1.541              1.094
 Vibration    13          0.801              1.379              0.821
 Vibration    14          0.829              1.312              0.732
 Vibration    15          0.897              1.157              0.560
 Vibration    16          0.912              1.126              0.531
 Vibration    17          0.957              1.034              0.451

 Optimization completed.
    -- Stationary point found.
 Normal termination of Gaussian 16 at Fri May 23 05:28:00 2025.
