 Gaussian 16, Revision C.01,
 Gaussian 16:  ES64L-G16RevC.01  3-Jul-2019

 ----------------------------------------------------------------------
 #P wb97xd/6-311++G(d,p) Symm(None) scf(xqc) pop(None) opt(NoFreeze,TS,
 CalcAll,NoEigentest,MaxCycle=999)
 ----------------------------------------------------------------------

 ------------------------------
 Gaussian input prepared by ASE
 ------------------------------
 Symbolic Z-matrix:
 Charge =  0 Multiplicity = 1

 SCF Done:  E(RwB97XD) =  -1199.64063758     A.U. after   21 cycles
 SCF Done:  E(RwB97XD) =  -1199.64316179     A.U. after   18 cycles
 SCF Done:  E(RwB97XD) =  -1199.64361215     A.U. after   17 cycles
 SCF Done:  E(RwB97XD) =  -1199.64387146     A.U. after   18 cycles
 SCF Done:  E(RwB97XD) =  -1199.64388394     A.U. after   15 cycles
 SCF Done:  E(RwB97XD) =  -1199.64388567     A.U. after   14 cycles
 SCF Done:  E(RwB97XD) =  -1199.64388568     A.U. after   11 cycles

 Isotropic polarizability for W=    0.000000       68.44 Bohr**3.
 End of Minotr F.D. properties file   721 does not exist.

 Optimization completed.
    -- Stationary point found.

                          Input orientation:
 ---------------------------------------------------------------------
 Center     Atomic      Atomic             Coordinates (Angstroms)
 Number     Number       Type             X           Y           Z
 ---------------------------------------------------------------------
      1          6           0       -0.864511    0.459400    1.267166
      2          6           0       -0.010434    0.020541    0.062628
      3          9           0       -0.356150   -1.208320   -0.322859
      4          9           0       -0.278537    0.884636   -0.956601
      5         16           0        2.074626    0.021248    0.076076
      6          8           0        1.914725   -0.503838    1.519259
      7          8           0        3.514083   -0.290624    0.682216
      8          8           0        2.191223    1.638128    0.125209
      9          9           0       -0.723493   -0.375913    2.284158
     10          9           0       -0.483976    1.683291    1.649476
     11          9           0       -2.155857    0.510274    0.936697
     12          1           0        1.406636    2.057833   -0.251238
 ---------------------------------------------------------------------

 ******    1 imaginary frequencies (negative Signs) ******

                      1                      2                      3
                      A                      A                      A
 Frequencies --   -806.5801                45.8276                72.6681
 Red. masses --     18.0356                10.3615                13.3183
 Frc consts  --      6.9131                 0.0128                 0.0414
 IR Inten    --    326.3508                 2.5804                 1.0090

                      4                      5                      6
                      A                      A                      A
 Frequencies --    116.4936               164.4999               205.6066
 Red. masses --     16.3855                12.4435                16.0991
 Frc consts  --      0.1310                 0.1984                 0.4010
 IR Inten    --      1.6003                 5.6943                15.2813

                      7                      8                      9
                      A                      A                      A
 Frequencies --    220.2847               226.6053               285.5009
 Red. masses --      9.2099                15.4976                16.0781
 Frc consts  --      0.2633                 0.4689                 0.7721
 IR Inten    --      8.1220                 0.8991                 4.3240

                     10                     11                     12
                      A                      A                      A
 Frequencies --    292.3204               316.3481               368.2036
 Red. masses --      6.5385                 1.9708                 8.9447
 Frc consts  --      0.3292                 0.1162                 0.7145
 IR Inten    --     20.0047                91.4323                 7.1541

                     13                     14                     15
                      A                      A                      A
 Frequencies --    382.6060               446.4869               449.8443
 Red. masses --      3.8498                15.2604                 9.6883
 Frc consts  --      0.3320                 1.7924                 1.1551
 IR Inten    --     12.0598                 0.2470                 8.4512

                     16                     17                     18
                      A                      A                      A
 Frequencies --    535.2583               593.1463               623.0469
 Red. masses --     17.8381                17.8898                17.1629
 Frc consts  --      3.0111                 3.7083                 3.9254
 IR Inten    --      3.4597                 1.7320                 6.2991

                     19                     20                     21
                      A                      A                      A
 Frequencies --    742.4850               757.3665               803.2188
 Red. masses --     16.4065                17.7615                14.1172
 Frc consts  --      5.3289                 6.0026                 5.3662
 IR Inten    --     59.9954                50.6384                96.8968

                     22                     23                     24
                      A                      A                      A
 Frequencies --    913.7874              1034.6067              1085.6815
 Red. masses --     13.1503                14.2653                 6.8656
 Frc consts  --      6.4696                 8.9967                 4.7680
 IR Inten    --    102.5387               109.7376               161.4095

                     25                     26                     27
                      A                      A                      A
 Frequencies --   1155.7684              1186.5180              1205.3668
 Red. masses --      1.4012                 6.4670                12.6609
 Frc consts  --      1.1028                 5.3642                10.8381
 IR Inten    --    193.4767                74.0228               268.6795

                     28                     29                     30
                      A                      A                      A
 Frequencies --   1245.2222              1327.3300              3821.5655
 Red. masses --     13.0241                12.5878                 1.0666
 Frc consts  --     11.8985                13.0665                 9.1778
 IR Inten    --    265.7282               319.9963               115.6045

 - Thermochemistry -
 -------------------
 Temperature   298.150 Kelvin.  Pressure   1.00000 Atm.
 Atom     1 has atomic number  6 and mass  12.00000

 Molecular mass:   199.95666 amu.
 Principal axes and moments of inertia in atomic units:
                           1         2         3
     Eigenvalues --  1104.405842465.381982544.25567
           X            0.98454   0.14296   0.10117
           Y           -0.07017  -0.20730   0.97576
           Z           -0.16046   0.96778   0.19406
 This molecule is an asymmetric top.
 Rotational symmetry number  1.
 Warning -- assumption of classical behavior for rotation
           may cause significant error
 Rotational temperatures (Kelvin)      0.07843     0.03513     0.03404
 Rotational constants (GHZ):           1.63413     0.73203     0.70934
    1 imaginary frequencies ignored.
 Zero-point vibrational energy     123356.9 (Joules/Mol)
                                   29.48301 (Kcal/Mol)
 Warning -- explicit consideration of  16 degrees of freedom as
           vibrations may cause significant error
 Vibrational temperatures:     65.94   104.55   167.61   236.68   295.82
          (Kelvin)            316.94   326.03   410.77   420.58   455.15
                              529.76   550.48   642.40   647.23   770.12
                              853.41   896.43  1068.27  1089.68  1155.65
                             1314.74  1488.57  1562.05  1662.89  1707.13
                             1734.25  1791.60  1909.73  5498.38

 Zero-point correction=                           0.046984 (Hartree/Particle)
 Thermal correction to Energy=                    0.057805
 Thermal correction to Enthalpy=                  0.058749
 Thermal correction to Gibbs Free Energy=         0.009616
 Sum of electronic and zero-point Energies=          -1199.596902
 Sum of electronic and thermal Energies=             -1199.586081
 Sum of electronic and thermal Enthalpies=           -1199.585137
 Sum of electronic and thermal Free Energies=        -1199.634270

                     E (Thermal)             CV                S
                      KCal/Mol        Cal/Mol-Kelvin    Cal/Mol-Kelvin
 Total                   36.273             37.377            103.408
 Electronic               0.000              0.000              0.000
 Translational            0.889              2.981             41.783
 Rotational               0.889              2.981             30.317
 Vibrational             34.495             31.415             31.308
 Vibration     1          0.595              1.979              4.990
 Vibration     2          0.599              1.967              4.080
 Vibration     3          0.608              1.936              3.158
 Vibration     4          0.623              1.886              2.497
 Vibration     5          0.640              1.832              2.082
 Vibration     6          0.647              1.810              1.957
 Vibration     7          0.650              1.800              1.906
 Vibration     8          0.683              1.701              1.500
 Vibration     9          0.688              1.688              1.460
 Vibration    10          0.703              1.642              1.329
 Vibration    11          0.741              1.538              1.087
 Vibration    12          0.752              1.507              1.029
 Vibration    13          0.806              1.369              0.806
 Vibration    14          0.809              1.361              0.796
 Vibration    15          0.890              1.172              0.576
 Vibration    16          0.951              1.046              0.462

 Normal termination of Gaussian 16 at Fri May 23 04:51:12 2025.
