 Gaussian 16, Revision C.01,
 Gaussian 16:  ES64L-G16RevC.01  3-Jul-2019

 ----------------------------------------------------------------------
 #P wb97xd/6-311++G(d,p) Symm(None) scf(xqc) pop(None) freq opt(CalcFC,
  Tight)
 ----------------------------------------------------------------------

 ------------------------------
 Gaussian input prepared by ASE
 ------------------------------
 Symbolic Z-matrix:
 Charge =  0 Multiplicity = 1

 SCF Done:  E(RwB97XD) =  -1199.60934392     A.U. after   18 cycles
 SCF Done:  E(RwB97XD) =  -1199.60934433     A.U. after   12 cycles
 SCF Done:  E(RwB97XD) =  -1199.60934433     A.U. after    8 cycles
 Optimization completed.
    -- Stationary point found.
 Normal termination of Gaussian 16 at Fri May 23 07:33:35 2025.

 ----------------------------------------------------------------------
 #P Geom=AllCheck Guess=TCheck SCRF=Check GenChk RwB97XD/6-311++G(d,p)
 Freq
 ----------------------------------------------------------------------

 Structure from the checkpoint file:  "/tmp/Gau-63602.chk"
 ------------------------------
 Gaussian input prepared by ASE
 ------------------------------
 Charge =  0 Multiplicity = 1

                          Input orientation:
 ---------------------------------------------------------------------
 Center     Atomic      Atomic             Coordinates (Angstroms)
 Number     Number       Type             X           Y           Z
 ---------------------------------------------------------------------
      1          6           0       -0.658822   -1.351393    0.351463
      2          6           0        0.000056    0.000023   -0.000177
      3          9           0       -0.450190    0.461216   -1.139462
      4          9           0       -0.467817    0.939648    0.989126
      5         16           0        1.950354    0.000149   -0.002014
      6          8           0        0.577773    1.138246    2.225256
      7          8           0        2.249005   -0.417155   -1.363289
      8          8           0        2.043580    1.631757    0.000226
      9          9           0       -0.310843   -2.242045   -0.569722
     10          9           0       -0.238255   -1.765322    1.538889
     11          9           0       -1.981545   -1.240151    0.370246
     12          1           0        1.812459    1.929589    0.901170
 ---------------------------------------------------------------------

 SCF Done:  E(RwB97XD) =  -1199.60934433     A.U. after    1 cycles

 Isotropic polarizability for W=    0.000000       61.59 Bohr**3.
 End of Minotr F.D. properties file   721 does not exist.

                      1                      2                      3
                      A                      A                      A
 Frequencies --     43.6892                67.3199               108.7055
 Red. masses --     18.4783                12.9936                14.2293
 Frc consts  --      0.0208                 0.0347                 0.0991
 IR Inten    --      0.1954                 0.8190                 2.8707

                      4                      5                      6
                      A                      A                      A
 Frequencies --    135.1673               197.4467               208.6092
 Red. masses --     16.0795                16.8175                17.0026
 Frc consts  --      0.1731                 0.3863                 0.4359
 IR Inten    --      6.2592                 5.0039                 2.2764

                      7                      8                      9
                      A                      A                      A
 Frequencies --    233.0619               257.1595               272.6283
 Red. masses --     14.8468                16.0626                17.7076
 Frc consts  --      0.4751                 0.6259                 0.7754
 IR Inten    --      1.7423                11.6653                 0.2644

                     10                     11                     12
                      A                      A                      A
 Frequencies --    310.2968               348.2895               409.6191
 Red. masses --     12.5509                17.0786                15.1833
 Frc consts  --      0.7120                 1.2206                 1.5010
 IR Inten    --      7.1704                 5.6642                13.2913

                     13                     14                     15
                      A                      A                      A
 Frequencies --    434.5533               469.6049               533.9360
 Red. masses --     11.1770                12.6587                16.9369
 Frc consts  --      1.2435                 1.6448                 2.8449
 IR Inten    --      4.6624                 0.8264                22.3149

                     16                     17                     18
                      A                      A                      A
 Frequencies --    565.1465               589.6724               629.2175
 Red. masses --     16.8102                17.9155                10.1611
 Frc consts  --      3.1633                 3.6703                 2.3702
 IR Inten    --     14.3156                74.9582                30.4438

                     19                     20                     21
                      A                      A                      A
 Frequencies --    673.3121               745.5818               770.0834
 Red. masses --      1.1483                13.3879                12.7040
 Frc consts  --      0.3067                 4.3848                 4.4388
 IR Inten    --    164.0912                 7.6481               119.4978

                     22                     23                     24
                      A                      A                      A
 Frequencies --    922.8095               959.9155              1150.1350
 Red. masses --     12.3579                13.0695                 1.2777
 Frc consts  --      6.2004                 7.0954                 0.9958
 IR Inten    --    116.6498               106.7779               117.5174

                     25                     26                     27
                      A                      A                      A
 Frequencies --   1228.0204              1239.5911              1249.9955
 Red. masses --     11.5252                12.3047                12.9681
 Frc consts  --     10.2402                11.1398                11.9383
 IR Inten    --    163.6159                84.2364               213.1100

                     28                     29                     30
                      A                      A                      A
 Frequencies --   1265.0345              1365.1116              3689.8280
 Red. masses --      8.9489                12.7909                 1.0625
 Frc consts  --      8.4377                14.0439                 8.5230
 IR Inten    --    448.3598               127.7899               217.6143

 - Thermochemistry -
 -------------------
 Temperature   298.150 Kelvin.  Pressure   1.00000 Atm.
 Atom     1 has atomic number  6 and mass  12.00000

 Molecular mass:   199.95666 amu.
 Principal axes and moments of inertia in atomic units:
                           1         2         3
     Eigenvalues --  1326.554042083.119982510.61590
           X            0.79068  -0.31592   0.52442
           Y            0.60005   0.56989  -0.56140
           Z           -0.12150   0.75856   0.64017
 This molecule is an asymmetric top.
 Rotational symmetry number  1.
 Warning -- assumption of classical behavior for rotation
           may cause significant error
 Rotational temperatures (Kelvin)      0.06529     0.04158     0.03450
 Rotational constants (GHZ):           1.36047     0.86636     0.71884
 Zero-point vibrational energy     126047.8 (Joules/Mol)
                                   30.12614 (Kcal/Mol)
 Warning -- explicit consideration of  17 degrees of freedom as
           vibrations may cause significant error
 Vibrational temperatures:     62.86    96.86   156.40   194.48   284.08
          (Kelvin)            300.14   335.32   370.00   392.25   446.45
                              501.11   589.35   625.23   675.66   768.21
                              813.12   848.41   905.30   968.75  1072.73
                             1107.98  1327.72  1381.10  1654.79  1766.85
                             1783.50  1798.46  1820.10  1964.09  5308.84

 Zero-point correction=                           0.048009 (Hartree/Particle)
 Thermal correction to Energy=                    0.059202
 Thermal correction to Enthalpy=                  0.060146
 Thermal correction to Gibbs Free Energy=         0.010167
 Sum of electronic and zero-point Energies=          -1199.561335
 Sum of electronic and thermal Energies=             -1199.550142
 Sum of electronic and thermal Enthalpies=           -1199.549198
 Sum of electronic and thermal Free Energies=        -1199.599177

                     E (Thermal)             CV                S
                      KCal/Mol        Cal/Mol-Kelvin    Cal/Mol-Kelvin
 Total                   37.150             38.695            105.190
 Electronic               0.000              0.000              0.000
 Translational            0.889              2.981             41.783
 Rotational               0.889              2.981             30.318
 Vibrational             35.372             32.733             33.088
 Vibration     1          0.595              1.980              5.084
 Vibration     2          0.598              1.970              4.230
 Vibration     3          0.606              1.942              3.292
 Vibration     4          0.613              1.918              2.871
 Vibration     5          0.637              1.843              2.157
 Vibration     6          0.642              1.828              2.056
 Vibration     7          0.654              1.790              1.855
 Vibration     8          0.667              1.751              1.681
 Vibration     9          0.676              1.724              1.579
 Vibration    10          0.699              1.654              1.361
 Vibration    11          0.726              1.579              1.174
 Vibration    12          0.774              1.449              0.928
 Vibration    13          0.795              1.395              0.844
 Vibration    14          0.827              1.317              0.739
 Vibration    15          0.889              1.175              0.578
 Vibration    16          0.921              1.107              0.514
 Vibration    17          0.947              1.054              0.468

 Optimization completed.
    -- Stationary point found.
 Normal termination of Gaussian 16 at Fri May 23 07:34:54 2025.
