 Gaussian 16, Revision C.01,
 Gaussian 16:  ES64L-G16RevC.01  3-Jul-2019

 ----------------------------------------------------------------------
 #P wb97xd/6-311++G(d,p) Symm(None) scf(xqc) pop(None) opt(NoFreeze,TS,
 CalcAll,NoEigentest,MaxCycle=999)
 ----------------------------------------------------------------------

 ------------------------------
 Gaussian input prepared by ASE
 ------------------------------
 Symbolic Z-matrix:
 Charge =  0 Multiplicity = 1

 SCF Done:  E(RwB97XD) =  -1199.66851401     A.U. after   16 cycles
 SCF Done:  E(RwB97XD) =  -1199.67273956     A.U. after   17 cycles
 SCF Done:  E(RwB97XD) =  -1199.67376097     A.U. after   17 cycles
 SCF Done:  E(RwB97XD) =  -1199.67416821     A.U. after   17 cycles
 SCF Done:  E(RwB97XD) =  -1199.67449506     A.U. after   14 cycles
 SCF Done:  E(RwB97XD) =  -1199.67453453     A.U. after   14 cycles
 SCF Done:  E(RwB97XD) =  -1199.67453616     A.U. after   11 cycles

 Isotropic polarizability for W=    0.000000       70.55 Bohr**3.
 End of Minotr F.D. properties file   721 does not exist.

 Optimization completed.
    -- Stationary point found.

                          Input orientation:
 ---------------------------------------------------------------------
 Center     Atomic      Atomic             Coordinates (Angstroms)
 Number     Number       Type             X           Y           Z
 ---------------------------------------------------------------------
      1          6           0       -0.215289    1.179155    0.719103
      2          6           0        0.012228   -0.129943    0.230802
      3          9           0       -0.139317   -1.092900    1.125109
      4          9           0       -0.551616   -0.426986   -0.931843
      5         16           0        2.257953    0.021503   -0.247985
      6          8           0        2.359895   -1.335728    0.218486
      7          8           0        1.982752    0.462295   -1.590336
      8          8           0        3.718798    0.568076    0.144075
      9          9           0        1.715708    1.583895    0.838156
     10          9           0       -0.514779    2.131338   -0.076262
     11          9           0       -0.406190    1.427764    1.958444
     12          1           0        3.723812    1.532640    0.089365
 ---------------------------------------------------------------------

 ******    1 imaginary frequencies (negative Signs) ******

                      1                      2                      3
                      A                      A                      A
 Frequencies --   -642.8676                36.7218                77.0349
 Red. masses --     14.0621                14.1295                 8.3403
 Frc consts  --      3.4241                 0.0112                 0.0292
 IR Inten    --    191.1667                 0.9155                 8.7248

                      4                      5                      6
                      A                      A                      A
 Frequencies --    169.9593               191.0431               197.6329
 Red. masses --     12.5323                12.1374                12.4646
 Frc consts  --      0.2133                 0.2610                 0.2868
 IR Inten    --     17.9054                 4.9125                 3.7148

                      7                      8                      9
                      A                      A                      A
 Frequencies --    214.6758               239.5757               277.1112
 Red. masses --     18.0794                 3.8777                 7.6334
 Frc consts  --      0.4909                 0.1311                 0.3454
 IR Inten    --      4.8676                15.4207                 6.5932

                     10                     11                     12
                      A                      A                      A
 Frequencies --    303.6623               329.5836               370.4177
 Red. masses --     13.5679                13.5977                11.1104
 Frc consts  --      0.7371                 0.8703                 0.8982
 IR Inten    --     11.6453                13.2661                64.9325

                     13                     14                     15
                      A                      A                      A
 Frequencies --    423.6669               438.6751               488.7528
 Red. masses --      3.5608                 4.4210                 6.8755
 Frc consts  --      0.3766                 0.5013                 0.9677
 IR Inten    --    152.5954                80.3162                35.3165

                     16                     17                     18
                      A                      A                      A
 Frequencies --    521.5574               545.9262               555.8184
 Red. masses --     10.1075                14.7855                15.0929
 Frc consts  --      1.6199                 2.5963                 2.7472
 IR Inten    --    116.3890               159.5584               101.5909

                     19                     20                     21
                      A                      A                      A
 Frequencies --    601.1460               680.8146               782.9292
 Red. masses --     16.9967                12.2575                15.9316
 Frc consts  --      3.6189                 3.3474                 5.7538
 IR Inten    --      9.0622                14.8254               219.9377

                     22                     23                     24
                      A                      A                      A
 Frequencies --    822.1052              1134.3909              1198.9667
 Red. masses --     17.0318                 9.8368                 2.4364
 Frc consts  --      6.7821                 7.4581                 2.0636
 IR Inten    --    199.3684                73.7321               237.9848

                     25                     26                     27
                      A                      A                      A
 Frequencies --   1205.7139              1293.5320              1400.9460
 Red. masses --      2.1976                13.1125                13.2819
 Frc consts  --      1.8823                12.9268                15.3587
 IR Inten    --    202.1600               122.5411               195.0349

                     28                     29                     30
                      A                      A                      A
 Frequencies --   1458.3430              1559.3000              3830.8309
 Red. masses --     13.2549                12.5221                 1.0659
 Frc consts  --     16.6092                17.9386                 9.2159
 IR Inten    --    345.5142               700.7164               134.4194

 - Thermochemistry -
 -------------------
 Temperature   298.150 Kelvin.  Pressure   1.00000 Atm.
 Atom     1 has atomic number  6 and mass  12.00000

 Molecular mass:   199.95666 amu.
 Principal axes and moments of inertia in atomic units:
                           1         2         3
     Eigenvalues --  1275.709642105.800312372.78406
           X            0.92464   0.32846   0.19277
           Y           -0.25894   0.91336  -0.31421
           Z           -0.27928   0.24061   0.92958
 This molecule is an asymmetric top.
 Rotational symmetry number  1.
 Warning -- assumption of classical behavior for rotation
           may cause significant error
 Rotational temperatures (Kelvin)      0.06789     0.04113     0.03650
 Rotational constants (GHZ):           1.41470     0.85703     0.76060
    1 imaginary frequencies ignored.
 Zero-point vibrational energy     127706.3 (Joules/Mol)
                                   30.52255 (Kcal/Mol)
 Warning -- explicit consideration of  18 degrees of freedom as
           vibrations may cause significant error
 Vibrational temperatures:     52.83   110.84   244.53   274.87   284.35
          (Kelvin)            308.87   344.70   398.70   436.90   474.20
                              532.95   609.56   631.16   703.21   750.40
                              785.47   799.70   864.91   979.54  1126.46
                             1182.83  1632.14  1725.05  1734.75  1861.10
                             2015.65  2098.23  2243.48  5511.71

 Zero-point correction=                           0.048641 (Hartree/Particle)
 Thermal correction to Energy=                    0.059392
 Thermal correction to Enthalpy=                  0.060336
 Thermal correction to Gibbs Free Energy=         0.011493
 Sum of electronic and zero-point Energies=          -1199.625895
 Sum of electronic and thermal Energies=             -1199.615144
 Sum of electronic and thermal Enthalpies=           -1199.614200
 Sum of electronic and thermal Free Energies=        -1199.663044

                     E (Thermal)             CV                S
                      KCal/Mol        Cal/Mol-Kelvin    Cal/Mol-Kelvin
 Total                   37.269             37.424            102.800
 Electronic               0.000              0.000              0.000
 Translational            0.889              2.981             41.783
 Rotational               0.889              2.981             30.234
 Vibrational             35.492             31.462             30.783
 Vibration     1          0.594              1.982              5.429
 Vibration     2          0.599              1.964              3.965
 Vibration     3          0.625              1.879              2.436
 Vibration     4          0.634              1.852              2.218
 Vibration     5          0.637              1.843              2.155
 Vibration     6          0.645              1.819              2.004
 Vibration     7          0.657              1.780              1.806
 Vibration     8          0.678              1.716              1.551
 Vibration     9          0.695              1.667              1.397
 Vibration    10          0.712              1.616              1.262
 Vibration    11          0.742              1.533              1.078
 Vibration    12          0.786              1.419              0.880
 Vibration    13          0.799              1.386              0.831
 Vibration    14          0.845              1.275              0.687
 Vibration    15          0.877              1.202              0.606
 Vibration    16          0.901              1.149              0.553
 Vibration    17          0.911              1.127              0.532
 Vibration    18          0.959              1.029              0.448

 Normal termination of Gaussian 16 at Fri May 23 05:10:54 2025.
