 Gaussian 16, Revision C.01,
 Gaussian 16:  ES64L-G16RevC.01  3-Jul-2019

 ----------------------------------------------------------------------
 #P wb97xd/6-311++G(d,p) Symm(None) scf(xqc) pop(None) freq opt(CalcFC,
  Tight)
 ----------------------------------------------------------------------

 ------------------------------
 Gaussian input prepared by ASE
 ------------------------------
 Symbolic Z-matrix:
 Charge =  0 Multiplicity = 1

 SCF Done:  E(RwB97XD) =  -1199.59894115     A.U. after   16 cycles
 SCF Done:  E(RwB97XD) =  -1199.60489565     A.U. after   17 cycles
 SCF Done:  E(RwB97XD) =  -1199.60545993     A.U. after   16 cycles
 SCF Done:  E(RwB97XD) =  -1199.57566726     A.U. after   17 cycles
 SCF Done:  E(RwB97XD) =  -1199.60747381     A.U. after   14 cycles
 SCF Done:  E(RwB97XD) =  -1199.60814956     A.U. after   14 cycles
 SCF Done:  E(RwB97XD) =  -1199.60827402     A.U. after   13 cycles
 SCF Done:  E(RwB97XD) =  -1199.60830080     A.U. after   12 cycles
 SCF Done:  E(RwB97XD) =  -1199.60830840     A.U. after   11 cycles
 SCF Done:  E(RwB97XD) =  -1199.60830900     A.U. after   11 cycles
 SCF Done:  E(RwB97XD) =  -1199.60830907     A.U. after   10 cycles
 SCF Done:  E(RwB97XD) =  -1199.60830908     A.U. after    8 cycles
 SCF Done:  E(RwB97XD) =  -1199.60830908     A.U. after    5 cycles
 Optimization completed.
    -- Stationary point found.
 Normal termination of Gaussian 16 at Fri May 23 05:20:13 2025.

 ----------------------------------------------------------------------
 #P Geom=AllCheck Guess=TCheck SCRF=Check GenChk RwB97XD/6-311++G(d,p)
 Freq
 ----------------------------------------------------------------------

 Structure from the checkpoint file:  "/tmp/Gau-127665.chk"
 ------------------------------
 Gaussian input prepared by ASE
 ------------------------------
 Charge =  0 Multiplicity = 1

                          Input orientation:
 ---------------------------------------------------------------------
 Center     Atomic      Atomic             Coordinates (Angstroms)
 Number     Number       Type             X           Y           Z
 ---------------------------------------------------------------------
      1          6           0        2.563311    0.004267   -2.592886
      2          6           0        2.763675   -0.489968   -1.189822
      3          9           0       -0.440633   -1.075471   -0.324035
      4          9           0        3.134124   -1.783664   -1.140068
      5         16           0        1.771225   -0.031876    0.050878
      6          8           0        0.070614    0.221303   -0.168574
      7          8           0        1.959773   -0.770649    1.260909
      8          8           0        1.878611    1.542877    0.157096
      9          9           0        2.200702    1.296802   -2.598800
     10          9           0        3.703814   -0.113990   -3.276678
     11          9           0        1.628114   -0.679311   -3.266852
     12          1           0        2.785684    1.816647   -0.036116
 ---------------------------------------------------------------------

 SCF Done:  E(RwB97XD) =  -1199.60830908     A.U. after    1 cycles

 Isotropic polarizability for W=    0.000000       62.85 Bohr**3.
 End of Minotr F.D. properties file   721 does not exist.

                      1                      2                      3
                      A                      A                      A
 Frequencies --     37.9800                56.2922                91.5170
 Red. masses --     16.3915                17.5879                17.1046
 Frc consts  --      0.0139                 0.0328                 0.0844
 IR Inten    --      0.3001                 0.6205                 0.9438

                      4                      5                      6
                      A                      A                      A
 Frequencies --    142.0598               184.1550               202.8005
 Red. masses --     13.0134                13.8019                14.0235
 Frc consts  --      0.1547                 0.2758                 0.3398
 IR Inten    --      0.4317                 8.5638                 2.2128

                      7                      8                      9
                      A                      A                      A
 Frequencies --    251.5686               275.1526               311.2927
 Red. masses --     15.2726                 9.9993                 2.3273
 Frc consts  --      0.5695                 0.4460                 0.1329
 IR Inten    --      3.8618                 2.8738                65.0834

                     10                     11                     12
                      A                      A                      A
 Frequencies --    325.8388               340.6918               381.9907
 Red. masses --      2.2969                10.2605                 6.7494
 Frc consts  --      0.1437                 0.7017                 0.5803
 IR Inten    --     44.8754                11.4951                 2.6984

                     13                     14                     15
                      A                      A                      A
 Frequencies --    447.2894               469.4499               475.8861
 Red. masses --     15.5565                14.8511                12.1407
 Frc consts  --      1.8338                 1.9284                 1.6199
 IR Inten    --     17.4264                18.1487                38.8107

                     16                     17                     18
                      A                      A                      A
 Frequencies --    545.1119               591.4040               600.1415
 Red. masses --     16.2930                16.1207                16.0347
 Frc consts  --      2.8525                 3.3220                 3.4027
 IR Inten    --     19.4699                11.1294                 0.4129

                     19                     20                     21
                      A                      A                      A
 Frequencies --    662.0323               756.9182               876.0607
 Red. masses --     11.5473                16.3795                17.7457
 Frc consts  --      2.9819                 5.5290                 8.0244
 IR Inten    --    256.8911                29.4473               187.0686

                     22                     23                     24
                      A                      A                      A
 Frequencies --   1012.3258              1055.2675              1137.1418
 Red. masses --     13.7336                 6.4937                 1.3444
 Frc consts  --      8.2923                 4.2605                 1.0243
 IR Inten    --     17.9270                70.8724               152.8319

                     25                     26                     27
                      A                      A                      A
 Frequencies --   1172.6050              1195.2537              1249.2675
 Red. masses --     13.0626                13.0494                13.3066
 Frc consts  --     10.5824                10.9840                12.2357
 IR Inten    --    302.0060               305.1815                34.6063

                     28                     29                     30
                      A                      A                      A
 Frequencies --   1330.5127              1352.2236              3822.8970
 Red. masses --     12.7177                16.9064                 1.0660
 Frc consts  --     13.2647                18.2137                 9.1792
 IR Inten    --    522.2304               119.6501               177.2994

 - Thermochemistry -
 -------------------
 Temperature   298.150 Kelvin.  Pressure   1.00000 Atm.
 Atom     1 has atomic number  6 and mass  12.00000

 Molecular mass:   199.95666 amu.
 Principal axes and moments of inertia in atomic units:
                           1         2         3
     Eigenvalues --  1252.165482463.257432506.77767
           X           -0.50778   0.77347   0.37934
           Y           -0.03560  -0.45880   0.88783
           Z            0.86075   0.43731   0.26050
 This molecule is an asymmetric top.
 Rotational symmetry number  1.
 Warning -- assumption of classical behavior for rotation
           may cause significant error
 Rotational temperatures (Kelvin)      0.06917     0.03516     0.03455
 Rotational constants (GHZ):           1.44130     0.73266     0.71994
 Zero-point vibrational energy     127720.1 (Joules/Mol)
                                   30.52583 (Kcal/Mol)
 Warning -- explicit consideration of  18 degrees of freedom as
           vibrations may cause significant error
 Vibrational temperatures:     54.64    80.99   131.67   204.39   264.96
          (Kelvin)            291.78   361.95   395.88   447.88   468.81
                              490.18   549.60   643.55   675.43   684.69
                              784.29   850.90   863.47   952.52  1089.04
                             1260.46  1456.51  1518.29  1636.09  1687.12
                             1719.70  1797.42  1914.31  1945.55  5500.30

 Zero-point correction=                           0.048646 (Hartree/Particle)
 Thermal correction to Energy=                    0.059850
 Thermal correction to Enthalpy=                  0.060794
 Thermal correction to Gibbs Free Energy=         0.010439
 Sum of electronic and zero-point Energies=          -1199.559663
 Sum of electronic and thermal Energies=             -1199.548459
 Sum of electronic and thermal Enthalpies=           -1199.547515
 Sum of electronic and thermal Free Energies=        -1199.597870

                     E (Thermal)             CV                S
                      KCal/Mol        Cal/Mol-Kelvin    Cal/Mol-Kelvin
 Total                   37.556             38.520            105.982
 Electronic               0.000              0.000              0.000
 Translational            0.889              2.981             41.783
 Rotational               0.889              2.981             30.426
 Vibrational             35.779             32.559             33.773
 Vibration     1          0.594              1.982              5.362
 Vibration     2          0.596              1.975              4.583
 Vibration     3          0.602              1.955              3.627
 Vibration     4          0.616              1.911              2.776
 Vibration     5          0.631              1.861              2.286
 Vibration     6          0.639              1.836              2.108
 Vibration     7          0.664              1.760              1.720
 Vibration     8          0.677              1.719              1.564
 Vibration     9          0.700              1.652              1.355
 Vibration    10          0.710              1.624              1.281
 Vibration    11          0.720              1.594              1.209
 Vibration    12          0.751              1.509              1.031
 Vibration    13          0.806              1.367              0.804
 Vibration    14          0.827              1.318              0.739
 Vibration    15          0.833              1.304              0.721
 Vibration    16          0.900              1.150              0.554
 Vibration    17          0.949              1.050              0.465
 Vibration    18          0.958              1.031              0.449

 Optimization completed.
    -- Stationary point found.
 Normal termination of Gaussian 16 at Fri May 23 05:21:43 2025.
