 Gaussian 16, Revision C.01,
 Gaussian 16:  ES64L-G16RevC.01  3-Jul-2019

 ----------------------------------------------------------------------
 #P wb97xd/6-311++G(d,p) Symm(None) scf(xqc) pop(None) freq opt(CalcFC,
  Tight)
 ----------------------------------------------------------------------

 ------------------------------
 Gaussian input prepared by ASE
 ------------------------------
 Symbolic Z-matrix:
 Charge =  0 Multiplicity = 1

 SCF Done:  E(RwB97XD) =  -1199.82415257     A.U. after   14 cycles
 SCF Done:  E(RwB97XD) =  -1199.82415281     A.U. after    9 cycles
 SCF Done:  E(RwB97XD) =  -1199.82415281     A.U. after    6 cycles
 Optimization completed.
    -- Stationary point found.
 Normal termination of Gaussian 16 at Fri May 23 01:55:22 2025.

 ----------------------------------------------------------------------
 #P Geom=AllCheck Guess=TCheck SCRF=Check GenChk RwB97XD/6-311++G(d,p)
 Freq
 ----------------------------------------------------------------------

 Structure from the checkpoint file:  "/tmp/Gau-2941.chk"
 ------------------------------
 Gaussian input prepared by ASE
 ------------------------------
 Charge =  0 Multiplicity = 1

                          Input orientation:
 ---------------------------------------------------------------------
 Center     Atomic      Atomic             Coordinates (Angstroms)
 Number     Number       Type             X           Y           Z
 ---------------------------------------------------------------------
      1          6           0       -0.662090    1.079310   -0.907682
      2          6           0       -0.000019    0.000073    0.000645
      3          9           0       -0.421068    0.174546    1.249591
      4          9           0       -0.363656   -1.209391   -0.428477
      5         16           0        1.884435   -0.000378   -0.000295
      6          8           0        2.284491   -0.507362    1.272492
      7          8           0        2.312228   -0.557491   -1.252526
      8          8           0        2.181966    1.576629   -0.000517
      9          9           0       -0.610747    2.271545   -0.329458
     10          9           0       -0.034890    1.147310   -2.083270
     11          9           0       -1.930547    0.758505   -1.118771
     12          1           0        2.372596    1.878165   -0.898825
 ---------------------------------------------------------------------

 SCF Done:  E(RwB97XD) =  -1199.82415281     A.U. after    1 cycles

 Isotropic polarizability for W=    0.000000       55.81 Bohr**3.
 End of Minotr F.D. properties file   721 does not exist.

                      1                      2                      3
                      A                      A                      A
 Frequencies --     37.6431                59.3725               141.4194
 Red. masses --     11.6576                18.1176                12.1846
 Frc consts  --      0.0097                 0.0376                 0.1436
 IR Inten    --      1.5986                 0.2828                 3.7737

                      4                      5                      6
                      A                      A                      A
 Frequencies --    200.0392               228.3142               243.2313
 Red. masses --     16.9047                18.4377                12.6200
 Frc consts  --      0.3986                 0.5663                 0.4399
 IR Inten    --      2.2112                 1.4248                 0.8462

                      7                      8                      9
                      A                      A                      A
 Frequencies --    277.2444               300.3018               315.8158
 Red. masses --     11.8314                 4.2991                17.0587
 Frc consts  --      0.5358                 0.2284                 1.0025
 IR Inten    --     13.7972                23.7087                 0.7799

                     10                     11                     12
                      A                      A                      A
 Frequencies --    352.0200               371.5284               437.9608
 Red. masses --      1.9810                12.5407                 3.6021
 Frc consts  --      0.1446                 1.0199                 0.4071
 IR Inten    --     70.4456                 5.7785                29.9603

                     13                     14                     15
                      A                      A                      A
 Frequencies --    462.1140               504.5692               541.0629
 Red. masses --      8.0947                15.2038                16.5125
 Frc consts  --      1.0185                 2.2806                 2.8481
 IR Inten    --     27.9926                12.6727                21.1456

                     16                     17                     18
                      A                      A                      A
 Frequencies --    598.5038               607.9013               654.0254
 Red. masses --     17.7826                19.7947                16.0130
 Frc consts  --      3.7530                 4.3099                 4.0356
 IR Inten    --      3.0884               121.6806                22.2782

                     19                     20                     21
                      A                      A                      A
 Frequencies --    762.5094               832.0389               997.7346
 Red. masses --     17.0760                17.8165                13.4724
 Frc consts  --      5.8496                 7.2671                 7.9018
 IR Inten    --     14.2878               197.6111               120.3835

                     22                     23                     24
                      A                      A                      A
 Frequencies --   1124.7624              1153.9573              1214.6490
 Red. masses --      1.2083                13.7473                15.5214
 Frc consts  --      0.9006                10.7857                13.4922
 IR Inten    --     79.3368               109.9325               152.1095

                     25                     26                     27
                      A                      A                      A
 Frequencies --   1227.3080              1237.8732              1250.7356
 Red. masses --     12.2753                12.3966                13.1040
 Frc consts  --     10.8940                11.1919                12.0777
 IR Inten    --     94.7352               250.8173               344.6089

                     28                     29                     30
                      A                      A                      A
 Frequencies --   1342.2114              1444.0168              3828.1927
 Red. masses --     12.7025                14.2064                 1.0663
 Frc consts  --     13.4828                17.4533                 9.2073
 IR Inten    --    117.0507               297.2181               157.8972

 - Thermochemistry -
 -------------------
 Temperature   298.150 Kelvin.  Pressure   1.00000 Atm.
 Atom     1 has atomic number  6 and mass  12.00000

 Molecular mass:   199.95666 amu.
 Principal axes and moments of inertia in atomic units:
                           1         2         3
     Eigenvalues --  1159.180012133.313112292.13627
           X            0.89733   0.43996  -0.03521
           Y           -0.31980   0.70307   0.63516
           Z            0.30420  -0.55868   0.77158
 This molecule is an asymmetric top.
 Rotational symmetry number  1.
 Warning -- assumption of classical behavior for rotation
           may cause significant error
 Rotational temperatures (Kelvin)      0.07472     0.04060     0.03779
 Rotational constants (GHZ):           1.55691     0.84598     0.78736
 Zero-point vibrational energy     136069.6 (Joules/Mol)
                                   32.52141 (Kcal/Mol)
 Warning -- explicit consideration of  17 degrees of freedom as
           vibrations may cause significant error
 Vibrational temperatures:     54.16    85.42   203.47   287.81   328.49
          (Kelvin)            349.96   398.89   432.07   454.39   506.48
                              534.55   630.13   664.88   725.96   778.47
                              861.11   874.63   941.00  1097.08  1197.12
                             1435.52  1618.28  1660.29  1747.61  1765.82
                             1781.02  1799.53  1931.14  2077.62  5507.92

 Zero-point correction=                           0.051826 (Hartree/Particle)
 Thermal correction to Energy=                    0.062242
 Thermal correction to Enthalpy=                  0.063186
 Thermal correction to Gibbs Free Energy=         0.014847
 Sum of electronic and zero-point Energies=          -1199.772327
 Sum of electronic and thermal Energies=             -1199.761911
 Sum of electronic and thermal Enthalpies=           -1199.760967
 Sum of electronic and thermal Free Energies=        -1199.809305

                     E (Thermal)             CV                S
                      KCal/Mol        Cal/Mol-Kelvin    Cal/Mol-Kelvin
 Total                   39.057             36.613            101.738
 Electronic               0.000              0.000              0.000
 Translational            0.889              2.981             41.783
 Rotational               0.889              2.981             30.117
 Vibrational             37.280             30.651             29.837
 Vibration     1          0.594              1.982              5.379
 Vibration     2          0.597              1.974              4.478
 Vibration     3          0.615              1.912              2.785
 Vibration     4          0.638              1.840              2.133
 Vibration     5          0.651              1.798              1.892
 Vibration     6          0.659              1.774              1.779
 Vibration     7          0.678              1.716              1.551
 Vibration     8          0.693              1.673              1.415
 Vibration     9          0.703              1.643              1.332
 Vibration    10          0.729              1.571              1.157
 Vibration    11          0.743              1.531              1.073
 Vibration    12          0.798              1.387              0.833
 Vibration    13          0.820              1.334              0.760
 Vibration    14          0.860              1.240              0.647
 Vibration    15          0.896              1.159              0.563
 Vibration    16          0.956              1.035              0.452
 Vibration    17          0.967              1.015              0.436

 Optimization completed.
    -- Stationary point found.
 Normal termination of Gaussian 16 at Fri May 23 01:56:44 2025.
