 Gaussian 16, Revision C.01,
 Gaussian 16:  ES64L-G16RevC.01  3-Jul-2019

 ----------------------------------------------------------------------
 #P wb97xd/6-311++G(d,p) Symm(None) scf(xqc) pop(None) opt(NoFreeze,TS,
 CalcAll,NoEigentest,MaxCycle=999)
 ----------------------------------------------------------------------

 ------------------------------
 Gaussian input prepared by ASE
 ------------------------------
 Symbolic Z-matrix:
 Charge =  0 Multiplicity = 1

 SCF Done:  E(RwB97XD) =  -1199.58404360     A.U. after   21 cycles
 SCF Done:  E(RwB97XD) =  -1199.61769111     A.U. after   18 cycles
 SCF Done:  E(RwB97XD) =  -1199.64342352     A.U. after   17 cycles
 SCF Done:  E(RwB97XD) =  -1199.65665294     A.U. after   17 cycles
 SCF Done:  E(RwB97XD) =  -1199.66223438     A.U. after   15 cycles
 SCF Done:  E(RwB97XD) =  -1199.66306824     A.U. after   16 cycles
 SCF Done:  E(RwB97XD) =  -1199.66347554     A.U. after   15 cycles
 SCF Done:  E(RwB97XD) =  -1199.66360846     A.U. after   14 cycles
 SCF Done:  E(RwB97XD) =  -1199.66366719     A.U. after   14 cycles
 SCF Done:  E(RwB97XD) =  -1199.66367048     A.U. after   13 cycles

 Isotropic polarizability for W=    0.000000       72.63 Bohr**3.
 End of Minotr F.D. properties file   721 does not exist.

 Optimization completed.
    -- Stationary point found.

                          Input orientation:
 ---------------------------------------------------------------------
 Center     Atomic      Atomic             Coordinates (Angstroms)
 Number     Number       Type             X           Y           Z
 ---------------------------------------------------------------------
      1          6           0       -0.282237   -1.219379    0.293988
      2          6           0        0.081120    0.125682    0.186617
      3          9           0       -0.265581    0.747110   -0.932093
      4          9           0       -0.054573    0.876528    1.260309
      5         16           0        2.461871   -0.158116    0.023534
      6          8           0        2.904825   -0.297390    1.377079
      7          8           0        3.151198   -0.399946   -1.218215
      8          8           0        2.205053    1.476903   -0.073143
      9          9           0       -0.367506   -1.797577    1.425254
     10          9           0        1.687892   -1.874885   -0.034843
     11          9           0       -0.693641   -1.896001   -0.705098
     12          1           0        2.287578    1.735281   -1.000066
 ---------------------------------------------------------------------

 ******    1 imaginary frequencies (negative Signs) ******

                      1                      2                      3
                      A                      A                      A
 Frequencies --   -574.5692                31.4438                61.7014
 Red. masses --     12.7486                15.4263                12.1548
 Frc consts  --      2.4797                 0.0090                 0.0273
 IR Inten    --    194.2516                 1.7488                 2.6880

                      4                      5                      6
                      A                      A                      A
 Frequencies --    160.2753               170.2251               203.1280
 Red. masses --     18.7767                17.1082                17.4655
 Frc consts  --      0.2842                 0.2921                 0.4246
 IR Inten    --     17.8837                10.5027                 0.1691

                      7                      8                      9
                      A                      A                      A
 Frequencies --    210.9749               240.3888               273.9307
 Red. masses --     17.4916                15.9478                11.0032
 Frc consts  --      0.4587                 0.5430                 0.4865
 IR Inten    --      1.9638                 3.1369                 8.2338

                     10                     11                     12
                      A                      A                      A
 Frequencies --    319.0778               372.4991               388.7351
 Red. masses --      8.8449                 1.8952                12.5432
 Frc consts  --      0.5306                 0.1549                 1.1168
 IR Inten    --     10.0805                32.2621                14.8487

                     13                     14                     15
                      A                      A                      A
 Frequencies --    406.7225               444.3540               482.0883
 Red. masses --     15.6343                 5.3398                 3.6547
 Frc consts  --      1.5238                 0.6212                 0.5004
 IR Inten    --     26.7149               224.6020                 3.9028

                     16                     17                     18
                      A                      A                      A
 Frequencies --    512.5248               548.3303               560.1727
 Red. masses --      9.5966                16.7444                14.2541
 Frc consts  --      1.4852                 2.9662                 2.6353
 IR Inten    --    242.5443                 1.3610               139.8007

                     19                     20                     21
                      A                      A                      A
 Frequencies --    594.4721               646.0011               717.9701
 Red. masses --     16.5227                13.2706                16.7398
 Frc consts  --      3.4403                 3.2629                 5.0841
 IR Inten    --      4.1679                 8.8667               183.3643

                     22                     23                     24
                      A                      A                      A
 Frequencies --    813.0094              1116.6237              1149.3085
 Red. masses --     17.7499                10.4114                 1.2600
 Frc consts  --      6.9125                 7.6484                 0.9806
 IR Inten    --     59.3359               229.6110                98.8682

                     25                     26                     27
                      A                      A                      A
 Frequencies --   1209.9364              1306.4032              1423.8358
 Red. masses --     13.7479                13.1133                12.4264
 Frc consts  --     11.8580                13.1861                14.8427
 IR Inten    --    321.6145               155.4081               188.1637

                     28                     29                     30
                      A                      A                      A
 Frequencies --   1478.9445              1605.9091              3838.0729
 Red. masses --     13.2366                12.4008                 1.0664
 Frc consts  --     17.0582                18.8427                 9.2552
 IR Inten    --    340.8121               814.0222               165.6676

 - Thermochemistry -
 -------------------
 Temperature   298.150 Kelvin.  Pressure   1.00000 Atm.
 Atom     1 has atomic number  6 and mass  12.00000

 Molecular mass:   199.95666 amu.
 Principal axes and moments of inertia in atomic units:
                           1         2         3
     Eigenvalues --  1312.419092074.474992352.18961
           X            0.92466  -0.36772   0.09896
           Y            0.36664   0.92989   0.02955
           Z           -0.10289   0.00895   0.99465
 This molecule is an asymmetric top.
 Rotational symmetry number  1.
 Warning -- assumption of classical behavior for rotation
           may cause significant error
 Rotational temperatures (Kelvin)      0.06600     0.04175     0.03682
 Rotational constants (GHZ):           1.37513     0.86997     0.76726
    1 imaginary frequencies ignored.
 Zero-point vibrational energy     127324.9 (Joules/Mol)
                                   30.43138 (Kcal/Mol)
 Warning -- explicit consideration of  18 degrees of freedom as
           vibrations may cause significant error
 Vibrational temperatures:     45.24    88.77   230.60   244.92   292.26
          (Kelvin)            303.55   345.87   394.13   459.08   535.94
                              559.30   585.18   639.33   693.62   737.41
                              788.92   805.96   855.31   929.45  1033.00
                             1169.74  1606.57  1653.60  1740.83  1879.62
                             2048.58  2127.87  2310.55  5522.13

 Zero-point correction=                           0.048495 (Hartree/Particle)
 Thermal correction to Energy=                    0.059320
 Thermal correction to Enthalpy=                  0.060264
 Thermal correction to Gibbs Free Energy=         0.010980
 Sum of electronic and zero-point Energies=          -1199.615175
 Sum of electronic and thermal Energies=             -1199.604351
 Sum of electronic and thermal Enthalpies=           -1199.603407
 Sum of electronic and thermal Free Energies=        -1199.652690

                     E (Thermal)             CV                S
                      KCal/Mol        Cal/Mol-Kelvin    Cal/Mol-Kelvin
 Total                   37.224             37.593            103.725
 Electronic               0.000              0.000              0.000
 Translational            0.889              2.981             41.783
 Rotational               0.889              2.981             30.239
 Vibrational             35.446             31.631             31.703
 Vibration     1          0.594              1.983              5.736
 Vibration     2          0.597              1.973              4.402
 Vibration     3          0.622              1.891              2.547
 Vibration     4          0.625              1.879              2.433
 Vibration     5          0.639              1.835              2.105
 Vibration     6          0.643              1.824              2.035
 Vibration     7          0.657              1.779              1.800
 Vibration     8          0.676              1.721              1.571
 Vibration     9          0.705              1.637              1.315
 Vibration    10          0.744              1.529              1.069
 Vibration    11          0.757              1.494              1.005
 Vibration    12          0.771              1.456              0.938
 Vibration    13          0.804              1.373              0.813
 Vibration    14          0.838              1.290              0.704
 Vibration    15          0.868              1.222              0.628
 Vibration    16          0.904              1.143              0.548
 Vibration    17          0.916              1.117              0.523
 Vibration    18          0.952              1.044              0.459

 Normal termination of Gaussian 16 at Fri May 23 05:09:53 2025.
