 Gaussian 16, Revision C.01,
 Gaussian 16:  ES64L-G16RevC.01  3-Jul-2019

 ----------------------------------------------------------------------
 #P wb97xd/6-311++G(d,p) Symm(None) scf(xqc) pop(None) freq opt(CalcFC,
  Tight)
 ----------------------------------------------------------------------

 ------------------------------
 Gaussian input prepared by ASE
 ------------------------------
 Symbolic Z-matrix:
 Charge =  0 Multiplicity = 1

 SCF Done:  E(RwB97XD) =  -1199.72573652     A.U. after   16 cycles
 SCF Done:  E(RwB97XD) =  -1199.72726675     A.U. after   15 cycles
 SCF Done:  E(RwB97XD) =  -1199.72914381     A.U. after   14 cycles
 SCF Done:  E(RwB97XD) =  -1199.71197078     A.U. after   15 cycles
 SCF Done:  E(RwB97XD) =  -1199.73231941     A.U. after   14 cycles
 SCF Done:  E(RwB97XD) =  -1199.73305867     A.U. after   14 cycles
 SCF Done:  E(RwB97XD) =  -1199.71632405     A.U. after   15 cycles
 SCF Done:  E(RwB97XD) =  -1199.70366578     A.U. after   15 cycles
 SCF Done:  E(RwB97XD) =  -1199.70067757     A.U. after   15 cycles
 SCF Done:  E(RwB97XD) =  -1199.73312153     A.U. after   11 cycles
 SCF Done:  E(RwB97XD) =  -1199.73752207     A.U. after   11 cycles
 SCF Done:  E(RwB97XD) =  -1199.73757209     A.U. after   12 cycles
 SCF Done:  E(RwB97XD) =  -1199.73760384     A.U. after   13 cycles
 SCF Done:  E(RwB97XD) =  -1199.73763053     A.U. after   12 cycles
 SCF Done:  E(RwB97XD) =  -1199.73763727     A.U. after   11 cycles
 SCF Done:  E(RwB97XD) =  -1199.73764062     A.U. after   11 cycles
 SCF Done:  E(RwB97XD) =  -1199.73764085     A.U. after   11 cycles
 SCF Done:  E(RwB97XD) =  -1199.73764086     A.U. after    7 cycles
 SCF Done:  E(RwB97XD) =  -1199.73764086     A.U. after    4 cycles
 Optimization completed.
    -- Stationary point found.
 Normal termination of Gaussian 16 at Fri May 23 05:34:06 2025.

 ----------------------------------------------------------------------
 #P Geom=AllCheck Guess=TCheck SCRF=Check GenChk RwB97XD/6-311++G(d,p)
 Freq
 ----------------------------------------------------------------------

 Structure from the checkpoint file:  "/tmp/Gau-159628.chk"
 ------------------------------
 Gaussian input prepared by ASE
 ------------------------------
 Charge =  0 Multiplicity = 1

                          Input orientation:
 ---------------------------------------------------------------------
 Center     Atomic      Atomic             Coordinates (Angstroms)
 Number     Number       Type             X           Y           Z
 ---------------------------------------------------------------------
      1          6           0        2.527626   -1.398189    1.814885
      2          6           0        3.037936    0.048208    1.572887
      3          9           0        3.808428    0.405939    2.611916
      4          9           0        3.757430    0.104103    0.457899
      5         16           0        1.684576    1.402286    1.544628
      6          8           0       -0.300486    1.158436    0.038630
      7          8           0        2.375625    2.600625    1.079796
      8          8           0        0.984531    0.584141    0.236082
      9          9           0        1.565243   -1.372133    2.741421
     10          9           0        2.049514   -1.936337    0.706572
     11          9           0        3.523911   -2.157671    2.261316
     12          1           0       -0.164977    1.643587   -0.785305
 ---------------------------------------------------------------------

 SCF Done:  E(RwB97XD) =  -1199.73764086     A.U. after    1 cycles

 Isotropic polarizability for W=    0.000000       61.14 Bohr**3.
 End of Minotr F.D. properties file   721 does not exist.

                      1                      2                      3
                      A                      A                      A
 Frequencies --     34.9411                59.8280                79.7456
 Red. masses --     13.0036                17.8737                10.2448
 Frc consts  --      0.0094                 0.0377                 0.0384
 IR Inten    --      0.2806                 0.0185                 3.5682

                      4                      5                      6
                      A                      A                      A
 Frequencies --    124.4006               164.4071               224.7491
 Red. masses --      9.6563                11.4364                17.9369
 Frc consts  --      0.0880                 0.1821                 0.5338
 IR Inten    --      6.3807                 2.8635                 2.1825

                      7                      8                      9
                      A                      A                      A
 Frequencies --    231.4587               270.9884               289.7362
 Red. masses --     17.5063                12.7455                 7.1265
 Frc consts  --      0.5526                 0.5515                 0.3525
 IR Inten    --      1.3627                 5.5628                 3.9276

                     10                     11                     12
                      A                      A                      A
 Frequencies --    315.6214               346.9546               368.5601
 Red. masses --     16.3032                 1.4662                18.1784
 Frc consts  --      0.9569                 0.1040                 1.4549
 IR Inten    --      2.8834               104.8875                 0.3574

                     13                     14                     15
                      A                      A                      A
 Frequencies --    424.2297               453.5510               505.6601
 Red. masses --     13.6239                 6.2727                18.5561
 Frc consts  --      1.4446                 0.7603                 2.7955
 IR Inten    --      7.5343                22.5943                39.8891

                     16                     17                     18
                      A                      A                      A
 Frequencies --    547.0421               594.1461               655.1132
 Red. masses --     17.9083                17.7613                17.6714
 Frc consts  --      3.1575                 3.6941                 4.4684
 IR Inten    --      0.8527                 1.6635                17.0751

                     19                     20                     21
                      A                      A                      A
 Frequencies --    714.6153               760.0323               970.3045
 Red. masses --     16.9473                17.2452                13.4021
 Frc consts  --      5.0991                 5.8692                 7.4343
 IR Inten    --     88.7884                16.6003               116.2243

                     22                     23                     24
                      A                      A                      A
 Frequencies --    994.9488              1146.3429              1215.0790
 Red. masses --     14.9843                13.7302                13.3036
 Frc consts  --      8.7395                10.6306                11.5725
 IR Inten    --      5.0242               132.6538               285.6732

                     25                     26                     27
                      A                      A                      A
 Frequencies --   1220.8436              1236.5489              1254.5446
 Red. masses --     12.9580                17.5716                13.3887
 Frc consts  --     11.3791                15.8301                12.4154
 IR Inten    --    116.1274               249.8129               319.3522

                     28                     29                     30
                      A                      A                      A
 Frequencies --   1348.3673              1430.8824              3824.9041
 Red. masses --     12.7590                 1.1111                 1.0686
 Frc consts  --     13.6673                 1.3404                 9.2112
 IR Inten    --    131.9114                59.5019                87.0138

 - Thermochemistry -
 -------------------
 Temperature   298.150 Kelvin.  Pressure   1.00000 Atm.
 Atom     1 has atomic number  6 and mass  12.00000

 Molecular mass:   199.95666 amu.
 Principal axes and moments of inertia in atomic units:
                           1         2         3
     Eigenvalues --  1249.304922227.867242736.62877
           X           -0.48243   0.76592  -0.42500
           Y            0.80775   0.57669   0.12239
           Z           -0.33883   0.28425   0.89688
 This molecule is an asymmetric top.
 Rotational symmetry number  1.
 Warning -- assumption of classical behavior for rotation
           may cause significant error
 Rotational temperatures (Kelvin)      0.06933     0.03888     0.03165
 Rotational constants (GHZ):           1.44460     0.81008     0.65948
 Zero-point vibrational energy     130444.1 (Joules/Mol)
                                   31.17688 (Kcal/Mol)
 Warning -- explicit consideration of  17 degrees of freedom as
           vibrations may cause significant error
 Vibrational temperatures:     50.27    86.08   114.74   178.98   236.55
          (Kelvin)            323.36   333.02   389.89   416.87   454.11
                              499.19   530.28   610.37   652.56   727.53
                              787.07   854.84   942.56  1028.17  1093.52
                             1396.05  1431.51  1649.33  1748.23  1756.52
                             1779.12  1805.01  1940.00  2058.72  5503.18

 Zero-point correction=                           0.049684 (Hartree/Particle)
 Thermal correction to Energy=                    0.060939
 Thermal correction to Enthalpy=                  0.061883
 Thermal correction to Gibbs Free Energy=         0.011181
 Sum of electronic and zero-point Energies=          -1199.687957
 Sum of electronic and thermal Energies=             -1199.676702
 Sum of electronic and thermal Enthalpies=           -1199.675758
 Sum of electronic and thermal Free Energies=        -1199.726460

                     E (Thermal)             CV                S
                      KCal/Mol        Cal/Mol-Kelvin    Cal/Mol-Kelvin
 Total                   38.240             38.108            106.711
 Electronic               0.000              0.000              0.000
 Translational            0.889              2.981             41.783
 Rotational               0.889              2.981             30.411
 Vibrational             36.462             32.146             34.517
 Vibration     1          0.594              1.983              5.527
 Vibration     2          0.597              1.973              4.463
 Vibration     3          0.600              1.963              3.897
 Vibration     4          0.610              1.929              3.031
 Vibration     5          0.623              1.886              2.498
 Vibration     6          0.649              1.803              1.920
 Vibration     7          0.653              1.793              1.868
 Vibration     8          0.675              1.727              1.590
 Vibration     9          0.686              1.693              1.476
 Vibration    10          0.703              1.644              1.333
 Vibration    11          0.725              1.581              1.180
 Vibration    12          0.741              1.537              1.086
 Vibration    13          0.786              1.418              0.878
 Vibration    14          0.812              1.353              0.785
 Vibration    15          0.861              1.237              0.644
 Vibration    16          0.902              1.146              0.550
 Vibration    17          0.952              1.044              0.460

 Optimization completed.
    -- Stationary point found.
 Normal termination of Gaussian 16 at Fri May 23 05:35:35 2025.
