 Gaussian 16, Revision C.01,
 Gaussian 16:  ES64L-G16RevC.01  3-Jul-2019

 ----------------------------------------------------------------------
 #P wb97xd/6-311++G(d,p) Symm(None) scf(xqc) pop(None) freq opt(CalcFC,
  Tight)
 ----------------------------------------------------------------------

 ------------------------------
 Gaussian input prepared by ASE
 ------------------------------
 Symbolic Z-matrix:
 Charge =  0 Multiplicity = 1

 SCF Done:  E(RwB97XD) =  -1199.82377468     A.U. after   14 cycles
 SCF Done:  E(RwB97XD) =  -1199.82946706     A.U. after   15 cycles
 SCF Done:  E(RwB97XD) =  -1199.82884559     A.U. after   15 cycles
 SCF Done:  E(RwB97XD) =  -1199.82690464     A.U. after   14 cycles
 SCF Done:  E(RwB97XD) =  -1199.82623909     A.U. after   13 cycles
 SCF Done:  E(RwB97XD) =  -1199.82972238     A.U. after   10 cycles
 SCF Done:  E(RwB97XD) =  -1199.83004342     A.U. after   13 cycles
 SCF Done:  E(RwB97XD) =  -1199.83011882     A.U. after   13 cycles
 SCF Done:  E(RwB97XD) =  -1199.83020469     A.U. after   12 cycles
 SCF Done:  E(RwB97XD) =  -1199.83020540     A.U. after   10 cycles
 SCF Done:  E(RwB97XD) =  -1199.83020597     A.U. after   11 cycles
 SCF Done:  E(RwB97XD) =  -1199.83020623     A.U. after    8 cycles
 SCF Done:  E(RwB97XD) =  -1199.83020663     A.U. after    9 cycles
 SCF Done:  E(RwB97XD) =  -1199.83020687     A.U. after    9 cycles
 SCF Done:  E(RwB97XD) =  -1199.83020704     A.U. after    9 cycles
 SCF Done:  E(RwB97XD) =  -1199.83020706     A.U. after    8 cycles
 SCF Done:  E(RwB97XD) =  -1199.83020707     A.U. after    6 cycles
 SCF Done:  E(RwB97XD) =  -1199.83020707     A.U. after    7 cycles
 SCF Done:  E(RwB97XD) =  -1199.83020707     A.U. after    5 cycles
 Optimization completed.
    -- Stationary point found.
 Normal termination of Gaussian 16 at Fri May 23 04:33:06 2025.

 ----------------------------------------------------------------------
 #P Geom=AllCheck Guess=TCheck SCRF=Check GenChk RwB97XD/6-311++G(d,p)
 Freq
 ----------------------------------------------------------------------

 Structure from the checkpoint file:  "/tmp/Gau-270851.chk"
 ------------------------------
 Gaussian input prepared by ASE
 ------------------------------
 Charge =  0 Multiplicity = 1

                          Input orientation:
 ---------------------------------------------------------------------
 Center     Atomic      Atomic             Coordinates (Angstroms)
 Number     Number       Type             X           Y           Z
 ---------------------------------------------------------------------
      1          6           0        0.027596   -0.110050   -0.061539
      2          6           0        1.567283    0.126136   -0.000404
      3          9           0        3.770834   -0.937519    0.954564
      4          9           0        2.114435   -0.423352   -1.090991
      5         16           0        2.288421   -0.746546    1.526687
      6          8           0        1.747933   -2.046961    1.743115
      7          8           0        2.374796    0.262229    2.545427
      8          8           0        1.882707    1.433221    0.066248
      9          9           0       -0.265718   -1.379158   -0.296809
     10          9           0       -0.515939    0.255507    1.103486
     11          9           0       -0.488828    0.637692   -1.026909
     12          1           0        1.998067    1.716720    0.983717
 ---------------------------------------------------------------------

 SCF Done:  E(RwB97XD) =  -1199.83020707     A.U. after    1 cycles

 Isotropic polarizability for W=    0.000000       55.88 Bohr**3.
 End of Minotr F.D. properties file   721 does not exist.

                      1                      2                      3
                      A                      A                      A
 Frequencies --     27.3692                65.0308               131.5747
 Red. masses --     14.6194                16.6988                15.5730
 Frc consts  --      0.0065                 0.0416                 0.1588
 IR Inten    --      3.1393                 0.4610                 1.5857

                      4                      5                      6
                      A                      A                      A
 Frequencies --    202.2211               218.4114               226.7995
 Red. masses --     11.0888                16.9103                14.5378
 Frc consts  --      0.2672                 0.4753                 0.4406
 IR Inten    --      7.9644                 8.6433                 3.0814

                      7                      8                      9
                      A                      A                      A
 Frequencies --    264.7014               285.6382               317.9504
 Red. masses --      2.1320                 3.9509                 9.7024
 Frc consts  --      0.0880                 0.1899                 0.5779
 IR Inten    --     86.3802                16.0298                 6.1357

                     10                     11                     12
                      A                      A                      A
 Frequencies --    329.9398               388.0635               425.2270
 Red. masses --     10.2272                 4.4389                13.5509
 Frc consts  --      0.6560                 0.3939                 1.4436
 IR Inten    --      4.5621                16.4161                12.8779

                     13                     14                     15
                      A                      A                      A
 Frequencies --    466.9771               494.6362               537.2617
 Red. masses --     16.1881                14.7918                12.0635
 Frc consts  --      2.0799                 2.1323                 2.0516
 IR Inten    --     23.3373                 3.7565                26.5329

                     16                     17                     18
                      A                      A                      A
 Frequencies --    603.6001               606.3122               668.0429
 Red. masses --     19.4234                14.4227                11.7236
 Frc consts  --      4.1694                 3.1239                 3.0826
 IR Inten    --     74.3368                 9.8836                24.5205

                     19                     20                     21
                      A                      A                      A
 Frequencies --    742.3376               780.5738               941.8622
 Red. masses --     15.7784                19.7619                 6.9368
 Frc consts  --      5.1229                 7.0942                 3.6257
 IR Inten    --    181.6196                78.6639                54.1780

                     22                     23                     24
                      A                      A                      A
 Frequencies --   1119.9889              1198.6678              1220.4089
 Red. masses --      4.9006                13.3543                 6.7316
 Frc consts  --      3.6218                11.3050                 5.9071
 IR Inten    --    191.4105                12.7068               264.7009

                     25                     26                     27
                      A                      A                      A
 Frequencies --   1251.0259              1254.5900              1345.8015
 Red. masses --      8.6891                12.1277                 9.1298
 Frc consts  --      8.0123                11.2468                 9.7426
 IR Inten    --    451.7114               161.5506               124.6739

                     28                     29                     30
                      A                      A                      A
 Frequencies --   1355.5999              1443.2812              3793.4818
 Red. masses --      2.0374                11.9755                 1.0663
 Frc consts  --      2.2059                14.6976                 9.0404
 IR Inten    --    109.2296               239.7690               133.2891

 - Thermochemistry -
 -------------------
 Temperature   298.150 Kelvin.  Pressure   1.00000 Atm.
 Atom     1 has atomic number  6 and mass  12.00000

 Molecular mass:   199.95666 amu.
 Principal axes and moments of inertia in atomic units:
                           1         2         3
     Eigenvalues --  1140.746172198.246992329.82987
           X            0.81860  -0.56272  -0.11508
           Y           -0.22684  -0.50083   0.83529
           Z            0.52767   0.65767   0.53763
 This molecule is an asymmetric top.
 Rotational symmetry number  1.
 Warning -- assumption of classical behavior for rotation
           may cause significant error
 Rotational temperatures (Kelvin)      0.07593     0.03940     0.03718
 Rotational constants (GHZ):           1.58207     0.82099     0.77462
 Zero-point vibrational energy     135820.3 (Joules/Mol)
                                   32.46182 (Kcal/Mol)
 Warning -- explicit consideration of  17 degrees of freedom as
           vibrations may cause significant error
 Vibrational temperatures:     39.38    93.56   189.31   290.95   314.25
          (Kelvin)            326.31   380.85   410.97   457.46   474.71
                              558.34   611.81   671.88   711.67   773.00
                              868.45   872.35   961.16  1068.06  1123.07
                             1355.13  1611.41  1724.62  1755.90  1799.95
                             1805.08  1936.31  1950.41  2076.56  5457.97

 Zero-point correction=                           0.051731 (Hartree/Particle)
 Thermal correction to Energy=                    0.062280
 Thermal correction to Enthalpy=                  0.063224
 Thermal correction to Gibbs Free Energy=         0.014368
 Sum of electronic and zero-point Energies=          -1199.778476
 Sum of electronic and thermal Energies=             -1199.767927
 Sum of electronic and thermal Enthalpies=           -1199.766983
 Sum of electronic and thermal Free Energies=        -1199.815840

                     E (Thermal)             CV                S
                      KCal/Mol        Cal/Mol-Kelvin    Cal/Mol-Kelvin
 Total                   39.081             36.807            102.828
 Electronic               0.000              0.000              0.000
 Translational            0.889              2.981             41.783
 Rotational               0.889              2.981             30.147
 Vibrational             37.304             30.845             30.897
 Vibration     1          0.593              1.984              6.012
 Vibration     2          0.597              1.971              4.298
 Vibration     3          0.612              1.922              2.923
 Vibration     4          0.639              1.837              2.113
 Vibration     5          0.646              1.813              1.972
 Vibration     6          0.650              1.800              1.904
 Vibration     7          0.671              1.738              1.631
 Vibration     8          0.683              1.700              1.500
 Vibration     9          0.704              1.639              1.321
 Vibration    10          0.713              1.616              1.260
 Vibration    11          0.756              1.496              1.008
 Vibration    12          0.787              1.415              0.874
 Vibration    13          0.824              1.323              0.746
 Vibration    14          0.850              1.262              0.672
 Vibration    15          0.892              1.168              0.571
 Vibration    16          0.962              1.024              0.444
 Vibration    17          0.965              1.018              0.439

 Optimization completed.
    -- Stationary point found.
 Normal termination of Gaussian 16 at Fri May 23 04:34:40 2025.
