 Gaussian 16, Revision C.01,
 Gaussian 16:  ES64L-G16RevC.01  3-Jul-2019

 ----------------------------------------------------------------------
 #P wb97xd/6-311++G(d,p) Symm(None) scf(xqc) pop(None) freq opt(CalcFC,
  Tight)
 ----------------------------------------------------------------------

 ------------------------------
 Gaussian input prepared by ASE
 ------------------------------
 Symbolic Z-matrix:
 Charge =  0 Multiplicity = 1

 SCF Done:  E(RwB97XD) =  -1199.81581295     A.U. after   14 cycles
 SCF Done:  E(RwB97XD) =  -1199.82210017     A.U. after   13 cycles
 SCF Done:  E(RwB97XD) =  -1199.82385737     A.U. after   12 cycles
 SCF Done:  E(RwB97XD) =  -1199.82432042     A.U. after   12 cycles
 SCF Done:  E(RwB97XD) =  -1199.82481697     A.U. after   12 cycles
 SCF Done:  E(RwB97XD) =  -1199.82522779     A.U. after   12 cycles
 SCF Done:  E(RwB97XD) =  -1199.82552635     A.U. after   11 cycles
 SCF Done:  E(RwB97XD) =  -1199.82573796     A.U. after   11 cycles
 SCF Done:  E(RwB97XD) =  -1199.82585198     A.U. after   12 cycles
 SCF Done:  E(RwB97XD) =  -1199.82587650     A.U. after   11 cycles
 SCF Done:  E(RwB97XD) =  -1199.82587996     A.U. after    9 cycles
 SCF Done:  E(RwB97XD) =  -1199.82588000     A.U. after    8 cycles
 SCF Done:  E(RwB97XD) =  -1199.82588002     A.U. after    8 cycles
 SCF Done:  E(RwB97XD) =  -1199.82588003     A.U. after    8 cycles
 SCF Done:  E(RwB97XD) =  -1199.82588003     A.U. after    7 cycles
 SCF Done:  E(RwB97XD) =  -1199.82588004     A.U. after    7 cycles
 SCF Done:  E(RwB97XD) =  -1199.82588004     A.U. after    6 cycles
 SCF Done:  E(RwB97XD) =  -1199.82588004     A.U. after    5 cycles
 SCF Done:  E(RwB97XD) =  -1199.82588004     A.U. after    5 cycles
 Optimization completed on the basis of negligible forces.
    -- Stationary point found.
 Normal termination of Gaussian 16 at Fri May 23 01:59:13 2025.

 ----------------------------------------------------------------------
 #P Geom=AllCheck Guess=TCheck SCRF=Check GenChk RwB97XD/6-311++G(d,p)
 Freq
 ----------------------------------------------------------------------

 Structure from the checkpoint file:  "/tmp/Gau-26129.chk"
 ------------------------------
 Gaussian input prepared by ASE
 ------------------------------
 Charge =  0 Multiplicity = 1

                          Input orientation:
 ---------------------------------------------------------------------
 Center     Atomic      Atomic             Coordinates (Angstroms)
 Number     Number       Type             X           Y           Z
 ---------------------------------------------------------------------
      1          6           0       -0.709015    0.280581    1.336234
      2          6           0       -0.058467   -0.051255   -0.038113
      3          9           0       -0.385948   -1.296568   -0.381185
      4          9           0       -0.519296    0.799425   -0.953941
      5         16           0        1.817262    0.040839   -0.046608
      6          8           0        2.282562   -0.513068    1.194661
      7          8           0        2.232011   -0.422843   -1.330877
      8          8           0        2.031849    1.627007   -0.036712
      9          9           0       -0.492209   -0.685765    2.209339
     10          9           0       -0.199297    1.423189    1.816388
     11          9           0       -2.016015    0.439216    1.178273
     12          1           0        2.066986    1.957273    0.870832
 ---------------------------------------------------------------------

 SCF Done:  E(RwB97XD) =  -1199.82588004     A.U. after    1 cycles

 Isotropic polarizability for W=    0.000000       55.69 Bohr**3.
 End of Minotr F.D. properties file   721 does not exist.

 ******    1 imaginary frequencies (negative Signs) ******

                      1                      2                      3
                      A                      A                      A
 Frequencies --     -5.1540                59.5993               102.7209
 Red. masses --      5.6619                13.8307                 5.3555
 Frc consts  --      0.0001                 0.0289                 0.0333
 IR Inten    --     18.2710                 1.9151                21.8113

                      4                      5                      6
                      A                      A                      A
 Frequencies --    190.2473               212.4284               236.2310
 Red. masses --      5.2785                 7.3787                 8.2961
 Frc consts  --      0.1126                 0.1962                 0.2728
 IR Inten    --     18.1156                13.0367                 4.9920

                      7                      8                      9
                      A                      A                      A
 Frequencies --    266.9664               278.5157               309.2997
 Red. masses --      2.8309                 9.3801                17.3968
 Frc consts  --      0.1189                 0.4287                 0.9806
 IR Inten    --     66.3861                 2.1068                 0.1705

                     10                     11                     12
                      A                      A                      A
 Frequencies --    323.7922               374.7410               434.5282
 Red. masses --     12.2957                11.8017                10.1163
 Frc consts  --      0.7595                 0.9765                 1.1254
 IR Inten    --      2.7783                 6.1444                 5.2912

                     13                     14                     15
                      A                      A                      A
 Frequencies --    445.4949               510.5633               537.8164
 Red. masses --      8.0372                16.3476                17.8473
 Frc consts  --      0.9398                 2.5107                 3.0415
 IR Inten    --     26.8501                 9.3901                25.7050

                     16                     17                     18
                      A                      A                      A
 Frequencies --    599.1525               609.0090               655.9336
 Red. masses --     17.7723                20.4864                16.2967
 Frc consts  --      3.7590                 4.4768                 4.1311
 IR Inten    --      3.1226               118.0143                25.1300

                     19                     20                     21
                      A                      A                      A
 Frequencies --    763.4568               834.5440              1003.0161
 Red. masses --     17.2937                17.5189                12.6436
 Frc consts  --      5.9389                 7.1888                 7.4944
 IR Inten    --     18.4684               192.1818               100.3667

                     22                     23                     24
                      A                      A                      A
 Frequencies --   1127.0624              1155.6879              1208.7275
 Red. masses --      1.2118                13.7548                14.1145
 Frc consts  --      0.9070                10.8239                12.1499
 IR Inten    --    124.8920               158.4436                84.2146

                     25                     26                     27
                      A                      A                      A
 Frequencies --   1226.4639              1228.1761              1262.0864
 Red. masses --     12.4045                13.4030                13.3324
 Frc consts  --     10.9936                11.9117                12.5123
 IR Inten    --    142.2452               177.7292               375.9413

                     28                     29                     30
                      A                      A                      A
 Frequencies --   1348.6165              1443.0134              3826.4606
 Red. masses --     12.6949                14.2380                 1.0664
 Frc consts  --     13.6037                17.4679                 9.1994
 IR Inten    --    113.5787               294.5110               151.6613

 - Thermochemistry -
 -------------------
 Temperature   298.150 Kelvin.  Pressure   1.00000 Atm.
 Atom     1 has atomic number  6 and mass  12.00000

 Molecular mass:   199.95666 amu.
 Principal axes and moments of inertia in atomic units:
                           1         2         3
     Eigenvalues --  1152.572852137.821872288.88584
           X            0.88424   0.45173  -0.11861
           Y           -0.03623   0.31953   0.94688
           Z           -0.46563   0.83297  -0.29891
 This molecule is an asymmetric top.
 Rotational symmetry number  1.
 Warning -- assumption of classical behavior for rotation
           may cause significant error
 Rotational temperatures (Kelvin)      0.07515     0.04052     0.03784
 Rotational constants (GHZ):           1.56584     0.84420     0.78848
    1 imaginary frequencies ignored.
 Zero-point vibrational energy     135024.6 (Joules/Mol)
                                   32.27166 (Kcal/Mol)
 Warning -- explicit consideration of  16 degrees of freedom as
           vibrations may cause significant error
 Vibrational temperatures:     85.75   147.79   273.72   305.64   339.88
          (Kelvin)            384.11   400.72   445.01   465.86   539.17
                              625.19   640.97   734.59   773.80   862.05
                              876.23   943.74  1098.44  1200.72  1443.12
                             1621.59  1662.78  1739.09  1764.61  1767.07
                             1815.86  1940.36  2076.17  5505.42

 Zero-point correction=                           0.051428 (Hartree/Particle)
 Thermal correction to Energy=                    0.061193
 Thermal correction to Enthalpy=                  0.062137
 Thermal correction to Gibbs Free Energy=         0.015750
 Sum of electronic and zero-point Energies=          -1199.774452
 Sum of electronic and thermal Energies=             -1199.764688
 Sum of electronic and thermal Enthalpies=           -1199.763743
 Sum of electronic and thermal Free Energies=        -1199.810130

                     E (Thermal)             CV                S
                      KCal/Mol        Cal/Mol-Kelvin    Cal/Mol-Kelvin
 Total                   38.399             34.854             97.628
 Electronic               0.000              0.000              0.000
 Translational            0.889              2.981             41.783
 Rotational               0.889              2.981             30.112
 Vibrational             36.621             28.892             25.733
 Vibration     1          0.597              1.974              4.470
 Vibration     2          0.605              1.947              3.402
 Vibration     3          0.634              1.853              2.225
 Vibration     4          0.643              1.822              2.023
 Vibration     5          0.655              1.785              1.831
 Vibration     6          0.672              1.734              1.616
 Vibration     7          0.679              1.713              1.543
 Vibration     8          0.699              1.656              1.366
 Vibration     9          0.708              1.628              1.291
 Vibration    10          0.746              1.524              1.060
 Vibration    11          0.795              1.395              0.844
 Vibration    12          0.805              1.371              0.810
 Vibration    13          0.866              1.227              0.632
 Vibration    14          0.893              1.166              0.570
 Vibration    15          0.957              1.034              0.451
 Vibration    16          0.968              1.013              0.434

 Optimization completed on the basis of negligible forces.
    -- Stationary point found.
 Normal termination of Gaussian 16 at Fri May 23 02:00:35 2025.
