 Gaussian 16, Revision C.01,
 Gaussian 16:  ES64L-G16RevC.01  3-Jul-2019

 ----------------------------------------------------------------------
 #P wb97xd/6-311++G(d,p) Symm(None) scf(xqc) pop(None) freq opt(CalcFC,
  Tight)
 ----------------------------------------------------------------------

 ------------------------------
 Gaussian input prepared by ASE
 ------------------------------
 Symbolic Z-matrix:
 Charge =  0 Multiplicity = 1

 SCF Done:  E(RwB97XD) =  -1199.71353932     A.U. after   16 cycles
 SCF Done:  E(RwB97XD) =  -1199.71815202     A.U. after   14 cycles
 SCF Done:  E(RwB97XD) =  -1199.73220394     A.U. after   15 cycles
 SCF Done:  E(RwB97XD) =  -1199.68813370     A.U. after   16 cycles
 SCF Done:  E(RwB97XD) =  -1199.73402482     A.U. after   15 cycles
 SCF Done:  E(RwB97XD) =  -1199.70629137     A.U. after   15 cycles
 SCF Done:  E(RwB97XD) =  -1199.73483033     A.U. after   13 cycles
 SCF Done:  E(RwB97XD) =  -1199.73489413     A.U. after   13 cycles
 SCF Done:  E(RwB97XD) =  -1199.73490580     A.U. after   11 cycles
 SCF Done:  E(RwB97XD) =  -1199.73491107     A.U. after   11 cycles
 SCF Done:  E(RwB97XD) =  -1199.73491479     A.U. after   11 cycles
 SCF Done:  E(RwB97XD) =  -1199.73491730     A.U. after   11 cycles
 SCF Done:  E(RwB97XD) =  -1199.73491835     A.U. after   10 cycles
 SCF Done:  E(RwB97XD) =  -1199.73492043     A.U. after   11 cycles
 SCF Done:  E(RwB97XD) =  -1199.73492074     A.U. after    9 cycles
 SCF Done:  E(RwB97XD) =  -1199.73492074     A.U. after    7 cycles
 SCF Done:  E(RwB97XD) =  -1199.73492074     A.U. after    5 cycles
 SCF Done:  E(RwB97XD) =  -1199.73492074     A.U. after    4 cycles
 Optimization completed.
    -- Stationary point found.
 Normal termination of Gaussian 16 at Fri May 23 05:24:52 2025.

 ----------------------------------------------------------------------
 #P Geom=AllCheck Guess=TCheck SCRF=Check GenChk RwB97XD/6-311++G(d,p)
 Freq
 ----------------------------------------------------------------------

 Structure from the checkpoint file:  "/tmp/Gau-15488.chk"
 ------------------------------
 Gaussian input prepared by ASE
 ------------------------------
 Charge =  0 Multiplicity = 1

                          Input orientation:
 ---------------------------------------------------------------------
 Center     Atomic      Atomic             Coordinates (Angstroms)
 Number     Number       Type             X           Y           Z
 ---------------------------------------------------------------------
      1          6           0        1.796639    4.225462   -0.305613
      2          6           0        0.375260    3.849422    0.202389
      3          9           0        0.405473    3.704114    1.535100
      4          9           0       -0.463482    4.843892   -0.110256
      5         16           0       -0.486324    2.288587   -0.486782
      6          8           0        0.632664    0.057409   -0.208536
      7          8           0       -0.749858    2.528377   -1.897532
      8          8           0        0.964957    1.439449   -0.271902
      9          9           0        2.719051    3.447587    0.242848
     10          9           0        1.858131    4.121184   -1.625518
     11          9           0        2.055791    5.487454    0.037470
     12          1           0        0.889286   -0.151854    0.698010
 ---------------------------------------------------------------------

 SCF Done:  E(RwB97XD) =  -1199.73492074     A.U. after    1 cycles

 Isotropic polarizability for W=    0.000000       61.34 Bohr**3.
 End of Minotr F.D. properties file   721 does not exist.

                      1                      2                      3
                      A                      A                      A
 Frequencies --     27.4349                72.4643                87.6438
 Red. masses --     12.8621                15.6770                 7.1082
 Frc consts  --      0.0057                 0.0485                 0.0322
 IR Inten    --      1.4732                 0.9365                 6.4695

                      4                      5                      6
                      A                      A                      A
 Frequencies --    130.8397               172.5370               223.6312
 Red. masses --     15.5804                17.2933                16.9213
 Frc consts  --      0.1571                 0.3033                 0.4986
 IR Inten    --      1.7845                 2.4016                 6.9623

                      7                      8                      9
                      A                      A                      A
 Frequencies --    229.8365               290.9658               300.1781
 Red. masses --     18.2657                 1.9156                10.5311
 Frc consts  --      0.5685                 0.0955                 0.5591
 IR Inten    --      1.5074                51.7947                22.8817

                     10                     11                     12
                      A                      A                      A
 Frequencies --    311.4476               317.3290               363.6240
 Red. masses --      3.5161                 6.9500                15.6442
 Frc consts  --      0.2009                 0.4123                 1.2187
 IR Inten    --     25.6815                 6.1613                 1.6365

                     13                     14                     15
                      A                      A                      A
 Frequencies --    420.8746               442.7183               488.3325
 Red. masses --      9.8975                18.6678                16.8913
 Frc consts  --      1.0330                 2.1557                 2.3733
 IR Inten    --     30.6457                18.8166                40.9444

                     16                     17                     18
                      A                      A                      A
 Frequencies --    545.9773               596.4473               635.6444
 Red. masses --     18.2780                17.8758                16.8847
 Frc consts  --      3.2102                 3.7468                 4.0195
 IR Inten    --      3.4458                 2.7448                17.2880

                     19                     20                     21
                      A                      A                      A
 Frequencies --    708.9776               762.3315               986.6990
 Red. masses --     17.3573                17.3079                13.7119
 Frc consts  --      5.1404                 5.9263                 7.8653
 IR Inten    --     77.7464                14.6230                80.4508

                     22                     23                     24
                      A                      A                      A
 Frequencies --    993.8869              1142.5137              1195.9352
 Red. masses --     14.7934                13.6240                13.5134
 Frc consts  --      8.6098                10.4780                11.3876
 IR Inten    --     11.6052               176.1913                84.6533

                     25                     26                     27
                      A                      A                      A
 Frequencies --   1222.2985              1240.6939              1267.2935
 Red. masses --     13.3225                14.7784                15.1069
 Frc consts  --     11.7271                13.4032                14.2949
 IR Inten    --    265.6820                61.3927               517.5488

                     28                     29                     30
                      A                      A                      A
 Frequencies --   1330.6409              1425.6339              3832.2904
 Red. masses --     13.0031                 1.1096                 1.0687
 Frc consts  --     13.5650                 1.3287                 9.2474
 IR Inten    --    138.3189                61.1926                84.7945

 - Thermochemistry -
 -------------------
 Temperature   298.150 Kelvin.  Pressure   1.00000 Atm.
 Atom     1 has atomic number  6 and mass  12.00000

 Molecular mass:   199.95666 amu.
 Principal axes and moments of inertia in atomic units:
                           1         2         3
     Eigenvalues --  1278.903562290.317822537.18938
           X            0.41687   0.88824  -0.19301
           Y            0.90033  -0.43269  -0.04668
           Z            0.12498   0.15431   0.98008
 This molecule is an asymmetric top.
 Rotational symmetry number  1.
 Warning -- assumption of classical behavior for rotation
           may cause significant error
 Rotational temperatures (Kelvin)      0.06773     0.03782     0.03414
 Rotational constants (GHZ):           1.41116     0.78799     0.71132
 Zero-point vibrational energy     130196.3 (Joules/Mol)
                                   31.11766 (Kcal/Mol)
 Warning -- explicit consideration of  17 degrees of freedom as
           vibrations may cause significant error
 Vibrational temperatures:     39.47   104.26   126.10   188.25   248.24
          (Kelvin)            321.76   330.68   418.63   431.89   448.10
                              456.57   523.17   605.54   636.97   702.60
                              785.54   858.15   914.55  1020.06  1096.83
                             1419.64  1429.98  1643.82  1720.68  1758.61
                             1785.08  1823.35  1914.50  2051.17  5513.81

 Zero-point correction=                           0.049589 (Hartree/Particle)
 Thermal correction to Energy=                    0.060838
 Thermal correction to Enthalpy=                  0.061782
 Thermal correction to Gibbs Free Energy=         0.011153
 Sum of electronic and zero-point Energies=          -1199.685332
 Sum of electronic and thermal Energies=             -1199.674083
 Sum of electronic and thermal Enthalpies=           -1199.673139
 Sum of electronic and thermal Free Energies=        -1199.723768

                     E (Thermal)             CV                S
                      KCal/Mol        Cal/Mol-Kelvin    Cal/Mol-Kelvin
 Total                   38.176             38.218            106.559
 Electronic               0.000              0.000              0.000
 Translational            0.889              2.981             41.783
 Rotational               0.889              2.981             30.386
 Vibrational             36.399             32.257             34.389
 Vibration     1          0.593              1.984              6.007
 Vibration     2          0.599              1.967              4.085
 Vibration     3          0.601              1.958              3.712
 Vibration     4          0.612              1.922              2.934
 Vibration     5          0.626              1.876              2.408
 Vibration     6          0.649              1.805              1.929
 Vibration     7          0.652              1.795              1.880
 Vibration     8          0.687              1.691              1.468
 Vibration     9          0.693              1.673              1.416
 Vibration    10          0.700              1.652              1.355
 Vibration    11          0.704              1.640              1.324
 Vibration    12          0.737              1.547              1.107
 Vibration    13          0.783              1.425              0.889
 Vibration    14          0.802              1.377              0.818
 Vibration    15          0.844              1.276              0.688
 Vibration    16          0.901              1.148              0.553
 Vibration    17          0.954              1.039              0.456

                           ! Non-Optimized Parameters !
 Normal termination of Gaussian 16 at Fri May 23 05:26:04 2025.
