 Gaussian 16, Revision C.01,
 Gaussian 16:  ES64L-G16RevC.01  3-Jul-2019

 ----------------------------------------------------------------------
 #P wb97xd/6-311++G(d,p) Symm(None) scf(xqc) pop(None) opt(NoFreeze,TS,
 CalcAll,NoEigentest,MaxCycle=999)
 ----------------------------------------------------------------------

 ------------------------------
 Gaussian input prepared by ASE
 ------------------------------
 Symbolic Z-matrix:
 Charge =  0 Multiplicity = 1

 SCF Done:  E(RwB97XD) =  -1199.56124707     A.U. after   20 cycles
 SCF Done:  E(RwB97XD) =  -1199.57629651     A.U. after   19 cycles
 SCF Done:  E(RwB97XD) =  -1199.57904602     A.U. after   17 cycles
 SCF Done:  E(RwB97XD) =  -1199.57952188     A.U. after   17 cycles
 SCF Done:  E(RwB97XD) =  -1199.57956459     A.U. after   16 cycles
 SCF Done:  E(RwB97XD) =  -1199.57956565     A.U. after   14 cycles

 Isotropic polarizability for W=    0.000000       73.70 Bohr**3.
 End of Minotr F.D. properties file   721 does not exist.

 Optimization completed.
    -- Stationary point found.

                          Input orientation:
 ---------------------------------------------------------------------
 Center     Atomic      Atomic             Coordinates (Angstroms)
 Number     Number       Type             X           Y           Z
 ---------------------------------------------------------------------
      1          6           0        1.663317   -0.871157   -1.142861
      2          6           0        1.970305    0.052158    0.011556
      3          9           0       -0.767148    0.721607    0.469728
      4          9           0        2.778355   -0.426895    0.928704
      5         16           0        1.626924    1.693479    0.082761
      6          8           0        0.253869    1.705726   -0.557424
      7          8           0        1.907105    2.255325    1.359536
      8          8           0        2.439684    2.630686   -0.950229
      9          9           0        1.373839   -0.170141   -2.250156
     10          9           0        2.743333   -1.615850   -1.397971
     11          9           0        0.653378   -1.692100   -0.892647
     12          1           0        2.283787    2.349882   -1.863359
 ---------------------------------------------------------------------

 ******    1 imaginary frequencies (negative Signs) ******

                      1                      2                      3
                      A                      A                      A
 Frequencies --   -354.1008                21.9111                48.7242
 Red. masses --     15.8953                18.3944                12.8421
 Frc consts  --      1.1743                 0.0052                 0.0180
 IR Inten    --    339.2644                 0.2287                 3.3364

                      4                      5                      6
                      A                      A                      A
 Frequencies --     84.0123               150.0684               158.8737
 Red. masses --     18.0456                11.3973                13.2704
 Frc consts  --      0.0750                 0.1512                 0.1974
 IR Inten    --      6.3636                 9.4415                 0.0484

                      7                      8                      9
                      A                      A                      A
 Frequencies --    212.2509               234.3954               265.0584
 Red. masses --     13.8327                12.4649                12.1454
 Frc consts  --      0.3672                 0.4035                 0.5027
 IR Inten    --      9.3138                 3.2407                 2.7321

                     10                     11                     12
                      A                      A                      A
 Frequencies --    313.9199               341.1575               400.9852
 Red. masses --     15.2863                13.5810                 4.6314
 Frc consts  --      0.8875                 0.9313                 0.4387
 IR Inten    --      3.7156                 1.3137                 9.8768

                     13                     14                     15
                      A                      A                      A
 Frequencies --    441.4438               462.7524               483.6369
 Red. masses --     10.8885                 3.7899                 6.1326
 Frc consts  --      1.2502                 0.4782                 0.8451
 IR Inten    --     13.3748                 4.4276                22.6419

                     16                     17                     18
                      A                      A                      A
 Frequencies --    501.8652               583.0159               597.5181
 Red. masses --      2.3658                15.7966                15.6309
 Frc consts  --      0.3511                 3.1636                 3.2880
 IR Inten    --    113.1059                 5.1501                 1.1637

                     19                     20                     21
                      A                      A                      A
 Frequencies --    611.0108               749.0860               796.5751
 Red. masses --     17.0762                16.9175                17.4139
 Frc consts  --      3.7561                 5.5930                 6.5103
 IR Inten    --    112.0099                67.7346               165.0978

                     22                     23                     24
                      A                      A                      A
 Frequencies --    890.9939              1061.2524              1130.4052
 Red. masses --     16.5871                 9.4796                 1.2642
 Frc consts  --      7.7583                 6.2904                 0.9517
 IR Inten    --    122.3500               146.2865               248.5723

                     25                     26                     27
                      A                      A                      A
 Frequencies --   1192.0988              1197.2996              1274.9340
 Red. masses --     11.8961                10.0841                12.6702
 Frc consts  --      9.9604                 8.5171                12.1341
 IR Inten    --    228.2612               196.1862               103.0207

                     28                     29                     30
                      A                      A                      A
 Frequencies --   1341.4424              1408.3510              3805.9662
 Red. masses --     13.0883                13.9108                 1.0668
 Frc consts  --     13.8764                16.2564                 9.1050
 IR Inten    --    549.6270               215.5336               161.5053

 - Thermochemistry -
 -------------------
 Temperature   298.150 Kelvin.  Pressure   1.00000 Atm.
 Atom     1 has atomic number  6 and mass  12.00000

 Molecular mass:   199.95666 amu.
 Principal axes and moments of inertia in atomic units:
                           1         2         3
     Eigenvalues --  1327.680542259.661422468.95896
           X           -0.09984   0.99420  -0.03993
           Y            0.90883   0.07478  -0.41040
           Z            0.40504   0.07726   0.91103
 This molecule is an asymmetric top.
 Rotational symmetry number  1.
 Warning -- assumption of classical behavior for rotation
           may cause significant error
 Rotational temperatures (Kelvin)      0.06524     0.03833     0.03508
 Rotational constants (GHZ):           1.35932     0.79868     0.73097
    1 imaginary frequencies ignored.
 Zero-point vibrational energy     124178.4 (Joules/Mol)
                                   29.67935 (Kcal/Mol)
 Warning -- explicit consideration of  18 degrees of freedom as
           vibrations may cause significant error
 Vibrational temperatures:     31.53    70.10   120.87   215.92   228.58
          (Kelvin)            305.38   337.24   381.36   451.66   490.85
                              576.93   635.14   665.80   695.85   722.07
                              838.83   859.70   879.11  1077.77  1146.09
                             1281.94  1526.91  1626.40  1715.16  1722.65
                             1834.35  1930.04  2026.30  5475.94

 Zero-point correction=                           0.047297 (Hartree/Particle)
 Thermal correction to Energy=                    0.058311
 Thermal correction to Enthalpy=                  0.059255
 Thermal correction to Gibbs Free Energy=         0.008552
 Sum of electronic and zero-point Energies=          -1199.532269
 Sum of electronic and thermal Energies=             -1199.521255
 Sum of electronic and thermal Enthalpies=           -1199.520311
 Sum of electronic and thermal Free Energies=        -1199.571013

                     E (Thermal)             CV                S
                      KCal/Mol        Cal/Mol-Kelvin    Cal/Mol-Kelvin
 Total                   36.590             37.381            106.712
 Electronic               0.000              0.000              0.000
 Translational            0.889              2.981             41.783
 Rotational               0.889              2.981             30.383
 Vibrational             34.813             31.419             34.546
 Vibration     1          0.593              1.985              6.453
 Vibration     2          0.595              1.978              4.869
 Vibration     3          0.601              1.960              3.795
 Vibration     4          0.618              1.903              2.671
 Vibration     5          0.621              1.893              2.563
 Vibration     6          0.643              1.822              2.024
 Vibration     7          0.654              1.788              1.845
 Vibration     8          0.671              1.737              1.628
 Vibration     9          0.702              1.647              1.342
 Vibration    10          0.721              1.593              1.207
 Vibration    11          0.767              1.468              0.959
 Vibration    12          0.801              1.380              0.822
 Vibration    13          0.820              1.333              0.758
 Vibration    14          0.840              1.286              0.700
 Vibration    15          0.857              1.246              0.653
 Vibration    16          0.940              1.068              0.480
 Vibration    17          0.955              1.037              0.454
 Vibration    18          0.970              1.009              0.431

 Normal termination of Gaussian 16 at Fri May 23 05:32:01 2025.
