 Gaussian 16, Revision C.01,
 Gaussian 16:  ES64L-G16RevC.01  3-Jul-2019

 ----------------------------------------------------------------------
 #P wb97xd/6-311++G(d,p) Symm(None) scf(xqc) pop(None) freq opt(CalcFC,
  Tight)
 ----------------------------------------------------------------------

 ------------------------------
 Gaussian input prepared by ASE
 ------------------------------
 Symbolic Z-matrix:
 Charge =  0 Multiplicity = 1

 SCF Done:  E(RwB97XD) =  -1199.57081297     A.U. after   21 cycles
 SCF Done:  E(RwB97XD) =  -1199.58826400     A.U. after   19 cycles
 SCF Done:  E(RwB97XD) =  -1199.58198100     A.U. after   20 cycles
 SCF Done:  E(RwB97XD) =  -1199.58859020     A.U. after   19 cycles
 SCF Done:  E(RwB97XD) =  -1199.58856639     A.U. after   19 cycles
 SCF Done:  E(RwB97XD) =  -1199.59116912     A.U. after   19 cycles
 SCF Done:  E(RwB97XD) =  -1199.59246702     A.U. after   18 cycles
 SCF Done:  E(RwB97XD) =  -1199.59314532     A.U. after   18 cycles
 SCF Done:  E(RwB97XD) =  -1199.59341538     A.U. after   18 cycles
 SCF Done:  E(RwB97XD) =  -1199.59351664     A.U. after   18 cycles
 SCF Done:  E(RwB97XD) =  -1199.59369032     A.U. after   15 cycles
 SCF Done:  E(RwB97XD) =  -1199.59369198     A.U. after   13 cycles
 SCF Done:  E(RwB97XD) =  -1199.59369279     A.U. after   13 cycles
 SCF Done:  E(RwB97XD) =  -1199.59369315     A.U. after   12 cycles
 SCF Done:  E(RwB97XD) =  -1199.59369340     A.U. after   11 cycles
 SCF Done:  E(RwB97XD) =  -1199.59369357     A.U. after   11 cycles
 SCF Done:  E(RwB97XD) =  -1199.59369357     A.U. after    9 cycles
 SCF Done:  E(RwB97XD) =  -1199.59369357     A.U. after    4 cycles
 SCF Done:  E(RwB97XD) =  -1199.59369357     A.U. after    8 cycles
 Optimization completed.
    -- Stationary point found.
 Normal termination of Gaussian 16 at Fri May 23 07:40:06 2025.

 ----------------------------------------------------------------------
 #P Geom=AllCheck Guess=TCheck SCRF=Check GenChk RwB97XD/6-311++G(d,p)
 Freq
 ----------------------------------------------------------------------

 Structure from the checkpoint file:  "/tmp/Gau-86186.chk"
 ------------------------------
 Gaussian input prepared by ASE
 ------------------------------
 Charge =  0 Multiplicity = 1

                          Input orientation:
 ---------------------------------------------------------------------
 Center     Atomic      Atomic             Coordinates (Angstroms)
 Number     Number       Type             X           Y           Z
 ---------------------------------------------------------------------
      1          6           0       -0.799455    1.015136    0.878578
      2          6           0       -0.018284    0.046027   -0.052479
      3          9           0       -0.411152   -1.196895    0.224098
      4          9           0       -0.382558    0.233454   -1.378163
      5         16           0        1.886478   -0.038435    0.119371
      6          8           0        0.117157    1.714507   -2.050678
      7          8           0        2.351436   -0.497512   -1.181002
      8          8           0        2.043023    1.593499    0.275066
      9          9           0       -0.378499    0.765234    2.126784
     10          9           0       -0.617469    2.284294    0.608773
     11          9           0       -2.097474    0.734443    0.806157
     12          1           0        2.832552    1.775886    0.796819
 ---------------------------------------------------------------------

 SCF Done:  E(RwB97XD) =  -1199.59369357     A.U. after    1 cycles

 Isotropic polarizability for W=    0.000000       61.31 Bohr**3.
 End of Minotr F.D. properties file   721 does not exist.

                      1                      2                      3
                      A                      A                      A
 Frequencies --     39.4013                60.2483                82.3683
 Red. masses --     15.3684                10.7572                16.2018
 Frc consts  --      0.0141                 0.0230                 0.0648
 IR Inten    --      2.4522                 4.1400                 0.9605

                      4                      5                      6
                      A                      A                      A
 Frequencies --    125.7693               149.8965               184.2587
 Red. masses --     14.8039                 7.9217                 3.6085
 Frc consts  --      0.1380                 0.1049                 0.0722
 IR Inten    --      1.7762                12.9072                37.2722

                      7                      8                      9
                      A                      A                      A
 Frequencies --    211.7790               213.1671               268.2236
 Red. masses --      7.6332                18.1652                 2.3999
 Frc consts  --      0.2017                 0.4863                 0.1017
 IR Inten    --     14.0047                 0.4498                37.4716

                     10                     11                     12
                      A                      A                      A
 Frequencies --    270.3223               315.6949               327.7832
 Red. masses --     12.8436                16.9652                 5.0103
 Frc consts  --      0.5530                 0.9962                 0.3172
 IR Inten    --      6.6192                17.2819                10.2220

                     13                     14                     15
                      A                      A                      A
 Frequencies --    395.8580               414.6848               449.4164
 Red. masses --     11.9070                16.1398                15.3108
 Frc consts  --      1.0993                 1.6352                 1.8220
 IR Inten    --     22.1188                 3.2552                30.0592

                     16                     17                     18
                      A                      A                      A
 Frequencies --    521.2268               556.7953               595.6405
 Red. masses --     13.7775                17.6889                17.2598
 Frc consts  --      2.2053                 3.2310                 3.6079
 IR Inten    --     28.7033                 5.8459                11.0456

                     19                     20                     21
                      A                      A                      A
 Frequencies --    660.9637               753.6441               762.9744
 Red. masses --     17.0559                16.4351                16.0304
 Frc consts  --      4.3902                 5.4999                 5.4981
 IR Inten    --     31.4665                26.9824               119.6655

                     22                     23                     24
                      A                      A                      A
 Frequencies --    973.4776              1043.1625              1110.0516
 Red. masses --     10.8201                 6.6342                 1.2783
 Frc consts  --      6.0414                 4.2535                 0.9280
 IR Inten    --     78.8690               247.6345               128.0861

                     25                     26                     27
                      A                      A                      A
 Frequencies --   1176.3137              1205.6803              1246.9239
 Red. masses --     11.6660                13.1048                17.1015
 Frc consts  --      9.5108                11.2239                15.6662
 IR Inten    --     90.0915               204.0514               289.3087

                     28                     29                     30
                      A                      A                      A
 Frequencies --   1275.6985              1341.2032              3861.0591
 Red. masses --     13.4206                12.6707                 1.0672
 Frc consts  --     12.8682                13.4289                 9.3736
 IR Inten    --    299.4843               119.5462               155.8685

 - Thermochemistry -
 -------------------
 Temperature   298.150 Kelvin.  Pressure   1.00000 Atm.
 Atom     1 has atomic number  6 and mass  12.00000

 Molecular mass:   199.95666 amu.
 Principal axes and moments of inertia in atomic units:
                           1         2         3
     Eigenvalues --  1348.292792172.337392245.27361
           X            0.86822   0.39840   0.29576
           Y           -0.23700  -0.19071   0.95261
           Z           -0.43592   0.89717   0.07116
 This molecule is an asymmetric top.
 Rotational symmetry number  1.
 Warning -- assumption of classical behavior for rotation
           may cause significant error
 Rotational temperatures (Kelvin)      0.06424     0.03987     0.03858
 Rotational constants (GHZ):           1.33854     0.83078     0.80380
 Zero-point vibrational energy     123177.6 (Joules/Mol)
                                   29.44015 (Kcal/Mol)
 Warning -- explicit consideration of  18 degrees of freedom as
           vibrations may cause significant error
 Vibrational temperatures:     56.69    86.68   118.51   180.95   215.67
          (Kelvin)            265.11   304.70   306.70   385.91   388.93
                              454.21   471.61   569.55   596.64   646.61
                              749.93   801.10   856.99   950.98  1084.33
                             1097.75  1400.62  1500.88  1597.12  1692.45
                             1734.71  1794.05  1835.45  1929.69  5555.20

 Zero-point correction=                           0.046916 (Hartree/Particle)
 Thermal correction to Energy=                    0.058802
 Thermal correction to Enthalpy=                  0.059747
 Thermal correction to Gibbs Free Energy=         0.007968
 Sum of electronic and zero-point Energies=          -1199.546778
 Sum of electronic and thermal Energies=             -1199.534891
 Sum of electronic and thermal Enthalpies=           -1199.533947
 Sum of electronic and thermal Free Energies=        -1199.585726

                     E (Thermal)             CV                S
                      KCal/Mol        Cal/Mol-Kelvin    Cal/Mol-Kelvin
 Total                   36.899             39.832            108.978
 Electronic               0.000              0.000              0.000
 Translational            0.889              2.981             41.783
 Rotational               0.889              2.981             30.265
 Vibrational             35.122             33.871             36.930
 Vibration     1          0.594              1.981              5.289
 Vibration     2          0.597              1.973              4.449
 Vibration     3          0.600              1.961              3.834
 Vibration     4          0.611              1.927              3.010
 Vibration     5          0.618              1.903              2.674
 Vibration     6          0.631              1.861              2.285
 Vibration     7          0.643              1.823              2.028
 Vibration     8          0.644              1.821              2.016
 Vibration     9          0.673              1.732              1.608
 Vibration    10          0.674              1.728              1.594
 Vibration    11          0.703              1.644              1.332
 Vibration    12          0.711              1.620              1.271
 Vibration    13          0.763              1.479              0.978
 Vibration    14          0.778              1.438              0.910
 Vibration    15          0.808              1.362              0.798
 Vibration    16          0.876              1.203              0.607
 Vibration    17          0.912              1.125              0.530
 Vibration    18          0.953              1.041              0.457

                           ! Non-Optimized Parameters !
 Normal termination of Gaussian 16 at Fri May 23 07:41:23 2025.
