 Gaussian 16, Revision C.01,
 Gaussian 16:  ES64L-G16RevC.01  3-Jul-2019

 ----------------------------------------------------------------------
 #P wb97xd/6-311++G(d,p) Symm(None) scf(xqc) pop(None) freq opt(CalcFC,
  Tight)
 ----------------------------------------------------------------------

 ------------------------------
 Gaussian input prepared by ASE
 ------------------------------
 Symbolic Z-matrix:
 Charge =  0 Multiplicity = 1

 SCF Done:  E(RwB97XD) =  -1199.59777172     A.U. after   17 cycles
 SCF Done:  E(RwB97XD) =  -1199.60707110     A.U. after   19 cycles
 SCF Done:  E(RwB97XD) =  -1199.60064785     A.U. after   18 cycles
 SCF Done:  E(RwB97XD) =  -1199.60977839     A.U. after   18 cycles
 SCF Done:  E(RwB97XD) =  -1199.61096315     A.U. after   19 cycles
 SCF Done:  E(RwB97XD) =  -1199.61218801     A.U. after   18 cycles
 SCF Done:  E(RwB97XD) =  -1199.61253929     A.U. after   15 cycles
 SCF Done:  E(RwB97XD) =  -1199.61303480     A.U. after   17 cycles
 SCF Done:  E(RwB97XD) =  -1199.61320989     A.U. after   18 cycles
 SCF Done:  E(RwB97XD) =  -1199.61309949     A.U. after   15 cycles
 SCF Done:  E(RwB97XD) =  -1199.61330496     A.U. after   15 cycles
 SCF Done:  E(RwB97XD) =  -1199.61330849     A.U. after   13 cycles
 SCF Done:  E(RwB97XD) =  -1199.61330875     A.U. after   11 cycles
 SCF Done:  E(RwB97XD) =  -1199.61330877     A.U. after   10 cycles
 SCF Done:  E(RwB97XD) =  -1199.61330877     A.U. after    9 cycles
 Optimization completed.
    -- Stationary point found.
 Normal termination of Gaussian 16 at Fri May 23 07:35:28 2025.

 ----------------------------------------------------------------------
 #P Geom=AllCheck Guess=TCheck SCRF=Check GenChk RwB97XD/6-311++G(d,p)
 Freq
 ----------------------------------------------------------------------

 Structure from the checkpoint file:  "/tmp/Gau-83654.chk"
 ------------------------------
 Gaussian input prepared by ASE
 ------------------------------
 Charge =  0 Multiplicity = 1

                          Input orientation:
 ---------------------------------------------------------------------
 Center     Atomic      Atomic             Coordinates (Angstroms)
 Number     Number       Type             X           Y           Z
 ---------------------------------------------------------------------
      1          6           0       -0.629419   -1.319907    0.484640
      2          6           0       -0.139390   -0.089657   -0.309564
      3          9           0       -0.681196   -0.039993   -1.497096
      4          9           0       -0.655263    1.024241    0.436950
      5         16           0        1.821231   -0.036467   -0.459145
      6          8           0       -0.105737    2.462507   -0.108291
      7          8           0        2.011675    0.423679   -1.828701
      8          8           0        2.026727    1.130072    0.624715
      9          9           0       -0.243538   -2.410433   -0.172111
     10          9           0       -0.078936   -1.321956    1.692966
     11          9           0       -1.948916   -1.329945    0.604923
     12          1           0        1.438983    1.904584    0.424398
 ---------------------------------------------------------------------

 SCF Done:  E(RwB97XD) =  -1199.61330877     A.U. after    1 cycles

 Isotropic polarizability for W=    0.000000       61.50 Bohr**3.
 End of Minotr F.D. properties file   721 does not exist.

                      1                      2                      3
                      A                      A                      A
 Frequencies --     55.4670                60.6606               122.7114
 Red. masses --     16.9674                14.0726                18.3758
 Frc consts  --      0.0308                 0.0305                 0.1630
 IR Inten    --      0.2356                 0.8716                 3.8086

                      4                      5                      6
                      A                      A                      A
 Frequencies --    128.4942               188.2215               231.4614
 Red. masses --     15.9066                17.2264                17.0317
 Frc consts  --      0.1547                 0.3596                 0.5376
 IR Inten    --      1.1905                 4.4347                 0.7443

                      7                      8                      9
                      A                      A                      A
 Frequencies --    246.9159               266.8873               283.7962
 Red. masses --     17.4813                14.6643                15.5010
 Frc consts  --      0.6279                 0.6154                 0.7356
 IR Inten    --      1.8272                 3.3623                 6.3250

                     10                     11                     12
                      A                      A                      A
 Frequencies --    326.9413               340.2436               416.1230
 Red. masses --      9.6847                18.4123                13.7741
 Frc consts  --      0.6099                 1.2559                 1.4053
 IR Inten    --      5.7375                 1.0206                35.1297

                     13                     14                     15
                      A                      A                      A
 Frequencies --    433.2799               465.0635               533.1652
 Red. masses --     17.4562                 9.6086                18.0775
 Frc consts  --      1.9308                 1.2244                 3.0277
 IR Inten    --      0.9156                27.3027                 3.8639

                     16                     17                     18
                      A                      A                      A
 Frequencies --    549.1280               584.7987               626.4780
 Red. masses --     17.6661                17.6632                17.1780
 Frc consts  --      3.1386                 3.5590                 3.9722
 IR Inten    --     24.6267                37.9596                17.9575

                     19                     20                     21
                      A                      A                      A
 Frequencies --    744.6065               832.6023               845.7922
 Red. masses --     15.7574                16.8034                 1.1569
 Frc consts  --      5.1474                 6.8631                 0.4876
 IR Inten    --     58.3059               129.5082               142.6546

                     22                     23                     24
                      A                      A                      A
 Frequencies --    935.0875               961.8912              1222.4120
 Red. masses --      7.9237                12.5478                11.4509
 Frc consts  --      4.0821                 6.8402                10.0815
 IR Inten    --    162.0207                75.0175               147.6037

                     25                     26                     27
                      A                      A                      A
 Frequencies --   1226.9912              1244.4199              1252.9054
 Red. masses --      4.5261                 7.9621                11.5621
 Frc consts  --      4.0147                 7.2646                10.6936
 IR Inten    --    103.8996               298.9340               285.7134

                     28                     29                     30
                      A                      A                      A
 Frequencies --   1295.2283              1364.7513              3304.7542
 Red. masses --      1.5263                12.4869                 1.0667
 Frc consts  --      1.5086                13.7029                 6.8638
 IR Inten    --    170.0429               153.7034               524.8926

 - Thermochemistry -
 -------------------
 Temperature   298.150 Kelvin.  Pressure   1.00000 Atm.
 Atom     1 has atomic number  6 and mass  12.00000

 Molecular mass:   199.95666 amu.
 Principal axes and moments of inertia in atomic units:
                           1         2         3
     Eigenvalues --  1312.134102210.011922477.51348
           X            0.66989  -0.64700   0.36419
           Y            0.68155   0.73045   0.04403
           Z           -0.29451   0.21872   0.93028
 This molecule is an asymmetric top.
 Rotational symmetry number  1.
 Warning -- assumption of classical behavior for rotation
           may cause significant error
 Rotational temperatures (Kelvin)      0.06601     0.03919     0.03496
 Rotational constants (GHZ):           1.37542     0.81662     0.72845
 Zero-point vibrational energy     126153.9 (Joules/Mol)
                                   30.15150 (Kcal/Mol)
 Warning -- explicit consideration of  17 degrees of freedom as
           vibrations may cause significant error
 Vibrational temperatures:     79.80    87.28   176.55   184.87   270.81
          (Kelvin)            333.02   355.26   383.99   408.32   470.40
                              489.53   598.71   623.39   669.12   767.11
                              790.07   841.39   901.36  1071.32  1197.93
                             1216.91  1345.38  1383.95  1758.78  1765.37
                             1790.44  1802.65  1863.54  1963.57  4754.80

 Zero-point correction=                           0.048049 (Hartree/Particle)
 Thermal correction to Energy=                    0.059067
 Thermal correction to Enthalpy=                  0.060012
 Thermal correction to Gibbs Free Energy=         0.010485
 Sum of electronic and zero-point Energies=          -1199.565259
 Sum of electronic and thermal Energies=             -1199.554241
 Sum of electronic and thermal Enthalpies=           -1199.553297
 Sum of electronic and thermal Free Energies=        -1199.602823

                     E (Thermal)             CV                S
                      KCal/Mol        Cal/Mol-Kelvin    Cal/Mol-Kelvin
 Total                   37.065             38.152            104.236
 Electronic               0.000              0.000              0.000
 Translational            0.889              2.981             41.783
 Rotational               0.889              2.981             30.353
 Vibrational             35.288             32.190             32.100
 Vibration     1          0.596              1.975              4.612
 Vibration     2          0.597              1.973              4.436
 Vibration     3          0.610              1.930              3.057
 Vibration     4          0.611              1.925              2.968
 Vibration     5          0.633              1.856              2.245
 Vibration     6          0.653              1.793              1.868
 Vibration     7          0.661              1.768              1.752
 Vibration     8          0.672              1.734              1.616
 Vibration     9          0.682              1.704              1.511
 Vibration    10          0.711              1.622              1.275
 Vibration    11          0.720              1.595              1.211
 Vibration    12          0.779              1.435              0.905
 Vibration    13          0.794              1.398              0.848
 Vibration    14          0.823              1.328              0.752
 Vibration    15          0.888              1.177              0.580
 Vibration    16          0.904              1.142              0.546
 Vibration    17          0.942              1.064              0.477

 Optimization completed.
    -- Stationary point found.
 Normal termination of Gaussian 16 at Fri May 23 07:36:49 2025.
