 Gaussian 16, Revision C.01,
 Gaussian 16:  ES64L-G16RevC.01  3-Jul-2019

 ----------------------------------------------------------------------
 #P wb97xd/6-311++G(d,p) Symm(None) scf(xqc) pop(None) freq opt(CalcFC,
  Tight)
 ----------------------------------------------------------------------

 ------------------------------
 Gaussian input prepared by ASE
 ------------------------------
 Symbolic Z-matrix:
 Charge =  0 Multiplicity = 1

 SCF Done:  E(RwB97XD) =  -1199.59202174     A.U. after   21 cycles
 SCF Done:  E(RwB97XD) =  -1199.60593843     A.U. after   20 cycles
 SCF Done:  E(RwB97XD) =  -1199.60776897     A.U. after   19 cycles
 SCF Done:  E(RwB97XD) =  -1199.61000894     A.U. after   17 cycles
 SCF Done:  E(RwB97XD) =  -1199.61083895     A.U. after   17 cycles
 SCF Done:  E(RwB97XD) =  -1199.61096595     A.U. after   18 cycles
 SCF Done:  E(RwB97XD) =  -1199.61072019     A.U. after   18 cycles
 SCF Done:  E(RwB97XD) =  -1199.61129468     A.U. after   16 cycles
 SCF Done:  E(RwB97XD) =  -1199.61135277     A.U. after   17 cycles
 SCF Done:  E(RwB97XD) =  -1199.61136940     A.U. after   15 cycles
 SCF Done:  E(RwB97XD) =  -1199.61139377     A.U. after   15 cycles
 SCF Done:  E(RwB97XD) =  -1199.61139416     A.U. after   12 cycles
 SCF Done:  E(RwB97XD) =  -1199.61139423     A.U. after   11 cycles
 SCF Done:  E(RwB97XD) =  -1199.61139425     A.U. after    9 cycles
 SCF Done:  E(RwB97XD) =  -1199.61139426     A.U. after   10 cycles
 SCF Done:  E(RwB97XD) =  -1199.61139426     A.U. after    9 cycles
 SCF Done:  E(RwB97XD) =  -1199.61139426     A.U. after    8 cycles
 SCF Done:  E(RwB97XD) =  -1199.61139426     A.U. after    9 cycles
 SCF Done:  E(RwB97XD) =  -1199.61139426     A.U. after    9 cycles
 Optimization completed.
    -- Stationary point found.
 Normal termination of Gaussian 16 at Fri May 23 07:37:24 2025.

 ----------------------------------------------------------------------
 #P Geom=AllCheck Guess=TCheck SCRF=Check GenChk RwB97XD/6-311++G(d,p)
 Freq
 ----------------------------------------------------------------------

 Structure from the checkpoint file:  "/tmp/Gau-13263.chk"
 ------------------------------
 Gaussian input prepared by ASE
 ------------------------------
 Charge =  0 Multiplicity = 1

                          Input orientation:
 ---------------------------------------------------------------------
 Center     Atomic      Atomic             Coordinates (Angstroms)
 Number     Number       Type             X           Y           Z
 ---------------------------------------------------------------------
      1          6           0       -0.723424    0.970829    0.992205
      2          6           0        0.051377    0.070257   -0.002531
      3          9           0       -0.368145   -1.173128    0.116376
      4          9           0       -0.346735    0.424198   -1.340303
      5         16           0        1.981220    0.026276    0.095899
      6          8           0        0.204626    1.840664   -1.941355
      7          8           0        2.312224   -0.803253   -1.058806
      8          8           0        2.198009    1.590807   -0.194094
      9          9           0       -0.369946    0.583553    2.219537
     10          9           0       -0.437312    2.248934    0.843854
     11          9           0       -2.030439    0.795173    0.843855
     12          1           0        1.649263    1.878597   -0.967626
 ---------------------------------------------------------------------

 SCF Done:  E(RwB97XD) =  -1199.61139426     A.U. after    1 cycles

 Isotropic polarizability for W=    0.000000       60.96 Bohr**3.
 End of Minotr F.D. properties file   721 does not exist.

                      1                      2                      3
                      A                      A                      A
 Frequencies --     31.9088                83.5799               105.8711
 Red. masses --     17.2477                13.5260                16.7796
 Frc consts  --      0.0103                 0.0557                 0.1108
 IR Inten    --      0.1357                 1.5709                 0.7193

                      4                      5                      6
                      A                      A                      A
 Frequencies --    125.6099               202.2941               217.8179
 Red. masses --     16.4164                16.8099                14.2098
 Frc consts  --      0.1526                 0.4053                 0.3972
 IR Inten    --      1.8439                 2.2647                 0.8640

                      7                      8                      9
                      A                      A                      A
 Frequencies --    234.5092               255.0681               288.0608
 Red. masses --     15.7679                16.6954                11.7431
 Frc consts  --      0.5109                 0.6400                 0.5741
 IR Inten    --      1.9831                 2.4861                10.7338

                     10                     11                     12
                      A                      A                      A
 Frequencies --    323.6892               336.4782               388.8978
 Red. masses --     13.7390                16.6535                16.7027
 Frc consts  --      0.8481                 1.1109                 1.4884
 IR Inten    --      5.0646                10.0793                28.5486

                     13                     14                     15
                      A                      A                      A
 Frequencies --    426.7085               469.6099               520.9518
 Red. masses --     11.2389                14.3015                13.5303
 Frc consts  --      1.2057                 1.8583                 2.1635
 IR Inten    --      4.9976                22.5484                23.8627

                     16                     17                     18
                      A                      A                      A
 Frequencies --    567.2477               584.1646               658.2435
 Red. masses --     16.7190                17.4757                17.4899
 Frc consts  --      3.1696                 3.5136                 4.4649
 IR Inten    --     12.6774                28.7297                47.7789

                     19                     20                     21
                      A                      A                      A
 Frequencies --    743.7924               765.5424               836.8778
 Red. masses --      7.7728                 1.2137                15.2927
 Frc consts  --      2.5336                 0.4191                 6.3104
 IR Inten    --     84.2748               121.3254               124.2457

                     22                     23                     24
                      A                      A                      A
 Frequencies --    943.7139               965.5885              1203.9626
 Red. masses --     12.5754                13.1942                13.4171
 Frc consts  --      6.5986                 7.2480                11.4587
 IR Inten    --    153.5538                71.6125               128.5921

                     25                     26                     27
                      A                      A                      A
 Frequencies --   1222.1204              1236.6914              1269.3772
 Red. masses --      9.3538                12.5467                12.5324
 Frc consts  --      8.2312                11.3058                11.8978
 IR Inten    --    187.6042               257.9776               337.4106

                     28                     29                     30
                      A                      A                      A
 Frequencies --   1325.7898              1347.2281              3334.0118
 Red. masses --      1.1986                11.7083                 1.0665
 Frc consts  --      1.2413                12.5206                 6.9845
 IR Inten    --     87.4162               127.2941               554.6252

 - Thermochemistry -
 -------------------
 Temperature   298.150 Kelvin.  Pressure   1.00000 Atm.
 Atom     1 has atomic number  6 and mass  12.00000

 Molecular mass:   199.95666 amu.
 Principal axes and moments of inertia in atomic units:
                           1         2         3
     Eigenvalues --  1325.677192184.295562301.72880
           X            0.84753  -0.16432   0.50467
           Y           -0.22297   0.75266   0.61951
           Z           -0.48164  -0.63758   0.60126
 This molecule is an asymmetric top.
 Rotational symmetry number  1.
 Warning -- assumption of classical behavior for rotation
           may cause significant error
 Rotational temperatures (Kelvin)      0.06534     0.03965     0.03763
 Rotational constants (GHZ):           1.36137     0.82623     0.78408
 Zero-point vibrational energy     125700.0 (Joules/Mol)
                                   30.04303 (Kcal/Mol)
 Warning -- explicit consideration of  17 degrees of freedom as
           vibrations may cause significant error
 Vibrational temperatures:     45.91   120.25   152.32   180.72   291.06
          (Kelvin)            313.39   337.41   366.99   414.46   465.72
                              484.12   559.54   613.94   675.66   749.53
                              816.14   840.48   947.07  1070.15  1101.44
                             1204.08  1357.79  1389.27  1732.23  1758.36
                             1779.32  1826.35  1907.52  1938.36  4796.90

 Zero-point correction=                           0.047877 (Hartree/Particle)
 Thermal correction to Energy=                    0.059000
 Thermal correction to Enthalpy=                  0.059944
 Thermal correction to Gibbs Free Energy=         0.009950
 Sum of electronic and zero-point Energies=          -1199.563518
 Sum of electronic and thermal Energies=             -1199.552394
 Sum of electronic and thermal Enthalpies=           -1199.551450
 Sum of electronic and thermal Free Energies=        -1199.601444

                     E (Thermal)             CV                S
                      KCal/Mol        Cal/Mol-Kelvin    Cal/Mol-Kelvin
 Total                   37.023             38.313            105.222
 Electronic               0.000              0.000              0.000
 Translational            0.889              2.981             41.783
 Rotational               0.889              2.981             30.278
 Vibrational             35.246             32.351             33.160
 Vibration     1          0.594              1.983              5.707
 Vibration     2          0.600              1.960              3.805
 Vibration     3          0.605              1.945              3.343
 Vibration     4          0.611              1.927              3.012
 Vibration     5          0.639              1.837              2.112
 Vibration     6          0.646              1.814              1.977
 Vibration     7          0.654              1.788              1.844
 Vibration     8          0.665              1.754              1.695
 Vibration     9          0.685              1.696              1.485
 Vibration    10          0.708              1.628              1.291
 Vibration    11          0.717              1.603              1.229
 Vibration    12          0.757              1.494              1.004
 Vibration    13          0.788              1.412              0.869
 Vibration    14          0.827              1.317              0.739
 Vibration    15          0.876              1.204              0.608
 Vibration    16          0.923              1.102              0.510
 Vibration    17          0.941              1.066              0.478

 Optimization completed.
    -- Stationary point found.
 Normal termination of Gaussian 16 at Fri May 23 07:38:42 2025.
