 Gaussian 16, Revision C.01,
 Gaussian 16:  ES64L-G16RevC.01  3-Jul-2019

 ------------------------------------------
 #P am1 Symm(None) scf(xqc) pop(None) force
 ------------------------------------------

 ------------------------------
 Gaussian input prepared by ASE
 ------------------------------
 Symbolic Z-matrix:
 Charge =  0 Multiplicity = 1

                          Input orientation:
 ---------------------------------------------------------------------
 Center     Atomic      Atomic             Coordinates (Angstroms)
 Number     Number       Type             X           Y           Z
 ---------------------------------------------------------------------
      1          6           0       -0.244628   -0.347914    1.115165
      2          6           0       -0.370581    0.527669   -0.169821
      3          9           0       -1.042028    0.058371   -1.190539
      4          9           0       -0.713818    1.813158   -0.086276
      5         16           0        1.313620   -0.011778    0.439156
      6          8           0        1.119929    1.231335    1.236864
      7          8           0        2.269733   -0.997887    0.856061
      8          8           0        2.202506    0.663154   -0.751747
      9          9           0        1.135227    0.607339    2.398495
     10          9           0       -0.816804    0.109833    2.169709
     11          9           0       -0.712364   -1.518670    1.003683
     12          1           0        1.909630    1.463416   -1.202456
 ---------------------------------------------------------------------

 SCF Done:  E(RAM1) =  0.665294386859     A.U. after   17 cycles
 Normal termination of Gaussian 16 at Fri May 23 04:33:42 2025.
