 Gaussian 16, Revision C.01,
 Gaussian 16:  ES64L-G16RevC.01  3-Jul-2019

 ------------------------------------------
 #P am1 Symm(None) scf(xqc) pop(None) force
 ------------------------------------------

 ------------------------------
 Gaussian input prepared by ASE
 ------------------------------
 Symbolic Z-matrix:
 Charge =  0 Multiplicity = 1

                          Input orientation:
 ---------------------------------------------------------------------
 Center     Atomic      Atomic             Coordinates (Angstroms)
 Number     Number       Type             X           Y           Z
 ---------------------------------------------------------------------
      1          6           0       -0.454467    0.034167    1.242595
      2          6           0       -0.305018    0.312665   -0.285087
      3          9           0       -0.761935   -0.649495   -1.045631
      4          9           0       -0.932439    1.418869   -0.685001
      5         16           0        1.389509    0.294440    0.506517
      6          8           0        1.369241    0.815229    1.902067
      7          8           0        2.101537   -0.736907   -0.193283
      8          8           0        1.943066    1.626558   -0.256993
      9          9           0        1.176226   -1.004333    2.094551
     10          9           0       -0.864488    0.959231    2.033246
     11          9           0       -1.068464   -1.021847    1.573842
     12          1           0        2.457654    1.549448   -1.068529
 ---------------------------------------------------------------------

 SCF Done:  E(RAM1) =  0.509873978617     A.U. after   24 cycles
 Normal termination of Gaussian 16 at Fri May 23 04:35:46 2025.
