 Gaussian 16, Revision C.01,
 Gaussian 16:  ES64L-G16RevC.01  3-Jul-2019

 ----------------------------------------------------------------------
 #P wb97xd/6-311++G(d,p) Symm(None) scf(xqc) pop(None) opt(CalcAll, Tig
 ht,Cartesian)
 ----------------------------------------------------------------------

 ------------------------------
 Gaussian input prepared by ASE
 ------------------------------
 Symbolic Z-matrix:
 Charge =  0 Multiplicity = 1

 SCF Done:  E(RwB97XD) =  -1199.60909407     A.U. after   18 cycles
 SCF Done:  E(RwB97XD) =  -1199.60933838     A.U. after   17 cycles
 SCF Done:  E(RwB97XD) =  -1199.60934881     A.U. after   13 cycles
 SCF Done:  E(RwB97XD) =  -1199.60934902     A.U. after   11 cycles
 SCF Done:  E(RwB97XD) =  -1199.60934902     A.U. after    9 cycles

 Isotropic polarizability for W=    0.000000       61.58 Bohr**3.
 End of Minotr F.D. properties file   721 does not exist.

 Optimization completed.
    -- Stationary point found.

                          Input orientation:
 ---------------------------------------------------------------------
 Center     Atomic      Atomic             Coordinates (Angstroms)
 Number     Number       Type             X           Y           Z
 ---------------------------------------------------------------------
      1          6           0       -0.651907   -1.219647    0.375713
      2          6           0        0.015643    0.002288   -0.291591
      3          9           0       -0.324900    0.095346   -1.552055
      4          9           0       -0.565990    1.164185    0.334533
      5         16           0        1.955841    0.090997   -0.114085
      6          8           0        0.346274    1.758899    1.548584
      7          8           0        2.397755   -0.687361   -1.260951
      8          8           0        2.020861    1.656180   -0.579547
      9          9           0       -0.198122   -2.320577   -0.211538
     10          9           0       -0.345352   -1.255357    1.665308
     11          9           0       -1.971578   -1.167987    0.241057
     12          1           0        1.694449    2.190324    0.170058
 ---------------------------------------------------------------------

                      1                      2                      3
                      A                      A                      A
 Frequencies --     40.6985                55.7173               107.5998
 Red. masses --     17.8706                13.1913                13.7312
 Frc consts  --      0.0174                 0.0241                 0.0937
 IR Inten    --      0.3699                 0.7098                 3.7424

                      4                      5                      6
                      A                      A                      A
 Frequencies --    128.9557               195.3352               207.7729
 Red. masses --     15.2271                16.1015                17.3430
 Frc consts  --      0.1492                 0.3620                 0.4411
 IR Inten    --      5.7060                 6.5554                 2.9461

                      7                      8                      9
                      A                      A                      A
 Frequencies --    232.6531               250.0517               272.8382
 Red. masses --     14.3839                14.9438                17.4248
 Frc consts  --      0.4587                 0.5505                 0.7642
 IR Inten    --      1.8920                13.8647                 0.5038

                     10                     11                     12
                      A                      A                      A
 Frequencies --    298.2351               345.9472               402.4757
 Red. masses --     10.4338                16.9059                12.8413
 Frc consts  --      0.5468                 1.1921                 1.2256
 IR Inten    --      7.4631                 5.2470                13.2787

                     13                     14                     15
                      A                      A                      A
 Frequencies --    429.2642               467.5903               533.8663
 Red. masses --     12.6652                13.9332                16.4711
 Frc consts  --      1.3750                 1.7949                 2.7659
 IR Inten    --      2.0201                 1.2897                20.6930

                     16                     17                     18
                      A                      A                      A
 Frequencies --    565.3767               589.2148               623.2497
 Red. masses --     16.1011                16.3178                 2.1695
 Frc consts  --      3.0324                 3.3378                 0.4965
 IR Inten    --     11.8403                86.6140                70.6596

                     19                     20                     21
                      A                      A                      A
 Frequencies --    639.9350               744.7596               768.9601
 Red. masses --      2.0833                14.9776                12.1001
 Frc consts  --      0.5027                 4.8947                 4.2155
 IR Inten    --    116.6234                 8.1967               115.7321

                     22                     23                     24
                      A                      A                      A
 Frequencies --    923.1489               959.7808              1147.2124
 Red. masses --     12.4848                13.1405                 1.2647
 Frc consts  --      6.2687                 7.1319                 0.9807
 IR Inten    --    116.5545               107.8327               117.9419

                     25                     26                     27
                      A                      A                      A
 Frequencies --   1228.0655              1240.0863              1249.5142
 Red. masses --     11.7995                12.7151                12.9492
 Frc consts  --     10.4847                11.5206                11.9117
 IR Inten    --    166.5052                91.5340               212.2228

                     28                     29                     30
                      A                      A                      A
 Frequencies --   1266.1505              1365.1417              3640.9817
 Red. masses --      9.2895                12.7954                 1.0654
 Frc consts  --      8.7743                14.0495                 8.3211
 IR Inten    --    437.3284               127.8210               231.2047

 - Thermochemistry -
 -------------------
 Temperature   298.150 Kelvin.  Pressure   1.00000 Atm.
 Atom     1 has atomic number  6 and mass  12.00000

 Molecular mass:   199.95666 amu.
 Principal axes and moments of inertia in atomic units:
                           1         2         3
     Eigenvalues --  1326.545422083.011342510.51557
           X            0.78844  -0.40121   0.46626
           Y            0.57536   0.74911  -0.32832
           Z           -0.21756   0.52713   0.82147
 This molecule is an asymmetric top.
 Rotational symmetry number  1.
 Warning -- assumption of classical behavior for rotation
           may cause significant error
 Rotational temperatures (Kelvin)      0.06529     0.04158     0.03450
 Rotational constants (GHZ):           1.36048     0.86641     0.71887
 Zero-point vibrational energy     125132.9 (Joules/Mol)
                                   29.90747 (Kcal/Mol)
 Warning -- explicit consideration of  17 degrees of freedom as
           vibrations may cause significant error
 Vibrational temperatures:     58.56    80.16   154.81   185.54   281.04
          (Kelvin)            298.94   334.74   359.77   392.55   429.09
                              497.74   579.07   617.62   672.76   768.11
                              813.45   847.75   896.72   920.72  1071.54
                             1106.36  1328.21  1380.91  1650.58  1766.91
                             1784.21  1797.77  1821.71  1964.13  5238.56

 Zero-point correction=                           0.047661 (Hartree/Particle)
 Thermal correction to Energy=                    0.058962
 Thermal correction to Enthalpy=                  0.059906
 Thermal correction to Gibbs Free Energy=         0.009506
 Sum of electronic and zero-point Energies=          -1199.561688
 Sum of electronic and thermal Energies=             -1199.550387
 Sum of electronic and thermal Enthalpies=           -1199.549443
 Sum of electronic and thermal Free Energies=        -1199.599843

                     E (Thermal)             CV                S
                      KCal/Mol        Cal/Mol-Kelvin    Cal/Mol-Kelvin
 Total                   36.999             38.869            106.075
 Electronic               0.000              0.000              0.000
 Translational            0.889              2.981             41.783
 Rotational               0.889              2.981             30.318
 Vibrational             35.222             32.907             33.974
 Vibration     1          0.594              1.981              5.225
 Vibration     2          0.596              1.975              4.603
 Vibration     3          0.606              1.943              3.312
 Vibration     4          0.611              1.924              2.962
 Vibration     5          0.636              1.846              2.177
 Vibration     6          0.641              1.829              2.063
 Vibration     7          0.653              1.791              1.858
 Vibration     8          0.663              1.763              1.730
 Vibration     9          0.676              1.723              1.578
 Vibration    10          0.691              1.677              1.427
 Vibration    11          0.724              1.584              1.185
 Vibration    12          0.768              1.465              0.954
 Vibration    13          0.791              1.407              0.861
 Vibration    14          0.825              1.322              0.744
 Vibration    15          0.889              1.175              0.579
 Vibration    16          0.921              1.106              0.513
 Vibration    17          0.946              1.055              0.469

 Normal termination of Gaussian 16 at Fri May 23 07:55:25 2025.
