 Gaussian 16, Revision C.01,
 Gaussian 16:  ES64L-G16RevC.01  3-Jul-2019

 ----------------------------------------------------------------------
 #P wb97xd/6-311++G(d,p) Symm(None) scf(xqc) pop(None) opt(NoFreeze,TS,
 CalcAll,NoEigentest,MaxCycle=999)
 ----------------------------------------------------------------------

 ------------------------------
 Gaussian input prepared by ASE
 ------------------------------
 Symbolic Z-matrix:
 Charge =  0 Multiplicity = 1

 SCF Done:  E(RwB97XD) =  -1199.65967471     A.U. after   16 cycles

 Isotropic polarizability for W=    0.000000       67.38 Bohr**3.
 End of Minotr F.D. properties file   721 does not exist.

 Optimization completed.
    -- Stationary point found.

                          Input orientation:
 ---------------------------------------------------------------------
 Center     Atomic      Atomic             Coordinates (Angstroms)
 Number     Number       Type             X           Y           Z
 ---------------------------------------------------------------------
      1          6           0       -0.249330    0.445250    0.397001
      2          6           0        1.711546   -0.292997   -0.546485
      3          9           0        2.558155   -1.133157    0.050958
      4          9           0        1.874199   -0.453794   -1.865843
      5         16           0        2.288822    1.504398   -0.090519
      6          8           0        0.939018    1.868908    0.469336
      7          8           0        3.441479    1.751955    0.743717
      8          8           0        2.327746    2.428000   -1.413493
      9          9           0       -1.108657    1.264967    0.983924
     10          9           0       -0.778677    0.150486   -0.764737
     11          9           0       -0.080419   -0.548077    1.235184
     12          1           0        3.230128    2.469120   -1.756458
 ---------------------------------------------------------------------

 ******    1 imaginary frequencies (negative Signs) ******

                      1                      2                      3
                      A                      A                      A
 Frequencies --   -448.0857                23.3469                77.5388
 Red. masses --     15.7982                13.1029                13.9969
 Frc consts  --      1.8689                 0.0042                 0.0496
 IR Inten    --     42.4232                 1.6600                 1.3591

                      4                      5                      6
                      A                      A                      A
 Frequencies --     89.6142               126.7761               144.6682
 Red. masses --     17.8815                 9.0185                 9.2853
 Frc consts  --      0.0846                 0.0854                 0.1145
 IR Inten    --      0.0728                37.0321                 7.9515

                      7                      8                      9
                      A                      A                      A
 Frequencies --    182.7461               245.2851               280.9304
 Red. masses --      5.6116                 1.6563                14.0055
 Frc consts  --      0.1104                 0.0587                 0.6512
 IR Inten    --     22.4944               111.7155                 3.1877

                     10                     11                     12
                      A                      A                      A
 Frequencies --    317.8491               358.3493               362.1374
 Red. masses --     11.0361                16.2862                 7.3757
 Frc consts  --      0.6569                 1.2322                 0.5699
 IR Inten    --     57.7644                 0.4534                 7.4189

                     13                     14                     15
                      A                      A                      A
 Frequencies --    454.8566               463.8013               499.9675
 Red. masses --      6.8102                15.6897                17.1561
 Frc consts  --      0.8302                 1.9885                 2.5267
 IR Inten    --     13.5835                 8.9675                19.9923

                     16                     17                     18
                      A                      A                      A
 Frequencies --    584.9018               599.8722               636.5182
 Red. masses --     17.2723                18.3309                18.1482
 Frc consts  --      3.4815                 3.8864                 4.3322
 IR Inten    --    162.6369                 2.1359                15.2184

                     19                     20                     21
                      A                      A                      A
 Frequencies --    653.6914               713.8213               840.3939
 Red. masses --     12.8145                15.0349                18.6745
 Frc consts  --      3.2263                 4.5137                 7.7708
 IR Inten    --     99.7607               359.4697               191.1685

                     22                     23                     24
                      A                      A                      A
 Frequencies --    911.4362              1012.2260              1111.7579
 Red. masses --     16.5295                15.1227                10.7714
 Frc consts  --      8.0902                 9.1292                 7.8441
 IR Inten    --    524.2074               100.1596               227.6126

                     25                     26                     27
                      A                      A                      A
 Frequencies --   1121.0938              1150.7148              1184.8785
 Red. masses --      1.5670                 5.7088                 6.5113
 Frc consts  --      1.1604                 4.4538                 5.3860
 IR Inten    --     69.7671               395.5049               266.2479

                     28                     29                     30
                      A                      A                      A
 Frequencies --   1305.5254              1313.0904              3835.0804
 Red. masses --     12.1562                12.9908                 1.0663
 Frc consts  --     12.2072                13.1970                 9.2404
 IR Inten    --    148.9818               464.9073               193.2352

 - Thermochemistry -
 -------------------
 Temperature   298.150 Kelvin.  Pressure   1.00000 Atm.
 Atom     1 has atomic number  6 and mass  12.00000

 Molecular mass:   199.95666 amu.
 Principal axes and moments of inertia in atomic units:
                           1         2         3
     Eigenvalues --  1396.659752161.430452534.29730
           X            0.93142  -0.15830   0.32772
           Y            0.24855   0.93445  -0.25502
           Z           -0.26587   0.31899   0.90970
 This molecule is an asymmetric top.
 Rotational symmetry number  1.
 Warning -- assumption of classical behavior for rotation
           may cause significant error
 Rotational temperatures (Kelvin)      0.06202     0.04007     0.03418
 Rotational constants (GHZ):           1.29218     0.83498     0.71213
    1 imaginary frequencies ignored.
 Zero-point vibrational energy     123232.5 (Joules/Mol)
                                   29.45328 (Kcal/Mol)
 Warning -- explicit consideration of  16 degrees of freedom as
           vibrations may cause significant error
 Vibrational temperatures:     33.59   111.56   128.93   182.40   208.15
          (Kelvin)            262.93   352.91   404.20   457.31   515.58
                              521.03   654.44   667.31   719.34   841.54
                              863.08   915.81   940.52  1027.03  1209.14
                             1311.35  1456.37  1599.57  1613.00  1655.62
                             1704.78  1878.36  1889.24  5517.83

 Zero-point correction=                           0.046937 (Hartree/Particle)
 Thermal correction to Energy=                    0.057863
 Thermal correction to Enthalpy=                  0.058807
 Thermal correction to Gibbs Free Energy=         0.008505
 Sum of electronic and zero-point Energies=          -1199.612738
 Sum of electronic and thermal Energies=             -1199.601812
 Sum of electronic and thermal Enthalpies=           -1199.600868
 Sum of electronic and thermal Free Energies=        -1199.651169

                     E (Thermal)             CV                S
                      KCal/Mol        Cal/Mol-Kelvin    Cal/Mol-Kelvin
 Total                   36.309             37.207            105.869
 Electronic               0.000              0.000              0.000
 Translational            0.889              2.981             41.783
 Rotational               0.889              2.981             30.415
 Vibrational             34.532             31.246             33.670
 Vibration     1          0.593              1.985              6.327
 Vibration     2          0.599              1.964              3.952
 Vibration     3          0.602              1.957              3.668
 Vibration     4          0.611              1.926              2.994
 Vibration     5          0.616              1.908              2.741
 Vibration     6          0.630              1.863              2.300
 Vibration     7          0.660              1.771              1.764
 Vibration     8          0.681              1.709              1.528
 Vibration     9          0.704              1.639              1.321
 Vibration    10          0.733              1.558              1.129
 Vibration    11          0.736              1.550              1.113
 Vibration    12          0.813              1.350              0.781
 Vibration    13          0.821              1.330              0.755
 Vibration    14          0.855              1.250              0.658
 Vibration    15          0.942              1.064              0.476
 Vibration    16          0.958              1.032              0.450

 Normal termination of Gaussian 16 at Fri May 23 05:27:08 2025.
