 Gaussian 16, Revision C.01,
 Gaussian 16:  ES64L-G16RevC.01  3-Jul-2019

 ----------------------------------------------------------------------
 #P wb97xd/6-311++G(d,p) Symm(None) scf(xqc) pop(None) opt(NoFreeze,TS,
 CalcAll,NoEigentest,MaxCycle=999)
 ----------------------------------------------------------------------

 ------------------------------
 Gaussian input prepared by ASE
 ------------------------------
 Symbolic Z-matrix:
 Charge =  0 Multiplicity = 1

 SCF Done:  E(RwB97XD) =  -1199.66072081     A.U. after   17 cycles
 SCF Done:  E(RwB97XD) =  -1199.67314538     A.U. after   17 cycles
 SCF Done:  E(RwB97XD) =  -1199.67442194     A.U. after   14 cycles
 SCF Done:  E(RwB97XD) =  -1199.67452443     A.U. after   14 cycles
 SCF Done:  E(RwB97XD) =  -1199.67452676     A.U. after   12 cycles

 Isotropic polarizability for W=    0.000000       70.59 Bohr**3.
 End of Minotr F.D. properties file   721 does not exist.

 Optimization completed.
    -- Stationary point found.

                          Input orientation:
 ---------------------------------------------------------------------
 Center     Atomic      Atomic             Coordinates (Angstroms)
 Number     Number       Type             X           Y           Z
 ---------------------------------------------------------------------
      1          6           0       -0.237144    1.370849    0.222989
      2          6           0        0.007404    0.016114   -0.105898
      3          9           0       -0.420627   -0.885017    0.767363
      4          9           0       -0.278760   -0.315725   -1.354038
      5         16           0        2.298883   -0.025821    0.112421
      6          8           0        2.200749   -0.387852    1.502075
      7          8           0        2.302509   -0.914341   -1.019299
      8          8           0        3.717013    0.703940   -0.093228
      9          9           0        1.676754    1.853134    0.114823
     10          9           0       -0.568689    2.242325   -0.651648
     11          9           0       -0.409101    1.728880    1.435958
     12          1           0        3.756661    1.488186    0.469655
 ---------------------------------------------------------------------

 ******    1 imaginary frequencies (negative Signs) ******

                      1                      2                      3
                      A                      A                      A
 Frequencies --   -643.5741                34.0597                76.6506
 Red. masses --     14.0946                14.3370                 8.6501
 Frc consts  --      3.4395                 0.0098                 0.0299
 IR Inten    --    190.8239                 0.8714                 8.3409

                      4                      5                      6
                      A                      A                      A
 Frequencies --    170.4634               191.1355               198.3812
 Red. masses --     13.5569                14.0181                12.7258
 Frc consts  --      0.2321                 0.3017                 0.2951
 IR Inten    --     19.1281                 4.4614                 2.7250

                      7                      8                      9
                      A                      A                      A
 Frequencies --    214.5787               242.6171               278.4372
 Red. masses --     18.1858                 4.1546                 6.9735
 Frc consts  --      0.4934                 0.1441                 0.3185
 IR Inten    --      4.6203                15.3830                 5.5233

                     10                     11                     12
                      A                      A                      A
 Frequencies --    303.1101               328.1925               370.7494
 Red. masses --     13.3049                14.2093                11.0525
 Frc consts  --      0.7202                 0.9017                 0.8951
 IR Inten    --     11.7385                14.8092                61.1265

                     13                     14                     15
                      A                      A                      A
 Frequencies --    425.6115               438.2890               489.2959
 Red. masses --      4.2040                 3.3342                 7.0244
 Frc consts  --      0.4487                 0.3774                 0.9908
 IR Inten    --    176.7823                61.7714                37.1679

                     16                     17                     18
                      A                      A                      A
 Frequencies --    520.5164               545.4909               555.6855
 Red. masses --     10.1402                14.4910                15.1497
 Frc consts  --      1.6187                 2.5405                 2.7562
 IR Inten    --    116.1676               165.4215                94.4819

                     19                     20                     21
                      A                      A                      A
 Frequencies --    600.6596               680.4646               782.5026
 Red. masses --     16.9904                12.2128                15.9198
 Frc consts  --      3.6117                 3.3318                 5.7433
 IR Inten    --      9.0581                14.6829               221.4413

                     22                     23                     24
                      A                      A                      A
 Frequencies --    821.8303              1131.2285              1199.6687
 Red. masses --     17.0356                10.5628                 4.1117
 Frc consts  --      6.7791                 7.9640                 3.4866
 IR Inten    --    197.1401                74.7910               302.4063

                     25                     26                     27
                      A                      A                      A
 Frequencies --   1207.2391              1293.9733              1396.8306
 Red. masses --      1.5901                13.0846                12.9504
 Frc consts  --      1.3654                12.9081                14.8875
 IR Inten    --    136.5062               120.9941               199.9935

                     28                     29                     30
                      A                      A                      A
 Frequencies --   1457.8999              1559.2681              3831.5862
 Red. masses --     13.2514                12.5195                 1.0659
 Frc consts  --     16.5946                17.9340                 9.2195
 IR Inten    --    341.8726               703.3969               134.2080

 - Thermochemistry -
 -------------------
 Temperature   298.150 Kelvin.  Pressure   1.00000 Atm.
 Atom     1 has atomic number  6 and mass  12.00000

 Molecular mass:   199.95666 amu.
 Principal axes and moments of inertia in atomic units:
                           1         2         3
     Eigenvalues --  1275.936642105.737652373.19510
           X            0.94323   0.32464  -0.07018
           Y           -0.33175   0.91075  -0.24591
           Z           -0.01592   0.25524   0.96675
 This molecule is an asymmetric top.
 Rotational symmetry number  1.
 Warning -- assumption of classical behavior for rotation
           may cause significant error
 Rotational temperatures (Kelvin)      0.06788     0.04113     0.03650
 Rotational constants (GHZ):           1.41444     0.85706     0.76047
    1 imaginary frequencies ignored.
 Zero-point vibrational energy     127679.9 (Joules/Mol)
                                   30.51623 (Kcal/Mol)
 Warning -- explicit consideration of  18 degrees of freedom as
           vibrations may cause significant error
 Vibrational temperatures:     49.00   110.28   245.26   275.00   285.43
          (Kelvin)            308.73   349.07   400.61   436.11   472.20
                              533.43   612.36   630.60   703.99   748.91
                              784.84   799.51   864.22   979.04  1125.85
                             1182.43  1627.59  1726.06  1736.95  1861.74
                             2009.73  2097.59  2243.44  5512.80

 Zero-point correction=                           0.048631 (Hartree/Particle)
 Thermal correction to Energy=                    0.059382
 Thermal correction to Enthalpy=                  0.060327
 Thermal correction to Gibbs Free Energy=         0.011424
 Sum of electronic and zero-point Energies=          -1199.625896
 Sum of electronic and thermal Energies=             -1199.615144
 Sum of electronic and thermal Enthalpies=           -1199.614200
 Sum of electronic and thermal Free Energies=        -1199.663103

                     E (Thermal)             CV                S
                      KCal/Mol        Cal/Mol-Kelvin    Cal/Mol-Kelvin
 Total                   37.263             37.423            102.924
 Electronic               0.000              0.000              0.000
 Translational            0.889              2.981             41.783
 Rotational               0.889              2.981             30.234
 Vibrational             35.486             31.461             30.906
 Vibration     1          0.594              1.983              5.578
 Vibration     2          0.599              1.965              3.975
 Vibration     3          0.626              1.879              2.430
 Vibration     4          0.634              1.852              2.217
 Vibration     5          0.637              1.842              2.148
 Vibration     6          0.645              1.819              2.004
 Vibration     7          0.659              1.775              1.784
 Vibration     8          0.679              1.713              1.543
 Vibration     9          0.695              1.668              1.400
 Vibration    10          0.711              1.619              1.269
 Vibration    11          0.743              1.532              1.077
 Vibration    12          0.787              1.415              0.873
 Vibration    13          0.798              1.387              0.832
 Vibration    14          0.845              1.274              0.685
 Vibration    15          0.875              1.205              0.609
 Vibration    16          0.901              1.150              0.554
 Vibration    17          0.911              1.127              0.533
 Vibration    18          0.959              1.030              0.449

 Normal termination of Gaussian 16 at Fri May 23 05:10:23 2025.
