 Gaussian 16, Revision C.01,
 Gaussian 16:  ES64L-G16RevC.01  3-Jul-2019

 ----------------------------------------------------------------------
 #P wb97xd/6-311++G(d,p) Symm(None) scf(xqc) pop(None) freq opt(CalcFC,
  Tight)
 ----------------------------------------------------------------------

 ------------------------------
 Gaussian input prepared by ASE
 ------------------------------
 Symbolic Z-matrix:
 Charge =  0 Multiplicity = 1

 SCF Done:  E(RwB97XD) =  -1199.59130979     A.U. after   20 cycles
 SCF Done:  E(RwB97XD) =  -1199.60249967     A.U. after   19 cycles
 SCF Done:  E(RwB97XD) =  -1199.60375101     A.U. after   19 cycles
 SCF Done:  E(RwB97XD) =  -1199.60239042     A.U. after   19 cycles
 SCF Done:  E(RwB97XD) =  -1199.60372520     A.U. after   18 cycles
 SCF Done:  E(RwB97XD) =  -1199.60484728     A.U. after   14 cycles
 SCF Done:  E(RwB97XD) =  -1199.60543041     A.U. after   18 cycles
 SCF Done:  E(RwB97XD) =  -1199.60581273     A.U. after   18 cycles
 SCF Done:  E(RwB97XD) =  -1199.60611236     A.U. after   18 cycles
 SCF Done:  E(RwB97XD) =  -1199.60642984     A.U. after   17 cycles
 SCF Done:  E(RwB97XD) =  -1199.60933663     A.U. after   15 cycles
 SCF Done:  E(RwB97XD) =  -1199.60933760     A.U. after   15 cycles
 SCF Done:  E(RwB97XD) =  -1199.60934540     A.U. after   14 cycles
 SCF Done:  E(RwB97XD) =  -1199.60934543     A.U. after   10 cycles
 SCF Done:  E(RwB97XD) =  -1199.60934545     A.U. after   10 cycles
 SCF Done:  E(RwB97XD) =  -1199.60934545     A.U. after    9 cycles
 SCF Done:  E(RwB97XD) =  -1199.60934545     A.U. after    5 cycles
 SCF Done:  E(RwB97XD) =  -1199.60934545     A.U. after    5 cycles
 SCF Done:  E(RwB97XD) =  -1199.60934545     A.U. after    5 cycles
 Optimization completed.
    -- Stationary point found.
 Normal termination of Gaussian 16 at Fri May 23 07:41:51 2025.

 ----------------------------------------------------------------------
 #P Geom=AllCheck Guess=TCheck SCRF=Check GenChk RwB97XD/6-311++G(d,p)
 Freq
 ----------------------------------------------------------------------

 Structure from the checkpoint file:  "/tmp/Gau-83655.chk"
 ------------------------------
 Gaussian input prepared by ASE
 ------------------------------
 Charge =  0 Multiplicity = 1

                          Input orientation:
 ---------------------------------------------------------------------
 Center     Atomic      Atomic             Coordinates (Angstroms)
 Number     Number       Type             X           Y           Z
 ---------------------------------------------------------------------
      1          6           0       -0.688619   -1.283281    0.368344
      2          6           0       -0.069835    0.008380   -0.208367
      3          9           0       -0.383556    0.158606   -1.470187
      4          9           0       -0.727619    1.100031    0.467998
      5         16           0        1.858487    0.186507    0.027427
      6          8           0        0.121770    1.664944    1.739900
      7          8           0        2.369163   -0.493815   -1.152652
      8          8           0        1.850280    1.779332   -0.337876
      9          9           0       -0.158431   -2.323156   -0.264619
     10          9           0       -0.418138   -1.376749    1.663000
     11          9           0       -2.004684   -1.293881    0.194478
     12          1           0        1.472443    2.246536    0.432550
 ---------------------------------------------------------------------

 SCF Done:  E(RwB97XD) =  -1199.60934545     A.U. after    1 cycles

 Isotropic polarizability for W=    0.000000       61.58 Bohr**3.
 End of Minotr F.D. properties file   721 does not exist.

                      1                      2                      3
                      A                      A                      A
 Frequencies --     41.5216                58.4562               110.1562
 Red. masses --     18.2789                13.1860                14.5933
 Frc consts  --      0.0186                 0.0265                 0.1043
 IR Inten    --      0.2577                 0.7684                 2.0294

                      4                      5                      6
                      A                      A                      A
 Frequencies --    133.7873               196.2218               208.7056
 Red. masses --     15.2142                16.4916                17.1701
 Frc consts  --      0.1604                 0.3741                 0.4406
 IR Inten    --      6.6947                 5.8115                 2.2614

                      7                      8                      9
                      A                      A                      A
 Frequencies --    232.6073               257.4264               272.8189
 Red. masses --     14.0130                16.1030                17.4434
 Frc consts  --      0.4467                 0.6287                 0.7649
 IR Inten    --      2.1026                12.9259                 0.4354

                     10                     11                     12
                      A                      A                      A
 Frequencies --    305.1642               346.3843               403.7252
 Red. masses --     10.6110                16.4365                12.3937
 Frc consts  --      0.5822                 1.1619                 1.1902
 IR Inten    --      9.4774                 6.2965                11.6945

                     13                     14                     15
                      A                      A                      A
 Frequencies --    431.2563               468.7301               533.9356
 Red. masses --     12.2603                13.2238                16.3804
 Frc consts  --      1.3434                 1.7118                 2.7514
 IR Inten    --      2.3051                 1.1545                20.3332

                     16                     17                     18
                      A                      A                      A
 Frequencies --    565.3650               588.9172               615.8892
 Red. masses --     16.2616                13.3737                 1.4886
 Frc consts  --      3.0625                 2.7328                 0.3327
 IR Inten    --     12.3996                98.1649                96.1753

                     19                     20                     21
                      A                      A                      A
 Frequencies --    636.2689               744.7664               769.0200
 Red. masses --      3.9253                15.1264                12.3189
 Frc consts  --      0.9363                 4.9434                 4.2924
 IR Inten    --     79.6330                 8.6376               117.1934

                     22                     23                     24
                      A                      A                      A
 Frequencies --    921.7773               959.6242              1149.8428
 Red. masses --     12.5398                13.2031                 1.2704
 Frc consts  --      6.2776                 7.1636                 0.9896
 IR Inten    --    116.9699               107.1008               118.3117

                     25                     26                     27
                      A                      A                      A
 Frequencies --   1227.7828              1239.4034              1249.5197
 Red. masses --     11.5449                12.3804                12.9469
 Frc consts  --     10.2538                11.2049                11.9098
 IR Inten    --    162.5578                85.1853               212.1174

                     28                     29                     30
                      A                      A                      A
 Frequencies --   1264.5683              1365.0467              3649.5997
 Red. masses --      9.0623                12.7826                 1.0644
 Frc consts  --      8.5384                14.0335                 8.3530
 IR Inten    --    448.5500               127.7106               230.0525

 - Thermochemistry -
 -------------------
 Temperature   298.150 Kelvin.  Pressure   1.00000 Atm.
 Atom     1 has atomic number  6 and mass  12.00000

 Molecular mass:   199.95666 amu.
 Principal axes and moments of inertia in atomic units:
                           1         2         3
     Eigenvalues --  1326.046272083.612402510.90578
           X            0.76221  -0.45239   0.46301
           Y            0.62681   0.69444  -0.35334
           Z           -0.16168   0.55954   0.81288
 This molecule is an asymmetric top.
 Rotational symmetry number  1.
 Warning -- assumption of classical behavior for rotation
           may cause significant error
 Rotational temperatures (Kelvin)      0.06532     0.04157     0.03450
 Rotational constants (GHZ):           1.36099     0.86616     0.71876
 Zero-point vibrational energy     125298.6 (Joules/Mol)
                                   29.94708 (Kcal/Mol)
 Warning -- explicit consideration of  18 degrees of freedom as
           vibrations may cause significant error
 Vibrational temperatures:     59.74    84.11   158.49   192.49   282.32
          (Kelvin)            300.28   334.67   370.38   392.53   439.06
                              498.37   580.87   620.48   674.40   768.21
                              813.43   847.32   886.13   915.45  1071.55
                             1106.45  1326.23  1380.69  1654.37  1766.51
                             1783.23  1797.78  1819.43  1964.00  5250.96

 Zero-point correction=                           0.047724 (Hartree/Particle)
 Thermal correction to Energy=                    0.058984
 Thermal correction to Enthalpy=                  0.059928
 Thermal correction to Gibbs Free Energy=         0.009697
 Sum of electronic and zero-point Energies=          -1199.561622
 Sum of electronic and thermal Energies=             -1199.550362
 Sum of electronic and thermal Enthalpies=           -1199.549417
 Sum of electronic and thermal Free Energies=        -1199.599649

                     E (Thermal)             CV                S
                      KCal/Mol        Cal/Mol-Kelvin    Cal/Mol-Kelvin
 Total                   37.013             38.847            105.721
 Electronic               0.000              0.000              0.000
 Translational            0.889              2.981             41.783
 Rotational               0.889              2.981             30.318
 Vibrational             35.235             32.885             33.619
 Vibration     1          0.594              1.981              5.185
 Vibration     2          0.596              1.974              4.509
 Vibration     3          0.606              1.941              3.266
 Vibration     4          0.613              1.920              2.891
 Vibration     5          0.636              1.845              2.168
 Vibration     6          0.642              1.827              2.055
 Vibration     7          0.653              1.791              1.859
 Vibration     8          0.667              1.750              1.679
 Vibration     9          0.676              1.723              1.578
 Vibration    10          0.696              1.664              1.388
 Vibration    11          0.724              1.583              1.183
 Vibration    12          0.769              1.462              0.949
 Vibration    13          0.792              1.402              0.855
 Vibration    14          0.826              1.319              0.741
 Vibration    15          0.889              1.175              0.578
 Vibration    16          0.921              1.106              0.513
 Vibration    17          0.946              1.055              0.469
 Vibration    18          0.975              0.998              0.423

 Optimization completed.
    -- Stationary point found.
 Normal termination of Gaussian 16 at Fri May 23 07:43:12 2025.
