 Gaussian 16, Revision C.01,
 Gaussian 16:  ES64L-G16RevC.01  3-Jul-2019

 ----------------------------------------------------------------------
 #P wb97xd/6-311++G(d,p) Symm(None) scf(xqc) pop(None) opt(NoFreeze,TS,
 CalcAll,NoEigentest,MaxCycle=999)
 ----------------------------------------------------------------------

 ------------------------------
 Gaussian input prepared by ASE
 ------------------------------
 Symbolic Z-matrix:
 Charge =  0 Multiplicity = 1

 SCF Done:  E(RwB97XD) =  -1199.60271758     A.U. after   20 cycles
 SCF Done:  E(RwB97XD) =  -1199.63208916     A.U. after   18 cycles
 SCF Done:  E(RwB97XD) =  -1199.65412068     A.U. after   16 cycles
 SCF Done:  E(RwB97XD) =  -1199.66104020     A.U. after   17 cycles
 SCF Done:  E(RwB97XD) =  -1199.66347163     A.U. after   15 cycles
 SCF Done:  E(RwB97XD) =  -1199.66366933     A.U. after   14 cycles
 SCF Done:  E(RwB97XD) =  -1199.66366997     A.U. after   11 cycles

 Isotropic polarizability for W=    0.000000       72.61 Bohr**3.
 End of Minotr F.D. properties file   721 does not exist.

 Optimization completed.
    -- Stationary point found.

                          Input orientation:
 ---------------------------------------------------------------------
 Center     Atomic      Atomic             Coordinates (Angstroms)
 Number     Number       Type             X           Y           Z
 ---------------------------------------------------------------------
      1          6           0       -0.278165   -1.244329    0.164220
      2          6           0        0.075425    0.106786    0.115780
      3          9           0       -0.235011    0.762466   -0.993989
      4          9           0       -0.108547    0.819739    1.207952
      5         16           0        2.462926   -0.149923    0.035699
      6          8           0        2.853137   -0.331465    1.400422
      7          8           0        3.204213   -0.343056   -1.184500
      8          8           0        2.192699    1.484963   -0.016404
      9          9           0       -0.399881   -1.861168    1.271470
     10          9           0        1.709294   -1.870454   -0.112257
     11          9           0       -0.645183   -1.890336   -0.871750
     12          1           0        2.309219    1.775271   -0.930133
 ---------------------------------------------------------------------

 ******    1 imaginary frequencies (negative Signs) ******

                      1                      2                      3
                      A                      A                      A
 Frequencies --   -574.9184                31.4288                61.2788
 Red. masses --     12.7120                15.1702                12.1684
 Frc consts  --      2.4756                 0.0088                 0.0269
 IR Inten    --    193.7727                 1.7927                 2.6930

                      4                      5                      6
                      A                      A                      A
 Frequencies --    160.5425               170.0135               202.7674
 Red. masses --     18.7647                17.0695                17.3959
 Frc consts  --      0.2850                 0.2907                 0.4214
 IR Inten    --     18.0528                10.2821                 0.1659

                      7                      8                      9
                      A                      A                      A
 Frequencies --    210.8889               240.1418               273.8444
 Red. masses --     17.4125                15.5240                10.8672
 Frc consts  --      0.4563                 0.5275                 0.4802
 IR Inten    --      1.9180                 3.2517                 8.3693

                     10                     11                     12
                      A                      A                      A
 Frequencies --    317.8976               367.4275               388.4981
 Red. masses --      7.5193                 1.8314                14.3479
 Frc consts  --      0.4477                 0.1457                 1.2759
 IR Inten    --      8.8591                28.8799                17.8152

                     13                     14                     15
                      A                      A                      A
 Frequencies --    406.8200               443.5928               480.6269
 Red. masses --     15.6571                 5.5772                 3.8545
 Frc consts  --      1.5267                 0.6466                 0.5246
 IR Inten    --     26.4999               230.6059                 3.5620

                     16                     17                     18
                      A                      A                      A
 Frequencies --    511.9329               548.3218               560.0899
 Red. masses --     10.5914                16.7546                14.3722
 Frc consts  --      1.6354                 2.9679                 2.6564
 IR Inten    --    239.2147                 1.3508               138.9291

                     19                     20                     21
                      A                      A                      A
 Frequencies --    594.4948               645.7110               717.4979
 Red. masses --     16.5635                13.2752                16.7638
 Frc consts  --      3.4490                 3.2611                 5.0847
 IR Inten    --      4.2652                 8.9769               183.7078

                     22                     23                     24
                      A                      A                      A
 Frequencies --    812.9711              1116.0738              1149.0558
 Red. masses --     17.7488                10.0118                 1.2661
 Frc consts  --      6.9115                 7.3477                 0.9849
 IR Inten    --     59.1270               228.6338               100.0229

                     25                     26                     27
                      A                      A                      A
 Frequencies --   1209.8922              1306.3011              1423.6523
 Red. masses --     13.7605                13.1131                12.4390
 Frc consts  --     11.8680                13.1838                14.8539
 IR Inten    --    321.8686               155.5512               187.7731

                     28                     29                     30
                      A                      A                      A
 Frequencies --   1478.9330              1605.8257              3837.3154
 Red. masses --     13.2365                12.4014                 1.0664
 Frc consts  --     17.0577                18.8416                 9.2515
 IR Inten    --    340.4621               813.8378               165.8193

 - Thermochemistry -
 -------------------
 Temperature   298.150 Kelvin.  Pressure   1.00000 Atm.
 Atom     1 has atomic number  6 and mass  12.00000

 Molecular mass:   199.95666 amu.
 Principal axes and moments of inertia in atomic units:
                           1         2         3
     Eigenvalues --  1312.220562074.202402351.92458
           X            0.92409  -0.37735   0.06050
           Y            0.37823   0.92571  -0.00341
           Z           -0.05472   0.02603   0.99816
 This molecule is an asymmetric top.
 Rotational symmetry number  1.
 Warning -- assumption of classical behavior for rotation
           may cause significant error
 Rotational temperatures (Kelvin)      0.06601     0.04176     0.03683
 Rotational constants (GHZ):           1.37533     0.87009     0.76735
    1 imaginary frequencies ignored.
 Zero-point vibrational energy     127245.8 (Joules/Mol)
                                   30.41248 (Kcal/Mol)
 Warning -- explicit consideration of  18 degrees of freedom as
           vibrations may cause significant error
 Vibrational temperatures:     45.22    88.17   230.98   244.61   291.74
          (Kelvin)            303.42   345.51   394.00   457.38   528.65
                              558.96   585.32   638.23   691.51   736.56
                              788.91   805.84   855.35   929.03  1032.32
                             1169.68  1605.78  1653.24  1740.77  1879.48
                             2048.32  2127.85  2310.42  5521.04

 Zero-point correction=                           0.048465 (Hartree/Particle)
 Thermal correction to Energy=                    0.059301
 Thermal correction to Enthalpy=                  0.060245
 Thermal correction to Gibbs Free Energy=         0.010935
 Sum of electronic and zero-point Energies=          -1199.615205
 Sum of electronic and thermal Energies=             -1199.604369
 Sum of electronic and thermal Enthalpies=           -1199.603425
 Sum of electronic and thermal Free Energies=        -1199.652735

                     E (Thermal)             CV                S
                      KCal/Mol        Cal/Mol-Kelvin    Cal/Mol-Kelvin
 Total                   37.212             37.616            103.782
 Electronic               0.000              0.000              0.000
 Translational            0.889              2.981             41.783
 Rotational               0.889              2.981             30.238
 Vibrational             35.434             31.655             31.760
 Vibration     1          0.594              1.983              5.737
 Vibration     2          0.597              1.973              4.416
 Vibration     3          0.622              1.891              2.543
 Vibration     4          0.625              1.879              2.435
 Vibration     5          0.639              1.836              2.108
 Vibration     6          0.643              1.824              2.036
 Vibration     7          0.657              1.779              1.802
 Vibration     8          0.676              1.722              1.572
 Vibration     9          0.704              1.639              1.321
 Vibration    10          0.740              1.539              1.091
 Vibration    11          0.757              1.495              1.006
 Vibration    12          0.772              1.455              0.938
 Vibration    13          0.803              1.375              0.815
 Vibration    14          0.837              1.293              0.708
 Vibration    15          0.867              1.224              0.629
 Vibration    16          0.904              1.143              0.548
 Vibration    17          0.916              1.118              0.524
 Vibration    18          0.952              1.044              0.459

 Normal termination of Gaussian 16 at Fri May 23 05:02:50 2025.
