 Gaussian 16, Revision C.01,
 Gaussian 16:  ES64L-G16RevC.01  3-Jul-2019

 ----------------------------------------------------------------------
 #P wb97xd/6-311++G(d,p) Symm(None) scf(xqc) pop(None) freq opt(CalcFC,
  Tight)
 ----------------------------------------------------------------------

 ------------------------------
 Gaussian input prepared by ASE
 ------------------------------
 Symbolic Z-matrix:
 Charge =  0 Multiplicity = 1

 SCF Done:  E(RwB97XD) =  -1199.59104705     A.U. after   18 cycles
 SCF Done:  E(RwB97XD) =  -1199.60281876     A.U. after   19 cycles
 SCF Done:  E(RwB97XD) =  -1199.60188813     A.U. after   19 cycles
 SCF Done:  E(RwB97XD) =  -1199.60541238     A.U. after   18 cycles
 SCF Done:  E(RwB97XD) =  -1199.60581290     A.U. after   15 cycles
 SCF Done:  E(RwB97XD) =  -1199.60587500     A.U. after   15 cycles
 SCF Done:  E(RwB97XD) =  -1199.60589198     A.U. after   15 cycles
 SCF Done:  E(RwB97XD) =  -1199.60589919     A.U. after   13 cycles
 SCF Done:  E(RwB97XD) =  -1199.60590098     A.U. after   13 cycles
 SCF Done:  E(RwB97XD) =  -1199.60590139     A.U. after   11 cycles
 SCF Done:  E(RwB97XD) =  -1199.60590158     A.U. after   11 cycles
 SCF Done:  E(RwB97XD) =  -1199.60590160     A.U. after   10 cycles
 SCF Done:  E(RwB97XD) =  -1199.60590161     A.U. after    9 cycles
 SCF Done:  E(RwB97XD) =  -1199.60590161     A.U. after    9 cycles
 SCF Done:  E(RwB97XD) =  -1199.60590161     A.U. after    8 cycles
 Optimization completed.
    -- Stationary point found.
 Normal termination of Gaussian 16 at Fri May 23 07:34:29 2025.

 ----------------------------------------------------------------------
 #P Geom=AllCheck Guess=TCheck SCRF=Check GenChk RwB97XD/6-311++G(d,p)
 Freq
 ----------------------------------------------------------------------

 Structure from the checkpoint file:  "/tmp/Gau-95001.chk"
 ------------------------------
 Gaussian input prepared by ASE
 ------------------------------
 Charge =  0 Multiplicity = 1

                          Input orientation:
 ---------------------------------------------------------------------
 Center     Atomic      Atomic             Coordinates (Angstroms)
 Number     Number       Type             X           Y           Z
 ---------------------------------------------------------------------
      1          6           0       -0.733148    0.393530   -1.390232
      2          6           0       -0.188512    0.082001    0.031706
      3          9           0       -0.738704    0.879818    0.923417
      4          9           0       -0.642306   -1.224992    0.291546
      5         16           0        1.730391    0.065674    0.262906
      6          8           0        0.189404   -1.889043    1.568464
      7          8           0        2.218490   -0.604859   -0.939953
      8          8           0        1.889672    1.689725    0.095319
      9          9           0       -0.192405    1.540971   -1.822974
     10          9           0       -0.431579   -0.569148   -2.237186
     11          9           0       -2.050369    0.546013   -1.347888
     12          1           0        1.765286    1.977968   -0.819920
 ---------------------------------------------------------------------

 SCF Done:  E(RwB97XD) =  -1199.60590161     A.U. after    1 cycles

 Isotropic polarizability for W=    0.000000       61.44 Bohr**3.
 End of Minotr F.D. properties file   721 does not exist.

                      1                      2                      3
                      A                      A                      A
 Frequencies --     44.1109                48.6010                78.5699
 Red. masses --     13.0971                16.9245                13.9823
 Frc consts  --      0.0150                 0.0236                 0.0509
 IR Inten    --      0.2127                 1.4513                 1.1293

                      4                      5                      6
                      A                      A                      A
 Frequencies --    132.2941               158.8395               196.0260
 Red. masses --     12.9284                12.2973                 9.5016
 Frc consts  --      0.1333                 0.1828                 0.2151
 IR Inten    --      4.2525                 1.2036                13.9929

                      7                      8                      9
                      A                      A                      A
 Frequencies --    218.4646               234.1755               275.7174
 Red. masses --     16.9441                 8.8204                17.0998
 Frc consts  --      0.4765                 0.2850                 0.7659
 IR Inten    --      1.5120                 2.0638                 1.0725

                     10                     11                     12
                      A                      A                      A
 Frequencies --    317.3998               322.7249               354.0850
 Red. masses --      2.6968                 5.0171                 8.4752
 Frc consts  --      0.1601                 0.3079                 0.6261
 IR Inten    --     18.5950                27.5947                 2.5382

                     13                     14                     15
                      A                      A                      A
 Frequencies --    434.8842               452.0146               463.5340
 Red. masses --     10.7720                16.3412                 2.8540
 Frc consts  --      1.2003                 1.9672                 0.3613
 IR Inten    --     18.6824                24.5052               134.6272

                     16                     17                     18
                      A                      A                      A
 Frequencies --    535.6933               542.6619               598.8584
 Red. masses --     17.9520                17.2134                17.7128
 Frc consts  --      3.0353                 2.9866                 3.7427
 IR Inten    --      1.6671                52.4955                32.7489

                     19                     20                     21
                      A                      A                      A
 Frequencies --    628.9984               751.5258               754.8201
 Red. masses --     15.6954                15.8039                17.0161
 Frc consts  --      3.6587                 5.2590                 5.7121
 IR Inten    --      6.7651               186.3348                31.8713

                     22                     23                     24
                      A                      A                      A
 Frequencies --    980.5928               989.0057              1098.9470
 Red. masses --     12.8895                12.0654                 1.3101
 Frc consts  --      7.3024                 6.9533                 0.9322
 IR Inten    --    215.6584                56.5348                68.0159

                     25                     26                     27
                      A                      A                      A
 Frequencies --   1194.1709              1228.0685              1236.3012
 Red. masses --     13.3415                12.1192                 7.8363
 Frc consts  --     11.2096                10.7688                 7.0568
 IR Inten    --    117.0459               131.3632               107.8434

                     28                     29                     30
                      A                      A                      A
 Frequencies --   1271.6206              1333.5073              3795.7629
 Red. masses --     12.6621                12.7865                 1.0658
 Frc consts  --     12.0635                13.3966                 9.0471
 IR Inten    --    496.8035               143.8917               106.1408

 - Thermochemistry -
 -------------------
 Temperature   298.150 Kelvin.  Pressure   1.00000 Atm.
 Atom     1 has atomic number  6 and mass  12.00000

 Molecular mass:   199.95666 amu.
 Principal axes and moments of inertia in atomic units:
                           1         2         3
     Eigenvalues --  1502.105981926.880042363.58792
           X            0.79299   0.54620  -0.26986
           Y           -0.20878   0.65976   0.72189
           Z            0.57234  -0.51611   0.63722
 This molecule is an asymmetric top.
 Rotational symmetry number  1.
 Warning -- assumption of classical behavior for rotation
           may cause significant error
 Rotational temperatures (Kelvin)      0.05766     0.04495     0.03665
 Rotational constants (GHZ):           1.20147     0.93661     0.76356
 Zero-point vibrational energy     123645.9 (Joules/Mol)
                                   29.55207 (Kcal/Mol)
 Warning -- explicit consideration of  18 degrees of freedom as
           vibrations may cause significant error
 Vibrational temperatures:     63.47    69.93   113.04   190.34   228.53
          (Kelvin)            282.04   314.32   336.93   396.70   456.67
                              464.33   509.45   625.70   650.35   666.92
                              770.74   780.77   861.62   904.99  1081.28
                             1086.02  1410.85  1422.96  1581.14  1718.15
                             1766.92  1778.76  1829.58  1918.62  5461.26

 Zero-point correction=                           0.047094 (Hartree/Particle)
 Thermal correction to Energy=                    0.058747
 Thermal correction to Enthalpy=                  0.059692
 Thermal correction to Gibbs Free Energy=         0.008353
 Sum of electronic and zero-point Energies=          -1199.558807
 Sum of electronic and thermal Energies=             -1199.547154
 Sum of electronic and thermal Enthalpies=           -1199.546210
 Sum of electronic and thermal Free Energies=        -1199.597548

                     E (Thermal)             CV                S
                      KCal/Mol        Cal/Mol-Kelvin    Cal/Mol-Kelvin
 Total                   36.865             39.517            108.051
 Electronic               0.000              0.000              0.000
 Translational            0.889              2.981             41.783
 Rotational               0.889              2.981             30.304
 Vibrational             35.087             33.556             35.963
 Vibration     1          0.595              1.980              5.065
 Vibration     2          0.595              1.978              4.874
 Vibration     3          0.600              1.964              3.926
 Vibration     4          0.612              1.921              2.912
 Vibration     5          0.621              1.893              2.564
 Vibration     6          0.636              1.845              2.170
 Vibration     7          0.646              1.813              1.972
 Vibration     8          0.654              1.789              1.847
 Vibration     9          0.677              1.718              1.560
 Vibration    10          0.704              1.640              1.323
 Vibration    11          0.708              1.630              1.296
 Vibration    12          0.730              1.567              1.148
 Vibration    13          0.795              1.394              0.843
 Vibration    14          0.811              1.356              0.790
 Vibration    15          0.821              1.331              0.756
 Vibration    16          0.891              1.171              0.575
 Vibration    17          0.898              1.156              0.560
 Vibration    18          0.957              1.034              0.452

 Optimization completed.
    -- Stationary point found.
 Normal termination of Gaussian 16 at Fri May 23 07:35:50 2025.
