 Gaussian 16, Revision C.01,
 Gaussian 16:  ES64L-G16RevC.01  3-Jul-2019

 ----------------------------------------------------------------------
 #P wb97xd/6-311++G(d,p) Symm(None) scf(xqc) pop(None) freq opt(CalcFC,
  Tight)
 ----------------------------------------------------------------------

 ------------------------------
 Gaussian input prepared by ASE
 ------------------------------
 Symbolic Z-matrix:
 Charge =  0 Multiplicity = 1

 SCF Done:  E(RwB97XD) =  -1199.81449225     A.U. after   14 cycles
 SCF Done:  E(RwB97XD) =  -1199.82066226     A.U. after   13 cycles
 SCF Done:  E(RwB97XD) =  -1199.82288133     A.U. after   12 cycles
 SCF Done:  E(RwB97XD) =  -1199.82380164     A.U. after   12 cycles
 SCF Done:  E(RwB97XD) =  -1199.82496420     A.U. after   15 cycles
 SCF Done:  E(RwB97XD) =  -1199.82557649     A.U. after   12 cycles
 SCF Done:  E(RwB97XD) =  -1199.82584449     A.U. after   12 cycles
 SCF Done:  E(RwB97XD) =  -1199.82582921     A.U. after   12 cycles
 SCF Done:  E(RwB97XD) =  -1199.82588860     A.U. after   12 cycles
 SCF Done:  E(RwB97XD) =  -1199.82589499     A.U. after    9 cycles
 SCF Done:  E(RwB97XD) =  -1199.82590119     A.U. after    9 cycles
 SCF Done:  E(RwB97XD) =  -1199.82592410     A.U. after   10 cycles
 SCF Done:  E(RwB97XD) =  -1199.82595941     A.U. after   11 cycles
 SCF Done:  E(RwB97XD) =  -1199.82597879     A.U. after   10 cycles
 SCF Done:  E(RwB97XD) =  -1199.82598834     A.U. after   10 cycles
 SCF Done:  E(RwB97XD) =  -1199.82598916     A.U. after    9 cycles
 SCF Done:  E(RwB97XD) =  -1199.82598917     A.U. after    7 cycles
 Optimization completed.
    -- Stationary point found.
 Normal termination of Gaussian 16 at Fri May 23 01:58:52 2025.

 ----------------------------------------------------------------------
 #P Geom=AllCheck Guess=TCheck SCRF=Check GenChk RwB97XD/6-311++G(d,p)
 Freq
 ----------------------------------------------------------------------

 Structure from the checkpoint file:  "/tmp/Gau-2942.chk"
 ------------------------------
 Gaussian input prepared by ASE
 ------------------------------
 Charge =  0 Multiplicity = 1

                          Input orientation:
 ---------------------------------------------------------------------
 Center     Atomic      Atomic             Coordinates (Angstroms)
 Number     Number       Type             X           Y           Z
 ---------------------------------------------------------------------
      1          6           0       -0.765012    0.897628   -1.150200
      2          6           0       -0.027189    0.102496   -0.035369
      3          9           0       -0.417153    0.563539    1.160674
      4          9           0       -0.348995   -1.185424   -0.136480
      5         16           0        1.846488    0.201481   -0.080290
      6          8           0        2.307247   -0.738732    0.901693
      7          8           0        2.266520    0.198652   -1.445063
      8          8           0        2.061591    1.688212    0.474427
      9          9           0       -0.359423    2.161690   -1.165224
     10          9           0       -0.547346    0.349013   -2.333761
     11          9           0       -2.071320    0.870667   -0.897098
     12          1           0        2.105013    1.683661    1.439688
 ---------------------------------------------------------------------

 SCF Done:  E(RwB97XD) =  -1199.82598917     A.U. after    1 cycles

 Isotropic polarizability for W=    0.000000       55.76 Bohr**3.
 End of Minotr F.D. properties file   721 does not exist.

                      1                      2                      3
                      A                      A                      A
 Frequencies --     46.9909                68.0725               132.1832
 Red. masses --     12.9856                16.3640                16.7177
 Frc consts  --      0.0169                 0.0447                 0.1721
 IR Inten    --      2.0498                 0.3356                 0.7104

                      4                      5                      6
                      A                      A                      A
 Frequencies --    189.8315               223.7360               239.8219
 Red. masses --      5.4488                17.1560                14.3994
 Frc consts  --      0.1157                 0.5060                 0.4879
 IR Inten    --     14.4301                 1.2879                 7.7416

                      7                      8                      9
                      A                      A                      A
 Frequencies --    276.5057               311.0054               316.6733
 Red. masses --     12.1779                15.5649                 5.1662
 Frc consts  --      0.5486                 0.8870                 0.3052
 IR Inten    --      0.8023                 0.6766                13.8108

                     10                     11                     12
                      A                      A                      A
 Frequencies --    342.7971               373.9203               436.2337
 Red. masses --      2.0377                 7.9150                11.8295
 Frc consts  --      0.1411                 0.6520                 1.3263
 IR Inten    --     53.5566                 7.3691                16.5664

                     13                     14                     15
                      A                      A                      A
 Frequencies --    457.7567               510.3676               538.2887
 Red. masses --      4.4527                14.3065                17.9953
 Frc consts  --      0.5497                 2.1956                 3.0721
 IR Inten    --     35.2765                13.2196                23.4307

                     16                     17                     18
                      A                      A                      A
 Frequencies --    600.8290               609.3310               654.3936
 Red. masses --     17.4339                20.2430                17.1126
 Frc consts  --      3.7081                 4.4283                 4.3176
 IR Inten    --      4.1286               119.5618                24.9439

                     19                     20                     21
                      A                      A                      A
 Frequencies --    765.0865               833.7737              1005.8065
 Red. masses --     17.1689                17.4508                13.5105
 Frc consts  --      5.9212                 7.1476                 8.0529
 IR Inten    --     20.5023               195.8016               112.7251

                     22                     23                     24
                      A                      A                      A
 Frequencies --   1131.6541              1153.3198              1206.5895
 Red. masses --      1.1908                14.0630                13.7365
 Frc consts  --      0.8985                11.0212                11.7827
 IR Inten    --     90.3524               134.4727                47.5015

                     25                     26                     27
                      A                      A                      A
 Frequencies --   1224.7452              1235.5585              1260.8063
 Red. masses --     14.0659                13.3720                13.2867
 Frc consts  --     12.4311                12.0274                12.4441
 IR Inten    --    198.9970               213.9166               393.8654

                     28                     29                     30
                      A                      A                      A
 Frequencies --   1345.5046              1444.7499              3833.3095
 Red. masses --     12.6792                14.1773                 1.0663
 Frc consts  --     13.5242                17.4353                 9.2313
 IR Inten    --     97.2883               293.1329               164.1533

 - Thermochemistry -
 -------------------
 Temperature   298.150 Kelvin.  Pressure   1.00000 Atm.
 Atom     1 has atomic number  6 and mass  12.00000

 Molecular mass:   199.95666 amu.
 Principal axes and moments of inertia in atomic units:
                           1         2         3
     Eigenvalues --  1146.428282162.333712301.98603
           X            0.90649  -0.41281  -0.08865
           Y           -0.18846  -0.58349   0.78995
           Z            0.37782   0.69938   0.60673
 This molecule is an asymmetric top.
 Rotational symmetry number  1.
 Warning -- assumption of classical behavior for rotation
           may cause significant error
 Rotational temperatures (Kelvin)      0.07555     0.04006     0.03763
 Rotational constants (GHZ):           1.57423     0.83463     0.78399
 Zero-point vibrational energy     136192.7 (Joules/Mol)
                                   32.55084 (Kcal/Mol)
 Warning -- explicit consideration of  17 degrees of freedom as
           vibrations may cause significant error
 Vibrational temperatures:     67.61    97.94   190.18   273.13   321.91
          (Kelvin)            345.05   397.83   447.47   455.62   493.21
                              537.99   627.64   658.61   734.31   774.48
                              864.46   876.69   941.53  1100.79  1199.61
                             1447.13  1628.20  1659.37  1736.01  1762.14
                             1777.69  1814.02  1935.88  2078.67  5515.28

 Zero-point correction=                           0.051873 (Hartree/Particle)
 Thermal correction to Energy=                    0.062288
 Thermal correction to Enthalpy=                  0.063232
 Thermal correction to Gibbs Free Energy=         0.015105
 Sum of electronic and zero-point Energies=          -1199.774116
 Sum of electronic and thermal Energies=             -1199.763701
 Sum of electronic and thermal Enthalpies=           -1199.762757
 Sum of electronic and thermal Free Energies=        -1199.810885

                     E (Thermal)             CV                S
                      KCal/Mol        Cal/Mol-Kelvin    Cal/Mol-Kelvin
 Total                   39.086             36.613            101.293
 Electronic               0.000              0.000              0.000
 Translational            0.889              2.981             41.783
 Rotational               0.889              2.981             30.124
 Vibrational             37.309             30.651             29.385
 Vibration     1          0.595              1.979              4.940
 Vibration     2          0.598              1.969              4.208
 Vibration     3          0.612              1.921              2.914
 Vibration     4          0.633              1.854              2.229
 Vibration     5          0.649              1.805              1.929
 Vibration     6          0.657              1.780              1.804
 Vibration     7          0.678              1.717              1.555
 Vibration     8          0.700              1.653              1.357
 Vibration     9          0.704              1.642              1.327
 Vibration    10          0.722              1.590              1.199
 Vibration    11          0.745              1.526              1.064
 Vibration    12          0.797              1.391              0.839
 Vibration    13          0.816              1.344              0.773
 Vibration    14          0.865              1.227              0.633
 Vibration    15          0.893              1.165              0.569
 Vibration    16          0.959              1.030              0.448
 Vibration    17          0.968              1.012              0.434

                           ! Non-Optimized Parameters !
 Normal termination of Gaussian 16 at Fri May 23 02:00:08 2025.
