 Gaussian 16, Revision C.01,
 Gaussian 16:  ES64L-G16RevC.01  3-Jul-2019

 ----------------------------------------------------------------------
 #P wb97xd/6-311++G(d,p) Symm(None) scf(xqc) pop(None) freq opt(CalcFC,
  Tight)
 ----------------------------------------------------------------------

 ------------------------------
 Gaussian input prepared by ASE
 ------------------------------
 Symbolic Z-matrix:
 Charge =  0 Multiplicity = 1

 SCF Done:  E(RwB97XD) =  -1199.58425789     A.U. after   20 cycles
 SCF Done:  E(RwB97XD) =  -1199.59461511     A.U. after   20 cycles
 SCF Done:  E(RwB97XD) =  -1199.59340222     A.U. after   19 cycles
 SCF Done:  E(RwB97XD) =  -1199.59643828     A.U. after   18 cycles
 SCF Done:  E(RwB97XD) =  -1199.59696369     A.U. after   18 cycles
 SCF Done:  E(RwB97XD) =  -1199.59780511     A.U. after   19 cycles
 SCF Done:  E(RwB97XD) =  -1199.59873752     A.U. after   19 cycles
 SCF Done:  E(RwB97XD) =  -1199.59895475     A.U. after   18 cycles
 SCF Done:  E(RwB97XD) =  -1199.60173948     A.U. after   19 cycles
 SCF Done:  E(RwB97XD) =  -1199.60228598     A.U. after   17 cycles
 SCF Done:  E(RwB97XD) =  -1199.60314123     A.U. after   17 cycles
 SCF Done:  E(RwB97XD) =  -1199.60315144     A.U. after   13 cycles
 SCF Done:  E(RwB97XD) =  -1199.60315436     A.U. after   13 cycles
 SCF Done:  E(RwB97XD) =  -1199.60315602     A.U. after   13 cycles
 SCF Done:  E(RwB97XD) =  -1199.60315679     A.U. after   12 cycles
 SCF Done:  E(RwB97XD) =  -1199.60315703     A.U. after   11 cycles
 SCF Done:  E(RwB97XD) =  -1199.60315708     A.U. after   10 cycles
 SCF Done:  E(RwB97XD) =  -1199.60315708     A.U. after   10 cycles
 SCF Done:  E(RwB97XD) =  -1199.60315708     A.U. after    8 cycles
 Optimization completed.
    -- Stationary point found.
 Normal termination of Gaussian 16 at Fri May 23 07:38:05 2025.

 ----------------------------------------------------------------------
 #P Geom=AllCheck Guess=TCheck SCRF=Check GenChk RwB97XD/6-311++G(d,p)
 Freq
 ----------------------------------------------------------------------

 Structure from the checkpoint file:  "/tmp/Gau-37415.chk"
 ------------------------------
 Gaussian input prepared by ASE
 ------------------------------
 Charge =  0 Multiplicity = 1

                          Input orientation:
 ---------------------------------------------------------------------
 Center     Atomic      Atomic             Coordinates (Angstroms)
 Number     Number       Type             X           Y           Z
 ---------------------------------------------------------------------
      1          6           0       -0.807589    0.833308    0.843458
      2          6           0        0.106021   -0.065220   -0.038521
      3          9           0       -0.194273   -1.336976    0.111763
      4          9           0       -0.038557    0.267563   -1.383604
      5         16           0        1.994386    0.127992    0.299842
      6          8           0       -1.636265    0.210601   -1.938288
      7          8           0        2.594130   -0.678963   -0.758783
      8          8           0        2.046142    1.715341   -0.084918
      9          9           0       -0.242718    0.882483    2.060237
     10          9           0       -0.875561    2.059988    0.357334
     11          9           0       -2.018015    0.329627    0.971500
     12          1           0        1.888520    1.867746   -1.028366
 ---------------------------------------------------------------------

 SCF Done:  E(RwB97XD) =  -1199.60315708     A.U. after    1 cycles

 Isotropic polarizability for W=    0.000000       63.07 Bohr**3.
 End of Minotr F.D. properties file   721 does not exist.

                      1                      2                      3
                      A                      A                      A
 Frequencies --     51.1071                67.3622                83.1542
 Red. masses --     10.2976                17.6776                15.6662
 Frc consts  --      0.0158                 0.0473                 0.0638
 IR Inten    --      0.7414                 0.3786                 1.7588

                      4                      5                      6
                      A                      A                      A
 Frequencies --    130.4108               139.5444               188.3532
 Red. masses --     17.2935                12.5975                 9.8242
 Frc consts  --      0.1733                 0.1445                 0.2054
 IR Inten    --      3.2721                 4.0826                 2.6096

                      7                      8                      9
                      A                      A                      A
 Frequencies --    222.0807               238.3415               259.4413
 Red. masses --     14.9801                17.2456                 9.4205
 Frc consts  --      0.4353                 0.5772                 0.3736
 IR Inten    --      2.8250                 3.2811                 6.4639

                     10                     11                     12
                      A                      A                      A
 Frequencies --    316.8539               347.9184               362.8377
 Red. masses --      9.1832                 2.4525                10.0374
 Frc consts  --      0.5432                 0.1749                 0.7786
 IR Inten    --      3.8818                20.3778                 4.8497

                     13                     14                     15
                      A                      A                      A
 Frequencies --    415.1020               447.6176               474.6237
 Red. masses --     15.7350                12.3108                 2.2891
 Frc consts  --      1.5975                 1.4533                 0.3038
 IR Inten    --      3.6663                 5.0602               164.3983

                     16                     17                     18
                      A                      A                      A
 Frequencies --    536.4549               542.4380               593.1546
 Red. masses --     14.1201                17.1093                17.2079
 Frc consts  --      2.3942                 2.9661                 3.5671
 IR Inten    --     98.6575                 4.7315                15.9020

                     19                     20                     21
                      A                      A                      A
 Frequencies --    630.0810               757.5089               768.8349
 Red. masses --     17.4041                17.0054                15.7277
 Frc consts  --      4.0709                 5.7493                 5.4775
 IR Inten    --     23.9303                27.8742               154.8346

                     22                     23                     24
                      A                      A                      A
 Frequencies --    958.6369              1020.4515              1112.6661
 Red. masses --     13.1210                13.1228                 1.2722
 Frc consts  --      7.1043                 8.0512                 0.9279
 IR Inten    --     50.9905               181.4097                58.7892

                     25                     26                     27
                      A                      A                      A
 Frequencies --   1183.0708              1231.8289              1246.2772
 Red. masses --     13.0698                 9.6502                10.9333
 Frc consts  --     10.7781                 8.6275                10.0054
 IR Inten    --    165.6312               114.3871               378.8821

                     28                     29                     30
                      A                      A                      A
 Frequencies --   1274.8593              1350.0754              3787.1511
 Red. masses --     12.9968                12.8706                 1.0659
 Frc consts  --     12.4455                13.8218                 9.0073
 IR Inten    --    215.6920               146.5502               106.7817

 - Thermochemistry -
 -------------------
 Temperature   298.150 Kelvin.  Pressure   1.00000 Atm.
 Atom     1 has atomic number  6 and mass  12.00000

 Molecular mass:   199.95666 amu.
 Principal axes and moments of inertia in atomic units:
                           1         2         3
     Eigenvalues --  1353.533232118.253172461.19183
           X            0.97647   0.20861   0.05471
           Y           -0.15102   0.48035   0.86398
           Z           -0.15395   0.85191  -0.50055
 This molecule is an asymmetric top.
 Rotational symmetry number  1.
 Warning -- assumption of classical behavior for rotation
           may cause significant error
 Rotational temperatures (Kelvin)      0.06399     0.04089     0.03519
 Rotational constants (GHZ):           1.33336     0.85200     0.73328
 Zero-point vibrational energy     124042.2 (Joules/Mol)
                                   29.64680 (Kcal/Mol)
 Warning -- explicit consideration of  18 degrees of freedom as
           vibrations may cause significant error
 Vibrational temperatures:     73.53    96.92   119.64   187.63   200.77
          (Kelvin)            271.00   319.52   342.92   373.28   455.88
                              500.58   522.04   597.24   644.02   682.88
                              771.84   780.45   853.42   906.55  1089.89
                             1106.18  1379.26  1468.20  1600.88  1702.17
                             1772.33  1793.11  1834.24  1942.46  5448.87

 Zero-point correction=                           0.047245 (Hartree/Particle)
 Thermal correction to Energy=                    0.058863
 Thermal correction to Enthalpy=                  0.059807
 Thermal correction to Gibbs Free Energy=         0.008826
 Sum of electronic and zero-point Energies=          -1199.555912
 Sum of electronic and thermal Energies=             -1199.544294
 Sum of electronic and thermal Enthalpies=           -1199.543350
 Sum of electronic and thermal Free Energies=        -1199.594331

                     E (Thermal)             CV                S
                      KCal/Mol        Cal/Mol-Kelvin    Cal/Mol-Kelvin
 Total                   36.937             39.458            107.299
 Electronic               0.000              0.000              0.000
 Translational            0.889              2.981             41.783
 Rotational               0.889              2.981             30.335
 Vibrational             35.160             33.497             35.181
 Vibration     1          0.595              1.977              4.774
 Vibration     2          0.598              1.970              4.229
 Vibration     3          0.600              1.961              3.815
 Vibration     4          0.612              1.923              2.940
 Vibration     5          0.615              1.914              2.810
 Vibration     6          0.633              1.856              2.244
 Vibration     7          0.648              1.807              1.942
 Vibration     8          0.656              1.782              1.815
 Vibration     9          0.668              1.747              1.666
 Vibration    10          0.704              1.641              1.326
 Vibration    11          0.726              1.579              1.176
 Vibration    12          0.737              1.549              1.110
 Vibration    13          0.779              1.437              0.909
 Vibration    14          0.807              1.366              0.803
 Vibration    15          0.831              1.306              0.725
 Vibration    16          0.891              1.169              0.573
 Vibration    17          0.898              1.156              0.560
 Vibration    18          0.951              1.046              0.462

 Optimization completed.
    -- Stationary point found.
 Normal termination of Gaussian 16 at Fri May 23 07:39:31 2025.
