 Gaussian 16, Revision C.01,
 Gaussian 16:  ES64L-G16RevC.01  3-Jul-2019

 ----------------------------------------------------------------------
 #P wb97xd/6-311++G(d,p) Symm(None) scf(xqc) pop(None) freq opt(CalcFC,
  Tight)
 ----------------------------------------------------------------------

 ------------------------------
 Gaussian input prepared by ASE
 ------------------------------
 Symbolic Z-matrix:
 Charge =  0 Multiplicity = 1

 SCF Done:  E(RwB97XD) =  -1199.56792449     A.U. after   20 cycles
 SCF Done:  E(RwB97XD) =  -1199.57246256     A.U. after   19 cycles
 SCF Done:  E(RwB97XD) =  -1199.57899249     A.U. after   18 cycles
 SCF Done:  E(RwB97XD) =  -1199.59308841     A.U. after   19 cycles
 SCF Done:  E(RwB97XD) =  -1199.59057227     A.U. after   19 cycles
 SCF Done:  E(RwB97XD) =  -1199.59545724     A.U. after   19 cycles
 SCF Done:  E(RwB97XD) =  -1199.59361797     A.U. after   19 cycles
 SCF Done:  E(RwB97XD) =  -1199.59562422     A.U. after   19 cycles
 SCF Done:  E(RwB97XD) =  -1199.59582340     A.U. after   18 cycles
 SCF Done:  E(RwB97XD) =  -1199.59671098     A.U. after   17 cycles
 SCF Done:  E(RwB97XD) =  -1199.59765322     A.U. after   12 cycles
 SCF Done:  E(RwB97XD) =  -1199.59765473     A.U. after   12 cycles
 SCF Done:  E(RwB97XD) =  -1199.59765620     A.U. after   13 cycles
 SCF Done:  E(RwB97XD) =  -1199.59765793     A.U. after   11 cycles
 SCF Done:  E(RwB97XD) =  -1199.59766025     A.U. after   12 cycles
 SCF Done:  E(RwB97XD) =  -1199.59766109     A.U. after   12 cycles
 SCF Done:  E(RwB97XD) =  -1199.59766121     A.U. after   11 cycles
 SCF Done:  E(RwB97XD) =  -1199.59766121     A.U. after    9 cycles
 SCF Done:  E(RwB97XD) =  -1199.59766121     A.U. after    9 cycles
 Optimization completed.
    -- Stationary point found.
 Normal termination of Gaussian 16 at Fri May 23 07:43:48 2025.

 ----------------------------------------------------------------------
 #P Geom=AllCheck Guess=TCheck SCRF=Check GenChk RwB97XD/6-311++G(d,p)
 Freq
 ----------------------------------------------------------------------

 Structure from the checkpoint file:  "/tmp/Gau-175480.chk"
 ------------------------------
 Gaussian input prepared by ASE
 ------------------------------
 Charge =  0 Multiplicity = 1

                          Input orientation:
 ---------------------------------------------------------------------
 Center     Atomic      Atomic             Coordinates (Angstroms)
 Number     Number       Type             X           Y           Z
 ---------------------------------------------------------------------
      1          6           0       -0.686569    0.421148   -1.477197
      2          6           0        0.035870   -0.026280   -0.166782
      3          9           0       -0.399884    0.631667    0.882197
      4          9           0       -0.197047   -1.391748    0.046785
      5         16           0        1.948825   -0.008428   -0.189587
      6          8           0       -1.825694   -1.783511    0.262650
      7          8           0        2.339781   -0.423044   -1.529891
      8          8           0        1.973425    1.636964   -0.071658
      9          9           0       -0.077584    1.506339   -1.948766
     10          9           0       -0.622988   -0.541052   -2.379403
     11          9           0       -1.949128    0.726374   -1.232211
     12          1           0        2.682259    1.898667    0.525878
 ---------------------------------------------------------------------

 SCF Done:  E(RwB97XD) =  -1199.59766121     A.U. after    1 cycles

 Isotropic polarizability for W=    0.000000       62.94 Bohr**3.
 End of Minotr F.D. properties file   721 does not exist.

                      1                      2                      3
                      A                      A                      A
 Frequencies --     55.1723                66.7894                84.2048
 Red. masses --     17.2085                10.9407                15.1117
 Frc consts  --      0.0309                 0.0288                 0.0631
 IR Inten    --      0.5597                 5.7141                 1.9552

                      4                      5                      6
                      A                      A                      A
 Frequencies --    136.3123               145.8439               157.2587
 Red. masses --      5.1951                 9.6687                 2.1850
 Frc consts  --      0.0569                 0.1212                 0.0318
 IR Inten    --     17.0069                 8.2847                71.9074

                      7                      8                      9
                      A                      A                      A
 Frequencies --    195.3550               226.2751               253.6723
 Red. masses --     13.3612                17.7862                 9.0043
 Frc consts  --      0.3004                 0.5365                 0.3414
 IR Inten    --      2.6231                 0.9944                 3.9761

                     10                     11                     12
                      A                      A                      A
 Frequencies --    265.7677               325.4315               352.1538
 Red. masses --      4.5897                 9.5284                17.9734
 Frc consts  --      0.1910                 0.5945                 1.3132
 IR Inten    --     11.8483                 2.6969                 1.2967

                     13                     14                     15
                      A                      A                      A
 Frequencies --    408.8381               443.4406               450.8534
 Red. masses --     10.0629                12.6972                12.6750
 Frc consts  --      0.9910                 1.4711                 1.5180
 IR Inten    --      6.4776                21.0073                49.6272

                     16                     17                     18
                      A                      A                      A
 Frequencies --    505.5498               547.0066               592.9529
 Red. masses --     16.0625                17.5252                17.6933
 Frc consts  --      2.4187                 3.0896                 3.6652
 IR Inten    --     57.8534                12.1742                 4.2742

                     19                     20                     21
                      A                      A                      A
 Frequencies --    630.8741               751.0005               765.0100
 Red. masses --     16.4529                15.1852                17.0488
 Frc consts  --      3.8581                 5.0461                 5.8787
 IR Inten    --      1.5700               120.0889                27.8915

                     22                     23                     24
                      A                      A                      A
 Frequencies --    960.6729              1000.4926              1101.6129
 Red. masses --     12.5308                 7.1667                 1.2423
 Frc consts  --      6.8136                 4.2266                 0.8882
 IR Inten    --    132.2757               192.2202                83.6109

                     25                     26                     27
                      A                      A                      A
 Frequencies --   1202.6158              1243.5790              1247.0386
 Red. masses --     13.7338                12.0922                14.7339
 Frc consts  --     11.7029                11.0179                13.4998
 IR Inten    --    104.5244               169.3712               142.3398

                     28                     29                     30
                      A                      A                      A
 Frequencies --   1274.3293              1338.5303              3867.1483
 Red. masses --     13.9369                12.7104                 1.0674
 Frc consts  --     13.3346                13.4173                 9.4051
 IR Inten    --    434.1628               134.0805               184.6101

 - Thermochemistry -
 -------------------
 Temperature   298.150 Kelvin.  Pressure   1.00000 Atm.
 Atom     1 has atomic number  6 and mass  12.00000

 Molecular mass:   199.95666 amu.
 Principal axes and moments of inertia in atomic units:
                           1         2         3
     Eigenvalues --  1372.047932090.288422382.16665
           X            0.96325   0.11242  -0.24395
           Y            0.25713  -0.64861   0.71637
           Z            0.07769   0.75277   0.65368
 This molecule is an asymmetric top.
 Rotational symmetry number  1.
 Warning -- assumption of classical behavior for rotation
           may cause significant error
 Rotational temperatures (Kelvin)      0.06313     0.04144     0.03636
 Rotational constants (GHZ):           1.31536     0.86339     0.75760
 Zero-point vibrational energy     123190.1 (Joules/Mol)
                                   29.44315 (Kcal/Mol)
 Warning -- explicit consideration of  18 degrees of freedom as
           vibrations may cause significant error
 Vibrational temperatures:     79.38    96.10   121.15   196.12   209.84
          (Kelvin)            226.26   281.07   325.56   364.98   382.38
                              468.22   506.67   588.23   638.01   648.68
                              727.37   787.02   853.13   907.69  1080.52
                             1100.68  1382.19  1439.49  1584.98  1730.30
                             1789.23  1794.21  1833.48  1925.85  5563.96

 Zero-point correction=                           0.046921 (Hartree/Particle)
 Thermal correction to Energy=                    0.058781
 Thermal correction to Enthalpy=                  0.059725
 Thermal correction to Gibbs Free Energy=         0.008281
 Sum of electronic and zero-point Energies=          -1199.550741
 Sum of electronic and thermal Energies=             -1199.538880
 Sum of electronic and thermal Enthalpies=           -1199.537936
 Sum of electronic and thermal Free Energies=        -1199.589380

                     E (Thermal)             CV                S
                      KCal/Mol        Cal/Mol-Kelvin    Cal/Mol-Kelvin
 Total                   36.886             39.876            108.274
 Electronic               0.000              0.000              0.000
 Translational            0.889              2.981             41.783
 Rotational               0.889              2.981             30.303
 Vibrational             35.108             33.914             36.188
 Vibration     1          0.596              1.976              4.623
 Vibration     2          0.598              1.970              4.246
 Vibration     3          0.601              1.960              3.790
 Vibration     4          0.614              1.917              2.855
 Vibration     5          0.617              1.907              2.726
 Vibration     6          0.621              1.895              2.583
 Vibration     7          0.636              1.846              2.176
 Vibration     8          0.650              1.801              1.908
 Vibration     9          0.665              1.757              1.705
 Vibration    10          0.672              1.736              1.624
 Vibration    11          0.710              1.625              1.283
 Vibration    12          0.729              1.571              1.157
 Vibration    13          0.773              1.451              0.931
 Vibration    14          0.803              1.375              0.816
 Vibration    15          0.810              1.359              0.793
 Vibration    16          0.861              1.238              0.644
 Vibration    17          0.902              1.146              0.550
 Vibration    18          0.951              1.047              0.462

 Optimization completed.
    -- Stationary point found.
 Normal termination of Gaussian 16 at Fri May 23 07:45:26 2025.
