 Gaussian 16, Revision C.01,
 Gaussian 16:  ES64L-G16RevC.01  3-Jul-2019

 ----------------------------------------------------------------------
 #P wb97xd/6-311++G(d,p) Symm(None) scf(xqc) pop(None) opt(NoFreeze,TS,
 CalcAll,NoEigentest,MaxCycle=999)
 ----------------------------------------------------------------------

 ------------------------------
 Gaussian input prepared by ASE
 ------------------------------
 Symbolic Z-matrix:
 Charge =  0 Multiplicity = 1

 SCF Done:  E(RwB97XD) =  -1199.59728733     A.U. after   22 cycles
 SCF Done:  E(RwB97XD) =  -1199.62054181     A.U. after   19 cycles
 SCF Done:  E(RwB97XD) =  -1199.64591030     A.U. after   17 cycles
 SCF Done:  E(RwB97XD) =  -1199.66018318     A.U. after   16 cycles
 SCF Done:  E(RwB97XD) =  -1199.66296059     A.U. after   17 cycles
 SCF Done:  E(RwB97XD) =  -1199.66353681     A.U. after   15 cycles
 SCF Done:  E(RwB97XD) =  -1199.66362394     A.U. after   15 cycles
 SCF Done:  E(RwB97XD) =  -1199.66367109     A.U. after   13 cycles
 SCF Done:  E(RwB97XD) =  -1199.66367130     A.U. after   11 cycles

 Isotropic polarizability for W=    0.000000       72.62 Bohr**3.
 End of Minotr F.D. properties file   721 does not exist.

 Optimization completed.
    -- Stationary point found.

                          Input orientation:
 ---------------------------------------------------------------------
 Center     Atomic      Atomic             Coordinates (Angstroms)
 Number     Number       Type             X           Y           Z
 ---------------------------------------------------------------------
      1          6           0       -0.230574   -1.190370    0.078627
      2          6           0        0.212905    0.134721    0.065984
      3          9           0        0.013079    0.817310   -1.052980
      4          9           0        0.011200    0.850590    1.153079
      5         16           0        2.579219   -0.277924    0.121914
      6          8           0        2.881010   -0.492558    1.504176
      7          8           0        3.371550   -0.511538   -1.058533
      8          8           0        2.419866    1.371614    0.072040
      9          9           0       -0.459866   -1.805294    1.169763
     10          9           0        1.725367   -1.944732   -0.081871
     11          9           0       -0.574581   -1.803881   -0.984599
     12          1           0        2.604719    1.659862   -0.831005
 ---------------------------------------------------------------------

 ******    1 imaginary frequencies (negative Signs) ******

                      1                      2                      3
                      A                      A                      A
 Frequencies --   -573.5532                32.3947                61.9021
 Red. masses --     12.7331                15.3221                12.1241
 Frc consts  --      2.4679                 0.0095                 0.0274
 IR Inten    --    194.7470                 1.7734                 2.6379

                      4                      5                      6
                      A                      A                      A
 Frequencies --    161.0047               170.5589               203.0797
 Red. masses --     18.8070                17.0518                17.4555
 Frc consts  --      0.2872                 0.2923                 0.4241
 IR Inten    --     15.6524                12.2057                 0.1802

                      7                      8                      9
                      A                      A                      A
 Frequencies --    211.0147               240.3095               274.2924
 Red. masses --     17.4554                15.8657                10.9874
 Frc consts  --      0.4579                 0.5398                 0.4870
 IR Inten    --      1.9879                 3.2071                 8.0105

                     10                     11                     12
                      A                      A                      A
 Frequencies --    318.8478               369.6270               388.6051
 Red. masses --      7.9974                 1.8523                13.5652
 Frc consts  --      0.4790                 0.1491                 1.2070
 IR Inten    --      9.7461                30.0414                16.6233

                     13                     14                     15
                      A                      A                      A
 Frequencies --    406.9966               443.6736               481.6978
 Red. masses --     15.6839                 5.5645                 3.7237
 Frc consts  --      1.5307                 0.6454                 0.5091
 IR Inten    --     26.3158               226.5855                 3.7253

                     16                     17                     18
                      A                      A                      A
 Frequencies --    512.6609               548.2814               560.2095
 Red. masses --     10.1727                16.7514                14.3734
 Frc consts  --      1.5752                 2.9669                 2.6577
 IR Inten    --    242.3509                 1.3545               139.7860

                     19                     20                     21
                      A                      A                      A
 Frequencies --    594.4544               646.5297               718.0977
 Red. masses --     16.5447                13.2676                16.7395
 Frc consts  --      3.4446                 3.2675                 5.0858
 IR Inten    --      4.2421                 9.3196               182.7869

                     22                     23                     24
                      A                      A                      A
 Frequencies --    812.9621              1116.7616              1148.5007
 Red. masses --     17.7554                 9.8803                 1.2677
 Frc consts  --      6.9139                 7.2601                 0.9852
 IR Inten    --     59.5132               227.7391               100.0113

                     25                     26                     27
                      A                      A                      A
 Frequencies --   1209.8112              1305.9344              1424.7567
 Red. masses --     13.7575                13.1154                12.5052
 Frc consts  --     11.8638                13.1787                14.9563
 IR Inten    --    321.8853               155.7486               186.8893

                     28                     29                     30
                      A                      A                      A
 Frequencies --   1479.0388              1606.6255              3836.6379
 Red. masses --     13.2372                12.4013                 1.0664
 Frc consts  --     17.0610                18.8603                 9.2482
 IR Inten    --    341.6594               812.7655               165.4770

 - Thermochemistry -
 -------------------
 Temperature   298.150 Kelvin.  Pressure   1.00000 Atm.
 Atom     1 has atomic number  6 and mass  12.00000

 Molecular mass:   199.95666 amu.
 Principal axes and moments of inertia in atomic units:
                           1         2         3
     Eigenvalues --  1312.491262074.227662351.77685
           X            0.94836  -0.31719   0.00108
           Y            0.31717   0.94827  -0.01354
           Z            0.00327   0.01318   0.99991
 This molecule is an asymmetric top.
 Rotational symmetry number  1.
 Warning -- assumption of classical behavior for rotation
           may cause significant error
 Rotational temperatures (Kelvin)      0.06599     0.04176     0.03683
 Rotational constants (GHZ):           1.37505     0.87008     0.76739
    1 imaginary frequencies ignored.
 Zero-point vibrational energy     127314.2 (Joules/Mol)
                                   30.42882 (Kcal/Mol)
 Warning -- explicit consideration of  18 degrees of freedom as
           vibrations may cause significant error
 Vibrational temperatures:     46.61    89.06   231.65   245.40   292.19
          (Kelvin)            303.60   345.75   394.65   458.75   531.81
                              559.12   585.58   638.35   693.06   737.60
                              788.85   806.02   855.29   930.21  1033.18
                             1169.67  1606.77  1652.44  1740.65  1878.95
                             2049.91  2128.01  2311.58  5520.07

 Zero-point correction=                           0.048491 (Hartree/Particle)
 Thermal correction to Energy=                    0.059315
 Thermal correction to Enthalpy=                  0.060259
 Thermal correction to Gibbs Free Energy=         0.011006
 Sum of electronic and zero-point Energies=          -1199.615180
 Sum of electronic and thermal Energies=             -1199.604357
 Sum of electronic and thermal Enthalpies=           -1199.603413
 Sum of electronic and thermal Free Energies=        -1199.652665

                     E (Thermal)             CV                S
                      KCal/Mol        Cal/Mol-Kelvin    Cal/Mol-Kelvin
 Total                   37.220             37.598            103.661
 Electronic               0.000              0.000              0.000
 Translational            0.889              2.981             41.783
 Rotational               0.889              2.981             30.238
 Vibrational             35.443             31.637             31.639
 Vibration     1          0.594              1.983              5.677
 Vibration     2          0.597              1.972              4.396
 Vibration     3          0.622              1.890              2.538
 Vibration     4          0.626              1.879              2.429
 Vibration     5          0.639              1.836              2.105
 Vibration     6          0.643              1.824              2.035
 Vibration     7          0.657              1.779              1.801
 Vibration     8          0.677              1.721              1.569
 Vibration     9          0.705              1.638              1.316
 Vibration    10          0.742              1.535              1.081
 Vibration    11          0.757              1.495              1.005
 Vibration    12          0.772              1.455              0.937
 Vibration    13          0.803              1.375              0.815
 Vibration    14          0.838              1.291              0.705
 Vibration    15          0.868              1.222              0.627
 Vibration    16          0.904              1.143              0.548
 Vibration    17          0.916              1.117              0.523
 Vibration    18          0.952              1.044              0.459

 Normal termination of Gaussian 16 at Fri May 23 05:12:42 2025.
