 Gaussian 16, Revision C.01,
 Gaussian 16:  ES64L-G16RevC.01  3-Jul-2019

 ----------------------------------------------------------------------
 #P wb97xd/6-311++G(d,p) Symm(None) scf(xqc) pop(None) freq opt(CalcFC,
  Tight)
 ----------------------------------------------------------------------

 ------------------------------
 Gaussian input prepared by ASE
 ------------------------------
 Symbolic Z-matrix:
 Charge =  0 Multiplicity = 1

 SCF Done:  E(RwB97XD) =  -1199.70892777     A.U. after   16 cycles
 SCF Done:  E(RwB97XD) =  -1199.73155614     A.U. after   16 cycles
 SCF Done:  E(RwB97XD) =  -1199.73241323     A.U. after   14 cycles
 SCF Done:  E(RwB97XD) =  -1199.73252573     A.U. after   16 cycles
 SCF Done:  E(RwB97XD) =  -1199.73507143     A.U. after   14 cycles
 SCF Done:  E(RwB97XD) =  -1199.73588307     A.U. after   14 cycles
 SCF Done:  E(RwB97XD) =  -1199.73660231     A.U. after   13 cycles
 SCF Done:  E(RwB97XD) =  -1199.73671042     A.U. after   12 cycles
 SCF Done:  E(RwB97XD) =  -1199.73674776     A.U. after   12 cycles
 SCF Done:  E(RwB97XD) =  -1199.73675737     A.U. after   11 cycles
 SCF Done:  E(RwB97XD) =  -1199.73678953     A.U. after   11 cycles
 SCF Done:  E(RwB97XD) =  -1199.73679981     A.U. after   11 cycles
 SCF Done:  E(RwB97XD) =  -1199.73680937     A.U. after   11 cycles
 SCF Done:  E(RwB97XD) =  -1199.73681625     A.U. after   11 cycles
 SCF Done:  E(RwB97XD) =  -1199.73682125     A.U. after   10 cycles
 SCF Done:  E(RwB97XD) =  -1199.73682724     A.U. after   11 cycles
 SCF Done:  E(RwB97XD) =  -1199.73682826     A.U. after   10 cycles
 SCF Done:  E(RwB97XD) =  -1199.73682840     A.U. after    9 cycles
 SCF Done:  E(RwB97XD) =  -1199.73682840     A.U. after    7 cycles
 Optimization completed.
    -- Stationary point found.
 Normal termination of Gaussian 16 at Fri May 23 05:24:10 2025.

 ----------------------------------------------------------------------
 #P Geom=AllCheck Guess=TCheck SCRF=Check GenChk RwB97XD/6-311++G(d,p)
 Freq
 ----------------------------------------------------------------------

 Structure from the checkpoint file:  "/tmp/Gau-287479.chk"
 ------------------------------
 Gaussian input prepared by ASE
 ------------------------------
 Charge =  0 Multiplicity = 1

                          Input orientation:
 ---------------------------------------------------------------------
 Center     Atomic      Atomic             Coordinates (Angstroms)
 Number     Number       Type             X           Y           Z
 ---------------------------------------------------------------------
      1          6           0        3.660319   -0.540134    0.447776
      2          6           0        3.771248    0.881549   -0.168276
      3          9           0        4.053258    1.756087    0.805772
      4          9           0        4.775951    0.878334   -1.058225
      5         16           0        2.337533    1.676487   -1.157763
      6          8           0        0.686627    0.232492    0.182436
      7          8           0        2.026091    0.776185   -2.266998
      8          8           0        1.119044    1.569229   -0.005342
      9          9           0        2.914529   -0.522846    1.540771
     10          9           0        3.156680   -1.396996   -0.429143
     11          9           0        4.885144   -0.950048    0.784983
     12          1           0        0.064884    0.108575   -0.548079
 ---------------------------------------------------------------------

 SCF Done:  E(RwB97XD) =  -1199.73682840     A.U. after    1 cycles

 Isotropic polarizability for W=    0.000000       60.27 Bohr**3.
 End of Minotr F.D. properties file   721 does not exist.

                      1                      2                      3
                      A                      A                      A
 Frequencies --     38.3771                66.0368               130.2550
 Red. masses --     14.2013                14.5944                16.8724
 Frc consts  --      0.0123                 0.0375                 0.1687
 IR Inten    --      0.0213                 0.3441                 1.5347

                      4                      5                      6
                      A                      A                      A
 Frequencies --    148.5139               174.1089               206.3749
 Red. masses --      9.6140                12.0766                 2.8176
 Frc consts  --      0.1249                 0.2157                 0.0707
 IR Inten    --      1.8784                 5.1835                28.1446

                      7                      8                      9
                      A                      A                      A
 Frequencies --    228.4872               252.0847               306.5945
 Red. masses --     15.1161                 7.4572                 6.6084
 Frc consts  --      0.4650                 0.2792                 0.3660
 IR Inten    --      1.9440                18.8334                15.7794

                     10                     11                     12
                      A                      A                      A
 Frequencies --    311.3564               355.2635               364.4715
 Red. masses --      4.4652                 6.4302                 7.5158
 Frc consts  --      0.2550                 0.4782                 0.5882
 IR Inten    --     36.4296                31.5149                21.8779

                     13                     14                     15
                      A                      A                      A
 Frequencies --    448.3327               459.6606               543.0002
 Red. masses --      8.5145                17.9518                17.2246
 Frc consts  --      1.0083                 2.2348                 2.9923
 IR Inten    --     44.9999                 6.2285                 1.6390

                     16                     17                     18
                      A                      A                      A
 Frequencies --    555.3456               598.3497               636.7172
 Red. masses --     14.0076                17.8860                17.9755
 Frc consts  --      2.5453                 3.7729                 4.2936
 IR Inten    --     27.3984                 1.8846                53.0057

                     19                     20                     21
                      A                      A                      A
 Frequencies --    655.7531               761.8160               963.5843
 Red. masses --     16.9712                17.2905                15.4630
 Frc consts  --      4.2997                 5.9123                 8.4591
 IR Inten    --     13.1877                14.1255                 1.7295

                     22                     23                     24
                      A                      A                      A
 Frequencies --    991.1639              1135.0288              1189.6694
 Red. masses --     13.6402                13.6574                13.6589
 Frc consts  --      7.8952                10.3665                11.3899
 IR Inten    --     72.7223               156.4343                88.8871

                     25                     26                     27
                      A                      A                      A
 Frequencies --   1214.1159              1229.4373              1264.2864
 Red. masses --     14.1758                14.9104                13.5233
 Frc consts  --     12.3117                13.2786                12.7357
 IR Inten    --    178.3113               227.2287               425.6450

                     28                     29                     30
                      A                      A                      A
 Frequencies --   1330.3041              1445.1125              3801.7243
 Red. masses --     12.7773                 1.1082                 1.0686
 Frc consts  --     13.3226                 1.3635                 9.0993
 IR Inten    --    132.8428                55.6693                71.2526

 - Thermochemistry -
 -------------------
 Temperature   298.150 Kelvin.  Pressure   1.00000 Atm.
 Atom     1 has atomic number  6 and mass  12.00000

 Molecular mass:   199.95666 amu.
 Principal axes and moments of inertia in atomic units:
                           1         2         3
     Eigenvalues --  1332.219572022.127122345.14169
           X            0.75390   0.65695   0.00760
           Y           -0.49829   0.56421   0.65831
           Z            0.42819  -0.50008   0.75271
 This molecule is an asymmetric top.
 Rotational symmetry number  1.
 Warning -- assumption of classical behavior for rotation
           may cause significant error
 Rotational temperatures (Kelvin)      0.06501     0.04283     0.03693
 Rotational constants (GHZ):           1.35469     0.89250     0.76957
 Zero-point vibrational energy     130424.8 (Joules/Mol)
                                   31.17228 (Kcal/Mol)
 Warning -- explicit consideration of  17 degrees of freedom as
           vibrations may cause significant error
 Vibrational temperatures:     55.22    95.01   187.41   213.68   250.50
          (Kelvin)            296.93   328.74   362.69   441.12   447.97
                              511.14   524.39   645.05   661.35   781.26
                              799.02   860.89   916.09   943.48  1096.08
                             1386.38  1426.06  1633.05  1711.67  1746.84
                             1768.89  1819.03  1914.01  2079.19  5469.83

 Zero-point correction=                           0.049676 (Hartree/Particle)
 Thermal correction to Energy=                    0.060772
 Thermal correction to Enthalpy=                  0.061716
 Thermal correction to Gibbs Free Energy=         0.011893
 Sum of electronic and zero-point Energies=          -1199.687152
 Sum of electronic and thermal Energies=             -1199.676056
 Sum of electronic and thermal Enthalpies=           -1199.675112
 Sum of electronic and thermal Free Energies=        -1199.724935

                     E (Thermal)             CV                S
                      KCal/Mol        Cal/Mol-Kelvin    Cal/Mol-Kelvin
 Total                   38.135             38.077            104.861
 Electronic               0.000              0.000              0.000
 Translational            0.889              2.981             41.783
 Rotational               0.889              2.981             30.225
 Vibrational             36.358             32.116             32.853
 Vibration     1          0.594              1.982              5.341
 Vibration     2          0.597              1.970              4.268
 Vibration     3          0.612              1.923              2.942
 Vibration     4          0.618              1.904              2.691
 Vibration     5          0.627              1.874              2.391
 Vibration     6          0.641              1.831              2.076
 Vibration     7          0.651              1.798              1.891
 Vibration     8          0.664              1.759              1.716
 Vibration     9          0.697              1.661              1.381
 Vibration    10          0.700              1.652              1.355
 Vibration    11          0.731              1.564              1.143
 Vibration    12          0.738              1.545              1.103
 Vibration    13          0.807              1.365              0.801
 Vibration    14          0.818              1.340              0.767
 Vibration    15          0.898              1.155              0.559
 Vibration    16          0.911              1.128              0.533
 Vibration    17          0.956              1.035              0.453

 Optimization completed.
    -- Stationary point found.
 Normal termination of Gaussian 16 at Fri May 23 05:25:29 2025.
