 Gaussian 16, Revision C.01,
 Gaussian 16:  ES64L-G16RevC.01  3-Jul-2019

 ----------------------------------------------------------------------
 #P wb97xd/6-311++G(d,p) Symm(None) scf(xqc) pop(None) opt(NoFreeze,TS,
 CalcAll,NoEigentest,MaxCycle=999)
 ----------------------------------------------------------------------

 ------------------------------
 Gaussian input prepared by ASE
 ------------------------------
 Symbolic Z-matrix:
 Charge =  0 Multiplicity = 1

 SCF Done:  E(RwB97XD) =  -1199.64538226     A.U. after   18 cycles
 SCF Done:  E(RwB97XD) =  -1199.65184893     A.U. after   15 cycles
 SCF Done:  E(RwB97XD) =  -1199.65536987     A.U. after   14 cycles
 SCF Done:  E(RwB97XD) =  -1199.65616196     A.U. after   14 cycles
 SCF Done:  E(RwB97XD) =  -1199.65619452     A.U. after   12 cycles
 SCF Done:  E(RwB97XD) =  -1199.65619457     A.U. after    9 cycles

 Isotropic polarizability for W=    0.000000       61.87 Bohr**3.
 End of Minotr F.D. properties file   721 does not exist.

 Optimization completed.
    -- Stationary point found.

                          Input orientation:
 ---------------------------------------------------------------------
 Center     Atomic      Atomic             Coordinates (Angstroms)
 Number     Number       Type             X           Y           Z
 ---------------------------------------------------------------------
      1          6           0       -0.045801   -0.773107    1.320707
      2          6           0       -0.061890   -0.093382   -0.081317
      3          9           0       -0.663403   -0.742848   -1.037826
      4          9           0       -0.629841    1.118055    0.027949
      5         16           0        1.801579    0.053065   -0.094370
      6          8           0        1.854240   -0.143579    1.400775
      7          8           0        2.680767   -0.402831   -1.115723
      8          8           0        1.961117    1.659101   -0.221773
      9          9           0        1.131746   -1.946768    0.121823
     10          9           0       -0.294390    0.031944    2.313371
     11          9           0       -0.600669   -1.886587    1.588642
     12          1           0        1.668037    2.100916    0.584102
 ---------------------------------------------------------------------

 ******    1 imaginary frequencies (negative Signs) ******

                      1                      2                      3
                      A                      A                      A
 Frequencies --   -389.7525               109.2424               165.4951
 Red. masses --     16.5416                13.0954                 7.5077
 Frc consts  --      1.4805                 0.0921                 0.1212
 IR Inten    --     21.7211                39.8113                81.0116

                      4                      5                      6
                      A                      A                      A
 Frequencies --    191.8101               198.8886               245.4299
 Red. masses --     17.7203                12.1524                15.8030
 Frc consts  --      0.3841                 0.2832                 0.5608
 IR Inten    --     22.4834                87.3623                 0.4663

                      7                      8                      9
                      A                      A                      A
 Frequencies --    265.0335               291.7014               309.3959
 Red. masses --     11.3180                14.8054                 9.5876
 Frc consts  --      0.4684                 0.7422                 0.5407
 IR Inten    --      7.5792                 2.7407                35.1675

                     10                     11                     12
                      A                      A                      A
 Frequencies --    369.6564               383.5291               399.0219
 Red. masses --      1.7527                 7.4526                16.9642
 Frc consts  --      0.1411                 0.6459                 1.5914
 IR Inten    --     41.0252                61.7956                61.9894

                     13                     14                     15
                      A                      A                      A
 Frequencies --    415.1741               486.9802               515.6359
 Red. masses --     17.0746                 4.7412                 8.0598
 Frc consts  --      1.7341                 0.6625                 1.2626
 IR Inten    --     19.9574                12.8952                35.9992

                     16                     17                     18
                      A                      A                      A
 Frequencies --    537.7730               570.7887               630.0342
 Red. masses --     15.8736                17.6190                16.9605
 Frc consts  --      2.7047                 3.3821                 3.9666
 IR Inten    --     29.5435               168.2410                 4.7692

                     19                     20                     21
                      A                      A                      A
 Frequencies --    673.2095               753.7091               786.2442
 Red. masses --     16.1766                15.5370                15.6977
 Frc consts  --      4.3196                 5.2003                 5.7174
 IR Inten    --     49.2391                28.1765               225.2309

                     22                     23                     24
                      A                      A                      A
 Frequencies --    953.8116              1034.4372              1101.7647
 Red. masses --     13.0314                13.9093                11.5751
 Frc consts  --      6.9850                 8.7693                 8.2785
 IR Inten    --     70.7890               162.7694               168.1464

                     25                     26                     27
                      A                      A                      A
 Frequencies --   1154.1409              1256.2446              1322.2319
 Red. masses --      1.2252                12.8380                13.0411
 Frc consts  --      0.9616                11.9371                13.4332
 IR Inten    --    137.7577               485.7257                77.2493

                     28                     29                     30
                      A                      A                      A
 Frequencies --   1372.1719              1439.5758              3850.7113
 Red. masses --     14.1475                13.0128                 1.0664
 Frc consts  --     15.6945                15.8888                 9.3165
 IR Inten    --    411.4713               207.8845               117.8635

 - Thermochemistry -
 -------------------
 Temperature   298.150 Kelvin.  Pressure   1.00000 Atm.
 Atom     1 has atomic number  6 and mass  12.00000

 Molecular mass:   199.95666 amu.
 Principal axes and moments of inertia in atomic units:
                           1         2         3
     Eigenvalues --  1260.774641900.115972006.20175
           X            0.75925  -0.37802   0.52976
           Y            0.38851   0.91632   0.09703
           Z           -0.52210   0.13215   0.84258
 This molecule is an asymmetric top.
 Rotational symmetry number  1.
 Warning -- assumption of classical behavior for rotation
           may cause significant error
 Rotational temperatures (Kelvin)      0.06870     0.04558     0.04317
 Rotational constants (GHZ):           1.43145     0.94981     0.89958
    1 imaginary frequencies ignored.
 Zero-point vibrational energy     130296.3 (Joules/Mol)
                                   31.14157 (Kcal/Mol)
 Warning -- explicit consideration of  16 degrees of freedom as
           vibrations may cause significant error
 Vibrational temperatures:    157.18   238.11   275.97   286.16   353.12
          (Kelvin)            381.32   419.69   445.15   531.85   551.81
                              574.10   597.34   700.66   741.89   773.74
                              821.24   906.48   968.60  1084.42  1131.23
                             1372.32  1488.32  1585.19  1660.55  1807.46
                             1902.40  1974.25  2071.23  5540.31

 Zero-point correction=                           0.049627 (Hartree/Particle)
 Thermal correction to Energy=                    0.059423
 Thermal correction to Enthalpy=                  0.060367
 Thermal correction to Gibbs Free Energy=         0.014729
 Sum of electronic and zero-point Energies=          -1199.606567
 Sum of electronic and thermal Energies=             -1199.596772
 Sum of electronic and thermal Enthalpies=           -1199.595828
 Sum of electronic and thermal Free Energies=        -1199.641465

                     E (Thermal)             CV                S
                      KCal/Mol        Cal/Mol-Kelvin    Cal/Mol-Kelvin
 Total                   37.288             36.096             96.052
 Electronic               0.000              0.000              0.000
 Translational            0.889              2.981             41.783
 Rotational               0.889              2.981             29.953
 Vibrational             35.511             30.134             24.315
 Vibration     1          0.606              1.942              3.282
 Vibration     2          0.624              1.885              2.486
 Vibration     3          0.634              1.851              2.210
 Vibration     4          0.637              1.841              2.143
 Vibration     5          0.660              1.770              1.763
 Vibration     6          0.671              1.737              1.628
 Vibration     7          0.687              1.689              1.464
 Vibration     8          0.699              1.656              1.366
 Vibration     9          0.742              1.535              1.081
 Vibration    10          0.753              1.505              1.025
 Vibration    11          0.765              1.472              0.966
 Vibration    12          0.779              1.437              0.909
 Vibration    13          0.843              1.279              0.691
 Vibration    14          0.871              1.215              0.620
 Vibration    15          0.893              1.167              0.570
 Vibration    16          0.927              1.094              0.503

 Normal termination of Gaussian 16 at Fri May 23 04:53:49 2025.
