 Gaussian 16, Revision C.01,
 Gaussian 16:  ES64L-G16RevC.01  3-Jul-2019

 ----------------------------------------------------------------------
 #P wb97xd/6-311++G(d,p) Symm(None) scf(xqc) pop(None) freq opt(CalcFC,
  Tight)
 ----------------------------------------------------------------------

 ------------------------------
 Gaussian input prepared by ASE
 ------------------------------
 Symbolic Z-matrix:
 Charge =  0 Multiplicity = 1

 SCF Done:  E(RwB97XD) =  -1199.73103894     A.U. after   16 cycles
 SCF Done:  E(RwB97XD) =  -1199.73610263     A.U. after   15 cycles
 SCF Done:  E(RwB97XD) =  -1199.73404709     A.U. after   15 cycles
 SCF Done:  E(RwB97XD) =  -1199.73660255     A.U. after   13 cycles
 SCF Done:  E(RwB97XD) =  -1199.73663033     A.U. after   12 cycles
 SCF Done:  E(RwB97XD) =  -1199.73663778     A.U. after   11 cycles
 SCF Done:  E(RwB97XD) =  -1199.73663940     A.U. after   10 cycles
 SCF Done:  E(RwB97XD) =  -1199.73663959     A.U. after    9 cycles
 SCF Done:  E(RwB97XD) =  -1199.73663968     A.U. after   10 cycles
 SCF Done:  E(RwB97XD) =  -1199.73663968     A.U. after    7 cycles
 SCF Done:  E(RwB97XD) =  -1199.73663968     A.U. after    5 cycles
 Optimization completed.
    -- Stationary point found.
 Normal termination of Gaussian 16 at Fri May 23 05:23:17 2025.

 ----------------------------------------------------------------------
 #P Geom=AllCheck Guess=TCheck SCRF=Check GenChk RwB97XD/6-311++G(d,p)
 Freq
 ----------------------------------------------------------------------

 Structure from the checkpoint file:  "/tmp/Gau-269618.chk"
 ------------------------------
 Gaussian input prepared by ASE
 ------------------------------
 Charge =  0 Multiplicity = 1

                          Input orientation:
 ---------------------------------------------------------------------
 Center     Atomic      Atomic             Coordinates (Angstroms)
 Number     Number       Type             X           Y           Z
 ---------------------------------------------------------------------
      1          6           0        1.523032    4.325114    0.195861
      2          6           0        2.533820    3.413085    0.948861
      3          9           0        3.604159    3.201065    0.175004
      4          9           0        2.917548    4.039781    2.067676
      5         16           0        1.960318    1.697654    1.572299
      6          8           0        0.922436    0.067544   -0.019593
      7          8           0        0.974122    1.916791    2.623945
      8          8           0        1.196973    1.458405    0.079526
      9          9           0        1.353594    3.920622   -1.053464
     10          9           0        0.351828    4.328746    0.821241
     11          9           0        1.998994    5.569699    0.173924
     12          1           0       -0.038169    0.057716    0.079630
 ---------------------------------------------------------------------

 SCF Done:  E(RwB97XD) =  -1199.73663968     A.U. after    1 cycles

 Isotropic polarizability for W=    0.000000       61.12 Bohr**3.
 End of Minotr F.D. properties file   721 does not exist.

                      1                      2                      3
                      A                      A                      A
 Frequencies --     28.7788                70.5436                87.7958
 Red. masses --     13.5568                16.3283                 9.6831
 Frc consts  --      0.0066                 0.0479                 0.0440
 IR Inten    --      0.1464                 0.3654                 6.1442

                      4                      5                      6
                      A                      A                      A
 Frequencies --    124.4074               172.2861               217.7338
 Red. masses --      9.9142                13.7822                10.7043
 Frc consts  --      0.0904                 0.2410                 0.2990
 IR Inten    --      0.1958                 3.1112                 5.2087

                      7                      8                      9
                      A                      A                      A
 Frequencies --    228.1041               291.1476               300.8137
 Red. masses --     18.0495                 7.5979                12.3563
 Frc consts  --      0.5533                 0.3795                 0.6588
 IR Inten    --      0.6864                 1.7848                 9.7784

                     10                     11                     12
                      A                      A                      A
 Frequencies --    315.1822               338.8936               363.9366
 Red. masses --     13.7284                 1.5284                13.8649
 Frc consts  --      0.8035                 0.1034                 1.0820
 IR Inten    --      5.5536               100.0628                 3.4499

                     13                     14                     15
                      A                      A                      A
 Frequencies --    429.1858               459.0094               484.3158
 Red. masses --     14.1880                 6.8037                19.9944
 Frc consts  --      1.5398                 0.8446                 2.7632
 IR Inten    --     16.8713                20.3391                38.8974

                     16                     17                     18
                      A                      A                      A
 Frequencies --    546.5713               596.1434               636.4410
 Red. masses --     18.1487                17.8790                16.9864
 Frc consts  --      3.1944                 3.7436                 4.0538
 IR Inten    --      3.3685                 2.5824                17.5407

                     19                     20                     21
                      A                      A                      A
 Frequencies --    714.0718               762.4403               987.3062
 Red. masses --     16.7351                17.3024                13.6338
 Frc consts  --      5.0276                 5.9261                 7.8302
 IR Inten    --     76.2382                13.8007                84.4783

                     22                     23                     24
                      A                      A                      A
 Frequencies --    995.1972              1144.1676              1198.9237
 Red. masses --     14.9619                13.6647                13.7012
 Frc consts  --      8.7308                10.5397                11.6036
 IR Inten    --      8.6082               177.6428                80.9937

                     25                     26                     27
                      A                      A                      A
 Frequencies --   1220.6729              1236.9378              1262.1765
 Red. masses --     13.6237                14.6694                14.3879
 Frc consts  --     11.9604                13.2239                13.5048
 IR Inten    --    202.6890               137.0780               511.3056

                     28                     29                     30
                      A                      A                      A
 Frequencies --   1331.1098              1431.7257              3823.2359
 Red. masses --     12.8787                 1.1110                 1.0686
 Frc consts  --     13.4446                 1.3418                 9.2032
 IR Inten    --    139.7488                56.4289                84.7684

 - Thermochemistry -
 -------------------
 Temperature   298.150 Kelvin.  Pressure   1.00000 Atm.
 Atom     1 has atomic number  6 and mass  12.00000

 Molecular mass:   199.95666 amu.
 Principal axes and moments of inertia in atomic units:
                           1         2         3
     Eigenvalues --  1272.584492281.958922543.19497
           X            0.17543   0.49510   0.85094
           Y            0.97018   0.05989  -0.23486
           Z           -0.16724   0.86677  -0.46984
 This molecule is an asymmetric top.
 Rotational symmetry number  1.
 Warning -- assumption of classical behavior for rotation
           may cause significant error
 Rotational temperatures (Kelvin)      0.06806     0.03796     0.03406
 Rotational constants (GHZ):           1.41817     0.79087     0.70964
 Zero-point vibrational energy     130388.5 (Joules/Mol)
                                   31.16360 (Kcal/Mol)
 Warning -- explicit consideration of  17 degrees of freedom as
           vibrations may cause significant error
 Vibrational temperatures:     41.41   101.50   126.32   178.99   247.88
          (Kelvin)            313.27   328.19   418.90   432.80   453.48
                              487.59   523.62   617.50   660.41   696.82
                              786.39   857.72   915.70  1027.39  1096.98
                             1420.51  1431.87  1646.20  1724.98  1756.28
                             1779.68  1815.99  1915.17  2059.93  5500.78

 Zero-point correction=                           0.049662 (Hartree/Particle)
 Thermal correction to Energy=                    0.060883
 Thermal correction to Enthalpy=                  0.061827
 Thermal correction to Gibbs Free Energy=         0.011244
 Sum of electronic and zero-point Energies=          -1199.686977
 Sum of electronic and thermal Energies=             -1199.675757
 Sum of electronic and thermal Enthalpies=           -1199.674812
 Sum of electronic and thermal Free Energies=        -1199.725396

                     E (Thermal)             CV                S
                      KCal/Mol        Cal/Mol-Kelvin    Cal/Mol-Kelvin
 Total                   38.205             38.126            106.462
 Electronic               0.000              0.000              0.000
 Translational            0.889              2.981             41.783
 Rotational               0.889              2.981             30.380
 Vibrational             36.427             32.164             34.299
 Vibration     1          0.593              1.984              5.912
 Vibration     2          0.598              1.968              4.138
 Vibration     3          0.601              1.958              3.709
 Vibration     4          0.610              1.929              3.031
 Vibration     5          0.626              1.877              2.410
 Vibration     6          0.646              1.814              1.978
 Vibration     7          0.651              1.798              1.894
 Vibration     8          0.687              1.690              1.467
 Vibration     9          0.693              1.672              1.412
 Vibration    10          0.703              1.645              1.335
 Vibration    11          0.719              1.598              1.217
 Vibration    12          0.737              1.547              1.105
 Vibration    13          0.791              1.407              0.861
 Vibration    14          0.817              1.341              0.769
 Vibration    15          0.840              1.285              0.699
 Vibration    16          0.902              1.147              0.551
 Vibration    17          0.954              1.040              0.456

 Optimization completed.
    -- Stationary point found.
 Normal termination of Gaussian 16 at Fri May 23 05:24:44 2025.
