 Gaussian 16, Revision C.01,
 Gaussian 16:  ES64L-G16RevC.01  3-Jul-2019

 ----------------------------------------------------------------------
 #P wb97xd/6-311++G(d,p) Symm(None) scf(xqc) pop(None) freq opt(CalcFC,
  Tight)
 ----------------------------------------------------------------------

 ------------------------------
 Gaussian input prepared by ASE
 ------------------------------
 Symbolic Z-matrix:
 Charge =  0 Multiplicity = 1

 SCF Done:  E(RwB97XD) =  -1199.56837434     A.U. after   20 cycles
 SCF Done:  E(RwB97XD) =  -1199.57273962     A.U. after   19 cycles
 SCF Done:  E(RwB97XD) =  -1199.58306036     A.U. after   19 cycles
 SCF Done:  E(RwB97XD) =  -1199.59142048     A.U. after   20 cycles
 SCF Done:  E(RwB97XD) =  -1199.57648401     A.U. after   20 cycles
 SCF Done:  E(RwB97XD) =  -1199.59405017     A.U. after   17 cycles
 SCF Done:  E(RwB97XD) =  -1199.59277221     A.U. after   18 cycles
 SCF Done:  E(RwB97XD) =  -1199.59504924     A.U. after   18 cycles
 SCF Done:  E(RwB97XD) =  -1199.59597874     A.U. after   19 cycles
 SCF Done:  E(RwB97XD) =  -1199.59649719     A.U. after   16 cycles
 SCF Done:  E(RwB97XD) =  -1199.59998139     A.U. after   17 cycles
 SCF Done:  E(RwB97XD) =  -1199.60001211     A.U. after   16 cycles
 SCF Done:  E(RwB97XD) =  -1199.60001423     A.U. after   14 cycles
 SCF Done:  E(RwB97XD) =  -1199.60001463     A.U. after   13 cycles
 SCF Done:  E(RwB97XD) =  -1199.60001470     A.U. after   11 cycles
 SCF Done:  E(RwB97XD) =  -1199.60001471     A.U. after   10 cycles
 SCF Done:  E(RwB97XD) =  -1199.60001471     A.U. after    9 cycles
 SCF Done:  E(RwB97XD) =  -1199.60001471     A.U. after    9 cycles
 SCF Done:  E(RwB97XD) =  -1199.60001471     A.U. after    6 cycles
 Optimization completed.
    -- Stationary point found.
 Normal termination of Gaussian 16 at Fri May 23 07:40:28 2025.

 ----------------------------------------------------------------------
 #P Geom=AllCheck Guess=TCheck SCRF=Check GenChk RwB97XD/6-311++G(d,p)
 Freq
 ----------------------------------------------------------------------

 Structure from the checkpoint file:  "/tmp/Gau-83652.chk"
 ------------------------------
 Gaussian input prepared by ASE
 ------------------------------
 Charge =  0 Multiplicity = 1

                          Input orientation:
 ---------------------------------------------------------------------
 Center     Atomic      Atomic             Coordinates (Angstroms)
 Number     Number       Type             X           Y           Z
 ---------------------------------------------------------------------
      1          6           0       -0.635963    1.018247    1.046771
      2          6           0       -0.037027    0.163104   -0.111581
      3          9           0       -0.548294   -1.052032   -0.107756
      4          9           0       -0.293774    0.747105   -1.337888
      5         16           0        1.859719   -0.067452   -0.030607
      6          8           0       -1.949064    0.967861   -1.597414
      7          8           0        2.207569   -0.701497   -1.294940
      8          8           0        2.047208    1.574364   -0.134346
      9          9           0        0.123010    0.783121    2.134040
     10          9           0       -0.593769    2.304805    0.771583
     11          9           0       -1.871159    0.654107    1.328387
     12          1           0        2.912813    1.821389    0.208825
 ---------------------------------------------------------------------

 SCF Done:  E(RwB97XD) =  -1199.60001471     A.U. after    1 cycles

 Isotropic polarizability for W=    0.000000       63.34 Bohr**3.
 End of Minotr F.D. properties file   721 does not exist.

                      1                      2                      3
                      A                      A                      A
 Frequencies --     62.7704                71.0303                91.2791
 Red. masses --      9.1363                16.3542                15.9739
 Frc consts  --      0.0212                 0.0486                 0.0784
 IR Inten    --      3.9797                 1.1919                 1.0943

                      4                      5                      6
                      A                      A                      A
 Frequencies --    136.4299               145.5572               193.7565
 Red. masses --     12.0776                12.3671                10.4803
 Frc consts  --      0.1324                 0.1544                 0.2318
 IR Inten    --      4.2410                 2.7469                 4.1586

                      7                      8                      9
                      A                      A                      A
 Frequencies --    216.9013               230.0913               256.0706
 Red. masses --      3.0207                 9.8835                 2.6210
 Frc consts  --      0.0837                 0.3083                 0.1013
 IR Inten    --     47.9471                14.5367                45.0156

                     10                     11                     12
                      A                      A                      A
 Frequencies --    272.4768               329.6213               363.6087
 Red. masses --      7.4259                 7.0648                13.4838
 Frc consts  --      0.3248                 0.4523                 1.0503
 IR Inten    --      5.5858                 5.7378                 0.8569

                     13                     14                     15
                      A                      A                      A
 Frequencies --    401.6321               421.2663               458.4164
 Red. masses --     15.6602                16.7407                15.3891
 Frc consts  --      1.4883                 1.7504                 1.9054
 IR Inten    --     13.7965                 4.4287                18.4169

                     16                     17                     18
                      A                      A                      A
 Frequencies --    534.6837               545.5882               593.4500
 Red. masses --     14.4074                17.9924                17.3278
 Frc consts  --      2.4268                 3.1555                 3.5955
 IR Inten    --     91.2268                 7.5717                 9.5476

                     19                     20                     21
                      A                      A                      A
 Frequencies --    636.2551               749.0177               760.7360
 Red. masses --     16.8560                15.7420                17.2222
 Frc consts  --      4.0204                 5.2035                 5.8723
 IR Inten    --     20.8005               107.4798                32.2079

                     22                     23                     24
                      A                      A                      A
 Frequencies --    966.9410              1035.4723              1104.4735
 Red. masses --     10.3482                 6.2687                 1.3133
 Frc consts  --      5.7005                 3.9601                 0.9439
 IR Inten    --     77.3797               220.7296               124.0153

                     25                     26                     27
                      A                      A                      A
 Frequencies --   1174.9042              1228.8522              1251.4606
 Red. masses --     10.3058                13.8602                16.9238
 Frc consts  --      8.3818                12.3316                15.6165
 IR Inten    --    144.7272               114.9194               309.3285

                     28                     29                     30
                      A                      A                      A
 Frequencies --   1282.7423              1345.6125              3868.1228
 Red. masses --     13.1686                12.7895                 1.0673
 Frc consts  --     12.7664                13.6441                 9.4090
 IR Inten    --    283.0793               127.1624               174.2263

 - Thermochemistry -
 -------------------
 Temperature   298.150 Kelvin.  Pressure   1.00000 Atm.
 Atom     1 has atomic number  6 and mass  12.00000

 Molecular mass:   199.95666 amu.
 Principal axes and moments of inertia in atomic units:
                           1         2         3
     Eigenvalues --  1346.366522082.860402454.02341
           X            0.90157   0.40706   0.14655
           Y           -0.28721   0.30980   0.90639
           Z           -0.32355   0.85926  -0.39622
 This molecule is an asymmetric top.
 Rotational symmetry number  1.
 Warning -- assumption of classical behavior for rotation
           may cause significant error
 Rotational temperatures (Kelvin)      0.06433     0.04158     0.03529
 Rotational constants (GHZ):           1.34045     0.86647     0.73542
 Zero-point vibrational energy     123988.3 (Joules/Mol)
                                   29.63391 (Kcal/Mol)
 Warning -- explicit consideration of  18 degrees of freedom as
           vibrations may cause significant error
 Vibrational temperatures:     90.31   102.20   131.33   196.29   209.42
          (Kelvin)            278.77   312.07   331.05   368.43   392.03
                              474.25   523.15   577.86   606.11   659.56
                              769.29   784.98   853.84   915.43  1077.67
                             1094.53  1391.21  1489.81  1589.09  1690.43
                             1768.04  1800.57  1845.58  1936.04  5565.37

 Zero-point correction=                           0.047225 (Hartree/Particle)
 Thermal correction to Energy=                    0.058914
 Thermal correction to Enthalpy=                  0.059859
 Thermal correction to Gibbs Free Energy=         0.009018
 Sum of electronic and zero-point Energies=          -1199.552790
 Sum of electronic and thermal Energies=             -1199.541100
 Sum of electronic and thermal Enthalpies=           -1199.540156
 Sum of electronic and thermal Free Energies=        -1199.590997

                     E (Thermal)             CV                S
                      KCal/Mol        Cal/Mol-Kelvin    Cal/Mol-Kelvin
 Total                   36.969             39.691            107.003
 Electronic               0.000              0.000              0.000
 Translational            0.889              2.981             41.783
 Rotational               0.889              2.981             30.310
 Vibrational             35.192             33.729             34.910
 Vibration     1          0.597              1.972              4.368
 Vibration     2          0.598              1.968              4.125
 Vibration     3          0.602              1.955              3.632
 Vibration     4          0.614              1.917              2.853
 Vibration     5          0.617              1.907              2.730
 Vibration     6          0.635              1.849              2.192
 Vibration     7          0.646              1.815              1.985
 Vibration     8          0.652              1.795              1.878
 Vibration     9          0.666              1.753              1.688
 Vibration    10          0.675              1.724              1.580
 Vibration    11          0.712              1.616              1.262
 Vibration    12          0.737              1.547              1.107
 Vibration    13          0.767              1.467              0.957
 Vibration    14          0.784              1.424              0.888
 Vibration    15          0.816              1.342              0.771
 Vibration    16          0.890              1.173              0.577
 Vibration    17          0.901              1.149              0.553
 Vibration    18          0.951              1.046              0.461

 Optimization completed.
    -- Stationary point found.
 Normal termination of Gaussian 16 at Fri May 23 07:41:53 2025.
