 Gaussian 16, Revision C.01,
 Gaussian 16:  ES64L-G16RevC.01  3-Jul-2019

 ----------------------------------------------------------------------
 #P wb97xd/6-311++G(d,p) Symm(None) scf(xqc) pop(None) opt(NoFreeze,TS,
 CalcAll,NoEigentest,MaxCycle=999)
 ----------------------------------------------------------------------

 ------------------------------
 Gaussian input prepared by ASE
 ------------------------------
 Symbolic Z-matrix:
 Charge =  0 Multiplicity = 1

 SCF Done:  E(RwB97XD) =  -1199.60977478     A.U. after   20 cycles
 SCF Done:  E(RwB97XD) =  -1199.63737919     A.U. after   17 cycles
 SCF Done:  E(RwB97XD) =  -1199.65794455     A.U. after   16 cycles
 SCF Done:  E(RwB97XD) =  -1199.66286610     A.U. after   17 cycles
 SCF Done:  E(RwB97XD) =  -1199.66363476     A.U. after   14 cycles
 SCF Done:  E(RwB97XD) =  -1199.66366836     A.U. after   14 cycles
 SCF Done:  E(RwB97XD) =  -1199.66366963     A.U. after   11 cycles

 Isotropic polarizability for W=    0.000000       72.61 Bohr**3.
 End of Minotr F.D. properties file   721 does not exist.

 Optimization completed.
    -- Stationary point found.

                          Input orientation:
 ---------------------------------------------------------------------
 Center     Atomic      Atomic             Coordinates (Angstroms)
 Number     Number       Type             X           Y           Z
 ---------------------------------------------------------------------
      1          6           0       -0.259696   -1.235749    0.085596
      2          6           0        0.121491    0.107271    0.022792
      3          9           0       -0.100568    0.746701   -1.107174
      4          9           0       -0.123469    0.845033    1.096817
      5         16           0        2.504537   -0.196514    0.010983
      6          8           0        3.299712   -0.320100    1.206081
      7          8           0        2.825626   -0.481755   -1.354068
      8          8           0        2.268227    1.443692   -0.040590
      9          9           0       -0.590124   -1.800056    1.179950
     10          9           0        1.726382   -1.884996    0.315664
     11          9           0       -0.444638   -1.925033   -0.968912
     12          1           0        2.435021    1.794668    0.843573
 ---------------------------------------------------------------------

 ******    1 imaginary frequencies (negative Signs) ******

                      1                      2                      3
                      A                      A                      A
 Frequencies --   -574.7486                32.4709                61.3673
 Red. masses --     12.7210                15.3170                12.1448
 Frc consts  --      2.4759                 0.0095                 0.0269
 IR Inten    --    194.0409                 1.7974                 2.6939

                      4                      5                      6
                      A                      A                      A
 Frequencies --    160.8870               170.2967               203.0311
 Red. masses --     18.7906                17.0802                17.4504
 Frc consts  --      0.2866                 0.2918                 0.4238
 IR Inten    --     16.9891                11.1938                 0.1655

                      7                      8                      9
                      A                      A                      A
 Frequencies --    211.0572               240.2710               274.1101
 Red. masses --     17.4360                15.7259                10.9657
 Frc consts  --      0.4576                 0.5349                 0.4854
 IR Inten    --      1.9693                 3.2238                 8.2333

                     10                     11                     12
                      A                      A                      A
 Frequencies --    318.6868               369.9176               388.5226
 Red. masses --      8.0631                 1.8668                13.3233
 Frc consts  --      0.4825                 0.1505                 1.1849
 IR Inten    --      9.5188                30.4882                16.7438

                     13                     14                     15
                      A                      A                      A
 Frequencies --    406.7757               443.7207               481.1371
 Red. masses --     15.6850                 5.4237                 3.7436
 Frc consts  --      1.5291                 0.6292                 0.5106
 IR Inten    --     27.2256               225.8098                 3.6291

                     16                     17                     18
                      A                      A                      A
 Frequencies --    512.4025               548.3313               559.9069
 Red. masses --     10.2265                16.7484                14.3434
 Frc consts  --      1.5820                 2.9669                 2.6493
 IR Inten    --    240.3804                 1.3710               140.0338

                     19                     20                     21
                      A                      A                      A
 Frequencies --    594.4194               646.3582               717.5692
 Red. masses --     16.5443                13.2607                16.7262
 Frc consts  --      3.4442                 3.2641                 5.0743
 IR Inten    --      4.2593                 9.4296               182.8516

                     22                     23                     24
                      A                      A                      A
 Frequencies --    812.8926              1116.2236              1149.1759
 Red. masses --     17.7512                10.3893                 1.2612
 Frc consts  --      6.9111                 7.6268                 0.9813
 IR Inten    --     59.1065               230.0595                99.0191

                     25                     26                     27
                      A                      A                      A
 Frequencies --   1209.7537              1305.8688              1422.4403
 Red. masses --     13.7579                13.1083                12.3550
 Frc consts  --     11.8631                13.1703                14.7285
 IR Inten    --    321.5089               155.4542               189.8038

                     28                     29                     30
                      A                      A                      A
 Frequencies --   1478.9297              1606.0960              3838.3468
 Red. masses --     13.2362                12.4006                 1.0664
 Frc consts  --     17.0572                18.8468                 9.2565
 IR Inten    --    339.1511               812.7062               165.9459

 - Thermochemistry -
 -------------------
 Temperature   298.150 Kelvin.  Pressure   1.00000 Atm.
 Atom     1 has atomic number  6 and mass  12.00000

 Molecular mass:   199.95666 amu.
 Principal axes and moments of inertia in atomic units:
                           1         2         3
     Eigenvalues --  1312.164322074.092142351.79274
           X            0.93267  -0.36048  -0.01320
           Y            0.36043   0.92983   0.07424
           Z           -0.01449  -0.07400   0.99715
 This molecule is an asymmetric top.
 Rotational symmetry number  1.
 Warning -- assumption of classical behavior for rotation
           may cause significant error
 Rotational temperatures (Kelvin)      0.06601     0.04176     0.03683
 Rotational constants (GHZ):           1.37539     0.87014     0.76739
    1 imaginary frequencies ignored.
 Zero-point vibrational energy     127288.4 (Joules/Mol)
                                   30.42267 (Kcal/Mol)
 Warning -- explicit consideration of  18 degrees of freedom as
           vibrations may cause significant error
 Vibrational temperatures:     46.72    88.29   231.48   245.02   292.12
          (Kelvin)            303.66   345.70   394.38   458.52   532.23
                              559.00   585.26   638.42   692.25   737.23
                              788.93   805.58   855.24   929.97  1032.42
                             1169.57  1606.00  1653.41  1740.57  1878.85
                             2046.57  2127.85  2310.81  5522.52

 Zero-point correction=                           0.048482 (Hartree/Particle)
 Thermal correction to Energy=                    0.059308
 Thermal correction to Enthalpy=                  0.060252
 Thermal correction to Gibbs Free Energy=         0.010989
 Sum of electronic and zero-point Energies=          -1199.615188
 Sum of electronic and thermal Energies=             -1199.604362
 Sum of electronic and thermal Enthalpies=           -1199.603418
 Sum of electronic and thermal Free Energies=        -1199.652681

                     E (Thermal)             CV                S
                      KCal/Mol        Cal/Mol-Kelvin    Cal/Mol-Kelvin
 Total                   37.216             37.604            103.683
 Electronic               0.000              0.000              0.000
 Translational            0.889              2.981             41.783
 Rotational               0.889              2.981             30.238
 Vibrational             35.439             31.643             31.661
 Vibration     1          0.594              1.983              5.672
 Vibration     2          0.597              1.973              4.413
 Vibration     3          0.622              1.890              2.539
 Vibration     4          0.625              1.879              2.432
 Vibration     5          0.639              1.836              2.105
 Vibration     6          0.643              1.824              2.035
 Vibration     7          0.657              1.779              1.801
 Vibration     8          0.676              1.721              1.570
 Vibration     9          0.705              1.638              1.317
 Vibration    10          0.742              1.534              1.080
 Vibration    11          0.757              1.495              1.006
 Vibration    12          0.772              1.455              0.938
 Vibration    13          0.803              1.375              0.815
 Vibration    14          0.837              1.292              0.707
 Vibration    15          0.867              1.223              0.628
 Vibration    16          0.904              1.143              0.548
 Vibration    17          0.916              1.118              0.524
 Vibration    18          0.952              1.044              0.459

 Normal termination of Gaussian 16 at Fri May 23 05:03:08 2025.
