 Gaussian 16, Revision C.01,
 Gaussian 16:  ES64L-G16RevC.01  3-Jul-2019

 ----------------------------------------------------------------------
 #P wb97xd/6-311++G(d,p) Symm(None) scf(xqc) pop(None) freq opt(CalcFC,
  Tight)
 ----------------------------------------------------------------------

 ------------------------------
 Gaussian input prepared by ASE
 ------------------------------
 Symbolic Z-matrix:
 Charge =  0 Multiplicity = 1

 SCF Done:  E(RwB97XD) =  -1199.71250105     A.U. after   16 cycles
 SCF Done:  E(RwB97XD) =  -1199.71717962     A.U. after   15 cycles
 SCF Done:  E(RwB97XD) =  -1199.73165497     A.U. after   16 cycles
 SCF Done:  E(RwB97XD) =  -1199.68685540     A.U. after   16 cycles
 SCF Done:  E(RwB97XD) =  -1199.73294030     A.U. after   16 cycles
 SCF Done:  E(RwB97XD) =  -1199.73413630     A.U. after   16 cycles
 SCF Done:  E(RwB97XD) =  -1199.73406720     A.U. after   14 cycles
 SCF Done:  E(RwB97XD) =  -1199.73471727     A.U. after   14 cycles
 SCF Done:  E(RwB97XD) =  -1199.73487189     A.U. after   13 cycles
 SCF Done:  E(RwB97XD) =  -1199.73496797     A.U. after   12 cycles
 SCF Done:  E(RwB97XD) =  -1199.73527100     A.U. after   13 cycles
 SCF Done:  E(RwB97XD) =  -1199.73555472     A.U. after   12 cycles
 SCF Done:  E(RwB97XD) =  -1199.73557698     A.U. after   13 cycles
 SCF Done:  E(RwB97XD) =  -1199.73558702     A.U. after   13 cycles
 SCF Done:  E(RwB97XD) =  -1199.73558871     A.U. after   11 cycles
 SCF Done:  E(RwB97XD) =  -1199.73558883     A.U. after    8 cycles
 SCF Done:  E(RwB97XD) =  -1199.73558883     A.U. after    8 cycles
 SCF Done:  E(RwB97XD) =  -1199.73558883     A.U. after    5 cycles
 SCF Done:  E(RwB97XD) =  -1199.73558883     A.U. after    5 cycles
 Optimization completed.
    -- Stationary point found.
 Normal termination of Gaussian 16 at Fri May 23 05:24:18 2025.

 ----------------------------------------------------------------------
 #P Geom=AllCheck Guess=TCheck SCRF=Check GenChk RwB97XD/6-311++G(d,p)
 Freq
 ----------------------------------------------------------------------

 Structure from the checkpoint file:  "/tmp/Gau-188108.chk"
 ------------------------------
 Gaussian input prepared by ASE
 ------------------------------
 Charge =  0 Multiplicity = 1

                          Input orientation:
 ---------------------------------------------------------------------
 Center     Atomic      Atomic             Coordinates (Angstroms)
 Number     Number       Type             X           Y           Z
 ---------------------------------------------------------------------
      1          6           0        0.726147    3.702232    1.811231
      2          6           0        0.488325    3.869766    0.285744
      3          9           0       -0.371284    4.884086    0.100568
      4          9           0        1.629940    4.148177   -0.331097
      5         16           0       -0.375714    2.387810   -0.565143
      6          8           0        0.436922    0.059042   -0.087376
      7          8           0       -0.240915    2.666691   -1.987817
      8          8           0        0.896322    1.404280   -0.022898
      9          9           0       -0.327886    3.075441    2.351044
     10          9           0        1.816617    2.995778    2.060332
     11          9           0        0.848982    4.891615    2.388903
     12          1           0        0.428986   -0.178666    0.847995
 ---------------------------------------------------------------------

 SCF Done:  E(RwB97XD) =  -1199.73558883     A.U. after    1 cycles

 Isotropic polarizability for W=    0.000000       61.20 Bohr**3.
 End of Minotr F.D. properties file   721 does not exist.

                      1                      2                      3
                      A                      A                      A
 Frequencies --     30.9024                58.5242                75.5242
 Red. masses --     11.3024                17.0075                 7.2320
 Frc consts  --      0.0064                 0.0343                 0.0243
 IR Inten    --      2.3301                 1.5991                 5.4167

                      4                      5                      6
                      A                      A                      A
 Frequencies --    132.2270               172.6333               227.4608
 Red. masses --     16.4094                16.5905                17.9295
 Frc consts  --      0.1690                 0.2913                 0.5466
 IR Inten    --      2.9255                 5.6532                 0.4229

                      7                      8                      9
                      A                      A                      A
 Frequencies --    232.4974               265.6125               289.6365
 Red. masses --     17.0063                 6.6860                 1.7780
 Frc consts  --      0.5416                 0.2779                 0.0879
 IR Inten    --      1.6134                 6.6100                81.3071

                     10                     11                     12
                      A                      A                      A
 Frequencies --    309.0553               315.7339               369.3037
 Red. masses --      3.6443                13.9355                17.4358
 Frc consts  --      0.2051                 0.8185                 1.4011
 IR Inten    --     18.2326                 0.9000                 0.1603

                     13                     14                     15
                      A                      A                      A
 Frequencies --    413.1950               433.1783               509.8831
 Red. masses --     11.0841                17.8511                16.4382
 Frc consts  --      1.1150                 1.9736                 2.5179
 IR Inten    --     33.3224                12.0525                35.5882

                     16                     17                     18
                      A                      A                      A
 Frequencies --    546.8940               592.7931               655.0337
 Red. masses --     18.3408                17.6970                17.5784
 Frc consts  --      3.2320                 3.6640                 4.4438
 IR Inten    --      0.4188                 1.7052                16.6626

                     19                     20                     21
                      A                      A                      A
 Frequencies --    708.1462               758.6423               969.5192
 Red. masses --     17.5016                17.2776                13.4289
 Frc consts  --      5.1710                 5.8588                 7.4371
 IR Inten    --     91.6686                15.5262               107.6370

                     22                     23                     24
                      A                      A                      A
 Frequencies --    993.0681              1145.9108              1209.3696
 Red. masses --     14.8795                13.6872                13.1551
 Frc consts  --      8.6457                10.5892                11.3360
 IR Inten    --      6.6407               154.6552               296.2233

                     25                     26                     27
                      A                      A                      A
 Frequencies --   1221.7167              1246.8034              1255.2326
 Red. masses --     13.0818                14.8348                15.9020
 Frc consts  --     11.5042                13.5871                14.7622
 IR Inten    --     86.3036               254.5646               317.2136

                     28                     29                     30
                      A                      A                      A
 Frequencies --   1350.5375              1425.4693              3830.8146
 Red. masses --     12.7819                 1.1101                 1.0687
 Frc consts  --     13.7359                 1.3290                 9.2406
 IR Inten    --    129.7404                61.0314                78.1478

 - Thermochemistry -
 -------------------
 Temperature   298.150 Kelvin.  Pressure   1.00000 Atm.
 Atom     1 has atomic number  6 and mass  12.00000

 Molecular mass:   199.95666 amu.
 Principal axes and moments of inertia in atomic units:
                           1         2         3
     Eigenvalues --  1286.960002158.587772713.08359
           X            0.16972  -0.23750   0.95645
           Y            0.70209   0.71021   0.05177
           Z            0.69157  -0.66272  -0.28728
 This molecule is an asymmetric top.
 Rotational symmetry number  1.
 Warning -- assumption of classical behavior for rotation
           may cause significant error
 Rotational temperatures (Kelvin)      0.06730     0.04013     0.03192
 Rotational constants (GHZ):           1.40233     0.83607     0.66520
 Zero-point vibrational energy     130065.9 (Joules/Mol)
                                   31.08649 (Kcal/Mol)
 Warning -- explicit consideration of  17 degrees of freedom as
           vibrations may cause significant error
 Vibrational temperatures:     44.46    84.20   108.66   190.25   248.38
          (Kelvin)            327.27   334.51   382.16   416.72   444.66
                              454.27   531.35   594.50   623.25   733.61
                              786.86   852.90   942.45  1018.86  1091.52
                             1394.92  1428.80  1648.71  1740.01  1757.78
                             1793.87  1806.00  1943.12  2050.93  5511.69

 Zero-point correction=                           0.049539 (Hartree/Particle)
 Thermal correction to Energy=                    0.060861
 Thermal correction to Enthalpy=                  0.061805
 Thermal correction to Gibbs Free Energy=         0.010882
 Sum of electronic and zero-point Energies=          -1199.686049
 Sum of electronic and thermal Energies=             -1199.674728
 Sum of electronic and thermal Enthalpies=           -1199.673784
 Sum of electronic and thermal Free Energies=        -1199.724707

                     E (Thermal)             CV                S
                      KCal/Mol        Cal/Mol-Kelvin    Cal/Mol-Kelvin
 Total                   38.191             38.250            107.177
 Electronic               0.000              0.000              0.000
 Translational            0.889              2.981             41.783
 Rotational               0.889              2.981             30.400
 Vibrational             36.413             32.288             34.993
 Vibration     1          0.594              1.984              5.771
 Vibration     2          0.596              1.974              4.506
 Vibration     3          0.599              1.965              4.004
 Vibration     4          0.612              1.921              2.913
 Vibration     5          0.626              1.876              2.407
 Vibration     6          0.651              1.799              1.899
 Vibration     7          0.653              1.791              1.860
 Vibration     8          0.671              1.736              1.625
 Vibration     9          0.686              1.693              1.476
 Vibration    10          0.698              1.656              1.367
 Vibration    11          0.703              1.644              1.332
 Vibration    12          0.742              1.535              1.083
 Vibration    13          0.777              1.442              0.915
 Vibration    14          0.794              1.398              0.848
 Vibration    15          0.865              1.228              0.634
 Vibration    16          0.902              1.146              0.551
 Vibration    17          0.950              1.047              0.462

 Optimization completed.
    -- Stationary point found.
 Normal termination of Gaussian 16 at Fri May 23 05:25:35 2025.
