 Gaussian 16, Revision C.01,
 Gaussian 16:  ES64L-G16RevC.01  3-Jul-2019

 ----------------------------------------------------------------------
 #P wb97xd/6-311++G(d,p) Symm(None) scf(xqc) pop(None) opt(NoFreeze,TS,
 CalcAll,NoEigentest,MaxCycle=999)
 ----------------------------------------------------------------------

 ------------------------------
 Gaussian input prepared by ASE
 ------------------------------
 Symbolic Z-matrix:
 Charge =  0 Multiplicity = 1

 SCF Done:  E(RwB97XD) =  -1199.61648203     A.U. after   20 cycles
 SCF Done:  E(RwB97XD) =  -1199.64203169     A.U. after   17 cycles
 SCF Done:  E(RwB97XD) =  -1199.65986604     A.U. after   16 cycles
 SCF Done:  E(RwB97XD) =  -1199.66251776     A.U. after   17 cycles
 SCF Done:  E(RwB97XD) =  -1199.66345248     A.U. after   14 cycles
 SCF Done:  E(RwB97XD) =  -1199.66309587     A.U. after   17 cycles
 SCF Done:  E(RwB97XD) =  -1199.66363701     A.U. after   15 cycles
 SCF Done:  E(RwB97XD) =  -1199.66366600     A.U. after   14 cycles
 SCF Done:  E(RwB97XD) =  -1199.66366944     A.U. after   13 cycles
 SCF Done:  E(RwB97XD) =  -1199.66366946     A.U. after   10 cycles

 Isotropic polarizability for W=    0.000000       72.61 Bohr**3.
 End of Minotr F.D. properties file   721 does not exist.

 Optimization completed.
    -- Stationary point found.

                          Input orientation:
 ---------------------------------------------------------------------
 Center     Atomic      Atomic             Coordinates (Angstroms)
 Number     Number       Type             X           Y           Z
 ---------------------------------------------------------------------
      1          6           0       -0.199404   -1.283770    0.032906
      2          6           0        0.166557    0.064897    0.025838
      3          9           0       -0.076860    0.751850   -1.071346
      4          9           0       -0.072323    0.750934    1.134957
      5         16           0        2.552416   -0.211070   -0.028726
      6          8           0        3.362387   -0.379703    1.150815
      7          8           0        2.860578   -0.430216   -1.408889
      8          8           0        2.297850    1.427046   -0.003175
      9          9           0       -0.508762   -1.900394    1.104945
     10          9           0        1.796601   -1.920560    0.206834
     11          9           0       -0.391255   -1.927020   -1.049086
     12          1           0        2.470850    1.739511    0.894142
 ---------------------------------------------------------------------

 ******    1 imaginary frequencies (negative Signs) ******

                      1                      2                      3
                      A                      A                      A
 Frequencies --   -574.7156                32.7284                61.8220
 Red. masses --     12.7045                15.1988                12.1250
 Frc consts  --      2.4724                 0.0096                 0.0273
 IR Inten    --    193.8727                 1.8078                 2.7104

                      4                      5                      6
                      A                      A                      A
 Frequencies --    160.5688               170.1704               202.7460
 Red. masses --     18.7813                17.0524                17.4152
 Frc consts  --      0.2853                 0.2909                 0.4218
 IR Inten    --     17.3625                10.8768                 0.1662

                      7                      8                      9
                      A                      A                      A
 Frequencies --    210.9257               240.0568               273.7000
 Red. masses --     17.3986                15.5161                10.8160
 Frc consts  --      0.4561                 0.5268                 0.4774
 IR Inten    --      1.9458                 3.2697                 8.3899

                     10                     11                     12
                      A                      A                      A
 Frequencies --    317.7067               367.0002               388.4767
 Red. masses --      7.4486                 1.8336                14.2005
 Frc consts  --      0.4430                 0.1455                 1.2627
 IR Inten    --      8.8545                28.9699                17.8559

                     13                     14                     15
                      A                      A                      A
 Frequencies --    406.8260               443.3541               480.6575
 Red. masses --     15.6676                 5.6121                 3.8497
 Frc consts  --      1.5278                 0.6500                 0.5240
 IR Inten    --     27.0170               229.5386                 3.4728

                     16                     17                     18
                      A                      A                      A
 Frequencies --    512.0851               548.2878               560.2460
 Red. masses --     10.6717                16.7508                14.4113
 Frc consts  --      1.6488                 2.9669                 2.6651
 IR Inten    --    239.6983                 1.3589               138.4067

                     19                     20                     21
                      A                      A                      A
 Frequencies --    594.4534               646.0229               717.2679
 Red. masses --     16.5663                13.2747                16.7676
 Frc consts  --      3.4492                 3.2642                 5.0826
 IR Inten    --      4.2968                 9.3513               183.5306

                     22                     23                     24
                      A                      A                      A
 Frequencies --    812.8746              1117.2694              1148.0755
 Red. masses --     17.7520                 9.7642                 1.2699
 Frc consts  --      6.9111                 7.1813                 0.9862
 IR Inten    --     59.1684               227.9400               100.4722

                     25                     26                     27
                      A                      A                      A
 Frequencies --   1209.7612              1305.6612              1424.5026
 Red. masses --     13.7621                13.1141                12.4980
 Frc consts  --     11.8668                13.1719                14.9423
 IR Inten    --    321.7006               155.8687               187.3817

                     28                     29                     30
                      A                      A                      A
 Frequencies --   1479.0204              1606.0927              3836.9620
 Red. masses --     13.2372                12.4009                 1.0664
 Frc consts  --     17.0606                18.8471                 9.2498
 IR Inten    --    341.3968               812.6895               165.8759

 - Thermochemistry -
 -------------------
 Temperature   298.150 Kelvin.  Pressure   1.00000 Atm.
 Atom     1 has atomic number  6 and mass  12.00000

 Molecular mass:   199.95666 amu.
 Principal axes and moments of inertia in atomic units:
                           1         2         3
     Eigenvalues --  1312.274132074.042992351.70843
           X            0.92846  -0.37143  -0.00117
           Y            0.37131   0.92806   0.02891
           Z           -0.00966  -0.02728   0.99958
 This molecule is an asymmetric top.
 Rotational symmetry number  1.
 Warning -- assumption of classical behavior for rotation
           may cause significant error
 Rotational temperatures (Kelvin)      0.06600     0.04176     0.03683
 Rotational constants (GHZ):           1.37528     0.87016     0.76742
    1 imaginary frequencies ignored.
 Zero-point vibrational energy     127254.7 (Joules/Mol)
                                   30.41460 (Kcal/Mol)
 Warning -- explicit consideration of  18 degrees of freedom as
           vibrations may cause significant error
 Vibrational temperatures:     47.09    88.95   231.02   244.84   291.71
          (Kelvin)            303.48   345.39   393.79   457.11   528.03
                              558.93   585.33   637.89   691.56   736.78
                              788.86   806.07   855.29   929.48  1031.99
                             1169.55  1607.50  1651.82  1740.58  1878.56
                             2049.54  2127.98  2310.81  5520.53

 Zero-point correction=                           0.048469 (Hartree/Particle)
 Thermal correction to Energy=                    0.059301
 Thermal correction to Enthalpy=                  0.060245
 Thermal correction to Gibbs Free Energy=         0.010981
 Sum of electronic and zero-point Energies=          -1199.615201
 Sum of electronic and thermal Energies=             -1199.604368
 Sum of electronic and thermal Enthalpies=           -1199.603424
 Sum of electronic and thermal Free Energies=        -1199.652689

                     E (Thermal)             CV                S
                      KCal/Mol        Cal/Mol-Kelvin    Cal/Mol-Kelvin
 Total                   37.212             37.617            103.686
 Electronic               0.000              0.000              0.000
 Translational            0.889              2.981             41.783
 Rotational               0.889              2.981             30.238
 Vibrational             35.434             31.655             31.664
 Vibration     1          0.594              1.983              5.657
 Vibration     2          0.597              1.973              4.398
 Vibration     3          0.622              1.891              2.543
 Vibration     4          0.625              1.879              2.434
 Vibration     5          0.639              1.836              2.108
 Vibration     6          0.643              1.824              2.036
 Vibration     7          0.657              1.779              1.802
 Vibration     8          0.676              1.722              1.573
 Vibration     9          0.704              1.640              1.322
 Vibration    10          0.740              1.540              1.092
 Vibration    11          0.757              1.495              1.006
 Vibration    12          0.772              1.455              0.938
 Vibration    13          0.803              1.376              0.816
 Vibration    14          0.837              1.293              0.708
 Vibration    15          0.867              1.223              0.629
 Vibration    16          0.904              1.143              0.548
 Vibration    17          0.916              1.117              0.523
 Vibration    18          0.952              1.044              0.459

 Normal termination of Gaussian 16 at Fri May 23 05:06:59 2025.
