 Gaussian 16, Revision C.01,
 Gaussian 16:  ES64L-G16RevC.01  3-Jul-2019

 ----------------------------------------------------------------------
 #P wb97xd/6-311++G(d,p) Symm(None) scf(xqc) pop(None) freq opt(CalcFC,
  Tight)
 ----------------------------------------------------------------------

 ------------------------------
 Gaussian input prepared by ASE
 ------------------------------
 Symbolic Z-matrix:
 Charge =  0 Multiplicity = 1

 SCF Done:  E(RwB97XD) =  -1199.82128125     A.U. after   14 cycles
 SCF Done:  E(RwB97XD) =  -1199.82415919     A.U. after   14 cycles
 SCF Done:  E(RwB97XD) =  -1199.80919852     A.U. after   13 cycles
 SCF Done:  E(RwB97XD) =  -1199.82462503     A.U. after   12 cycles
 SCF Done:  E(RwB97XD) =  -1199.82517158     A.U. after   14 cycles
 SCF Done:  E(RwB97XD) =  -1199.82536316     A.U. after   14 cycles
 SCF Done:  E(RwB97XD) =  -1199.82577676     A.U. after   12 cycles
 SCF Done:  E(RwB97XD) =  -1199.82596359     A.U. after   12 cycles
 SCF Done:  E(RwB97XD) =  -1199.82597234     A.U. after   11 cycles
 SCF Done:  E(RwB97XD) =  -1199.82598155     A.U. after   11 cycles
 SCF Done:  E(RwB97XD) =  -1199.82598204     A.U. after    9 cycles
 SCF Done:  E(RwB97XD) =  -1199.82598208     A.U. after    8 cycles
 SCF Done:  E(RwB97XD) =  -1199.82598209     A.U. after    6 cycles
 Optimization completed.
    -- Stationary point found.
 Normal termination of Gaussian 16 at Fri May 23 01:57:42 2025.

 ----------------------------------------------------------------------
 #P Geom=AllCheck Guess=TCheck SCRF=Check GenChk RwB97XD/6-311++G(d,p)
 Freq
 ----------------------------------------------------------------------

 Structure from the checkpoint file:  "/tmp/Gau-2940.chk"
 ------------------------------
 Gaussian input prepared by ASE
 ------------------------------
 Charge =  0 Multiplicity = 1

                          Input orientation:
 ---------------------------------------------------------------------
 Center     Atomic      Atomic             Coordinates (Angstroms)
 Number     Number       Type             X           Y           Z
 ---------------------------------------------------------------------
      1          6           0       -0.654176    0.970539   -1.062316
      2          6           0        0.082570    0.111118    0.004418
      3          9           0       -0.216868    0.578231    1.223969
      4          9           0       -0.329190   -1.150962   -0.096523
      5         16           0        1.954296    0.086335   -0.132249
      6          8           0        2.398278   -0.897099    0.814516
      7          8           0        2.306318    0.076190   -1.516063
      8          8           0        2.295391    1.547027    0.428495
      9          9           0       -0.170014    2.206619   -1.078112
     10          9           0       -0.527354    0.430273   -2.262804
     11          9           0       -1.946311    1.021352   -0.747625
     12          1           0        2.385467    1.525181    1.390285
 ---------------------------------------------------------------------

 SCF Done:  E(RwB97XD) =  -1199.82598209     A.U. after    1 cycles

 Isotropic polarizability for W=    0.000000       55.77 Bohr**3.
 End of Minotr F.D. properties file   721 does not exist.

                      1                      2                      3
                      A                      A                      A
 Frequencies --     46.1620                67.5213               131.4637
 Red. masses --     13.0667                16.2443                16.7141
 Frc consts  --      0.0164                 0.0436                 0.1702
 IR Inten    --      2.0034                 0.3719                 0.7454

                      4                      5                      6
                      A                      A                      A
 Frequencies --    190.1596               223.5490               239.4374
 Red. masses --      5.6818                17.2473                14.6982
 Frc consts  --      0.1211                 0.5078                 0.4965
 IR Inten    --     13.8537                 1.2913                 7.4615

                      7                      8                      9
                      A                      A                      A
 Frequencies --    276.3589               310.9949               316.7478
 Red. masses --     12.3060                15.7180                 5.5551
 Frc consts  --      0.5538                 0.8957                 0.3284
 IR Inten    --      0.8240                 0.6026                12.2590

                     10                     11                     12
                      A                      A                      A
 Frequencies --    344.4138               374.1893               436.2701
 Red. masses --      2.0029                 7.3358                11.8893
 Frc consts  --      0.1400                 0.6052                 1.3333
 IR Inten    --     53.8953                 8.3699                16.3735

                     13                     14                     15
                      A                      A                      A
 Frequencies --    458.2765               510.1999               537.9892
 Red. masses --      4.3347                14.2991                17.9971
 Frc consts  --      0.5364                 2.1930                 3.0690
 IR Inten    --     36.2577                13.2639                23.5175

                     16                     17                     18
                      A                      A                      A
 Frequencies --    600.5926               609.0785               654.2933
 Red. masses --     17.4343                20.2599                17.1095
 Frc consts  --      3.7052                 4.4283                 4.3155
 IR Inten    --      4.0478               120.1518                25.0638

                     19                     20                     21
                      A                      A                      A
 Frequencies --    765.0467               834.2517              1005.9893
 Red. masses --     17.1763                17.4212                13.5156
 Frc consts  --      5.9232                 7.1437                 8.0588
 IR Inten    --     20.1614               195.4128               113.3559

                     22                     23                     24
                      A                      A                      A
 Frequencies --   1131.6822              1152.8231              1205.8609
 Red. masses --      1.1912                14.0924                13.8847
 Frc consts  --      0.8988                11.0347                11.8955
 IR Inten    --     90.5409               133.1876                48.1412

                     25                     26                     27
                      A                      A                      A
 Frequencies --   1224.1837              1234.7710              1260.5759
 Red. masses --     13.9502                13.3214                13.2870
 Frc consts  --     12.3175                11.9667                12.4398
 IR Inten    --    194.5081               217.4863               395.1614

                     28                     29                     30
                      A                      A                      A
 Frequencies --   1345.2798              1442.6050              3833.3132
 Red. masses --     12.6784                14.0993                 1.0663
 Frc consts  --     13.5189                17.2879                 9.2314
 IR Inten    --     96.6919               293.6604               164.0795

 - Thermochemistry -
 -------------------
 Temperature   298.150 Kelvin.  Pressure   1.00000 Atm.
 Atom     1 has atomic number  6 and mass  12.00000

 Molecular mass:   199.95666 amu.
 Principal axes and moments of inertia in atomic units:
                           1         2         3
     Eigenvalues --  1146.374122162.613572302.19011
           X            0.90925  -0.41620  -0.00589
           Y           -0.25390  -0.56578   0.78449
           Z            0.32984   0.71180   0.62011
 This molecule is an asymmetric top.
 Rotational symmetry number  1.
 Warning -- assumption of classical behavior for rotation
           may cause significant error
 Rotational temperatures (Kelvin)      0.07555     0.04005     0.03762
 Rotational constants (GHZ):           1.57430     0.83452     0.78392
 Zero-point vibrational energy     136159.4 (Joules/Mol)
                                   32.54289 (Kcal/Mol)
 Warning -- explicit consideration of  17 degrees of freedom as
           vibrations may cause significant error
 Vibrational temperatures:     66.42    97.15   189.15   273.60   321.64
          (Kelvin)            344.50   397.62   447.45   455.73   495.53
                              538.37   627.70   659.36   734.06   774.05
                              864.12   876.33   941.38  1100.73  1200.30
                             1447.39  1628.24  1658.66  1734.96  1761.33
                             1776.56  1813.69  1935.56  2075.59  5515.28

 Zero-point correction=                           0.051860 (Hartree/Particle)
 Thermal correction to Energy=                    0.062278
 Thermal correction to Enthalpy=                  0.063222
 Thermal correction to Gibbs Free Energy=         0.015068
 Sum of electronic and zero-point Energies=          -1199.774122
 Sum of electronic and thermal Energies=             -1199.763704
 Sum of electronic and thermal Enthalpies=           -1199.762760
 Sum of electronic and thermal Free Energies=        -1199.810914

                     E (Thermal)             CV                S
                      KCal/Mol        Cal/Mol-Kelvin    Cal/Mol-Kelvin
 Total                   39.080             36.613            101.348
 Electronic               0.000              0.000              0.000
 Translational            0.889              2.981             41.783
 Rotational               0.889              2.981             30.124
 Vibrational             37.303             30.652             29.441
 Vibration     1          0.595              1.979              4.975
 Vibration     2          0.598              1.970              4.224
 Vibration     3          0.612              1.922              2.925
 Vibration     4          0.633              1.853              2.226
 Vibration     5          0.649              1.805              1.930
 Vibration     6          0.657              1.780              1.807
 Vibration     7          0.678              1.717              1.556
 Vibration     8          0.700              1.653              1.357
 Vibration     9          0.704              1.642              1.327
 Vibration    10          0.723              1.587              1.192
 Vibration    11          0.745              1.525              1.063
 Vibration    12          0.797              1.391              0.838
 Vibration    13          0.816              1.343              0.771
 Vibration    14          0.865              1.227              0.633
 Vibration    15          0.893              1.166              0.570
 Vibration    16          0.959              1.031              0.449
 Vibration    17          0.968              1.013              0.434

 Optimization completed.
    -- Stationary point found.
 Normal termination of Gaussian 16 at Fri May 23 01:59:00 2025.
