 Gaussian 16, Revision C.01,
 Gaussian 16:  ES64L-G16RevC.01  3-Jul-2019

 ----------------------------------------------------------------------
 #P wb97xd/6-311++G(d,p) Symm(None) scf(xqc) pop(None) freq opt(CalcFC,
  Tight)
 ----------------------------------------------------------------------

 ------------------------------
 Gaussian input prepared by ASE
 ------------------------------
 Symbolic Z-matrix:
 Charge =  0 Multiplicity = 1

 SCF Done:  E(RwB97XD) =  -1199.59830963     A.U. after   17 cycles
 SCF Done:  E(RwB97XD) =  -1199.60929268     A.U. after   15 cycles
 SCF Done:  E(RwB97XD) =  -1199.60924774     A.U. after   14 cycles
 SCF Done:  E(RwB97XD) =  -1199.61192505     A.U. after   14 cycles
 SCF Done:  E(RwB97XD) =  -1199.61211119     A.U. after   13 cycles
 SCF Done:  E(RwB97XD) =  -1199.61215644     A.U. after   13 cycles
 SCF Done:  E(RwB97XD) =  -1199.61216309     A.U. after   12 cycles
 SCF Done:  E(RwB97XD) =  -1199.61216538     A.U. after   11 cycles
 SCF Done:  E(RwB97XD) =  -1199.61216570     A.U. after   10 cycles
 SCF Done:  E(RwB97XD) =  -1199.61216575     A.U. after    9 cycles
 SCF Done:  E(RwB97XD) =  -1199.61216577     A.U. after    8 cycles
 SCF Done:  E(RwB97XD) =  -1199.61216577     A.U. after    7 cycles
 SCF Done:  E(RwB97XD) =  -1199.61216577     A.U. after    8 cycles
 SCF Done:  E(RwB97XD) =  -1199.61216577     A.U. after    7 cycles
 Optimization completed.
    -- Stationary point found.
 Normal termination of Gaussian 16 at Fri May 23 05:19:30 2025.

 ----------------------------------------------------------------------
 #P Geom=AllCheck Guess=TCheck SCRF=Check GenChk RwB97XD/6-311++G(d,p)
 Freq
 ----------------------------------------------------------------------

 Structure from the checkpoint file:  "/tmp/Gau-139758.chk"
 ------------------------------
 Gaussian input prepared by ASE
 ------------------------------
 Charge =  0 Multiplicity = 1

                          Input orientation:
 ---------------------------------------------------------------------
 Center     Atomic      Atomic             Coordinates (Angstroms)
 Number     Number       Type             X           Y           Z
 ---------------------------------------------------------------------
      1          6           0        2.553231    0.085581   -2.565698
      2          6           0        2.564549   -0.581436   -1.224070
      3          9           0       -0.448054    0.954685    0.836589
      4          9           0        2.832075   -1.894803   -1.253497
      5         16           0        1.831056   -0.057149    0.121525
      6          8           0        0.187892    0.148928   -0.197917
      7          8           0        1.983360   -0.836006    1.309082
      8          8           0        2.213877    1.467836    0.258815
      9          9           0        2.120926    1.346698   -2.489242
     10          9           0        3.782563    0.094595   -3.091406
     11          9           0        1.766047   -0.570702   -3.428019
     12          1           0        1.460954    1.992454    0.577696
 ---------------------------------------------------------------------

 SCF Done:  E(RwB97XD) =  -1199.61216577     A.U. after    1 cycles

 Isotropic polarizability for W=    0.000000       66.71 Bohr**3.
 End of Minotr F.D. properties file   721 does not exist.

                      1                      2                      3
                      A                      A                      A
 Frequencies --     33.6827                54.1819               116.9208
 Red. masses --     17.7074                15.8755                15.4038
 Frc consts  --      0.0118                 0.0275                 0.1241
 IR Inten    --      0.1018                 1.2478                 0.6462

                      4                      5                      6
                      A                      A                      A
 Frequencies --    123.7209               161.6359               192.0220
 Red. masses --     13.9997                 9.5829                15.1853
 Frc consts  --      0.1263                 0.1475                 0.3299
 IR Inten    --      2.3544                 4.5341                 0.1553

                      7                      8                      9
                      A                      A                      A
 Frequencies --    243.0465               256.8328               313.8545
 Red. masses --     12.1806                15.7612                 6.1000
 Frc consts  --      0.4239                 0.6125                 0.3540
 IR Inten    --      3.1861                 4.9508                14.0452

                     10                     11                     12
                      A                      A                      A
 Frequencies --    334.3035               366.1685               425.3390
 Red. masses --     13.9612                 1.4838                12.8256
 Frc consts  --      0.9193                 0.1172                 1.3671
 IR Inten    --      3.6892                62.3533                14.2342

                     13                     14                     15
                      A                      A                      A
 Frequencies --    433.7758               455.1350               466.0980
 Red. masses --     15.7010                 5.2437                15.6290
 Frc consts  --      1.7406                 0.6400                 2.0005
 IR Inten    --      0.8226                64.7022                 8.3520

                     16                     17                     18
                      A                      A                      A
 Frequencies --    529.2763               588.6920               603.1965
 Red. masses --     17.2456                16.4406                16.6321
 Frc consts  --      2.8464                 3.3569                 3.5654
 IR Inten    --     22.2716                 3.7345                 2.3971

                     19                     20                     21
                      A                      A                      A
 Frequencies --    617.6837               757.0848               766.0068
 Red. masses --     10.2087                17.2077                15.5528
 Frc consts  --      2.2948                 5.8112                 5.3768
 IR Inten    --    183.7650               107.0399                82.7314

                     22                     23                     24
                      A                      A                      A
 Frequencies --    877.9722              1088.2257              1164.0758
 Red. masses --     17.7794                 6.4524                 1.6471
 Frc consts  --      8.0748                 4.5021                 1.3150
 IR Inten    --    209.6177               166.4176               276.0122

                     25                     26                     27
                      A                      A                      A
 Frequencies --   1170.5348              1209.8163              1285.1581
 Red. masses --      4.4428                12.3113                14.1764
 Frc consts  --      3.5865                10.6168                13.7952
 IR Inten    --    152.6782               328.7606                23.0325

                     28                     29                     30
                      A                      A                      A
 Frequencies --   1349.9337              1386.8296              3743.5759
 Red. masses --     11.8667                16.7800                 1.0655
 Frc consts  --     12.7410                19.0146                 8.7983
 IR Inten    --    415.6266               258.5698               131.4244

 - Thermochemistry -
 -------------------
 Temperature   298.150 Kelvin.  Pressure   1.00000 Atm.
 Atom     1 has atomic number  6 and mass  12.00000

 Molecular mass:   199.95666 amu.
 Principal axes and moments of inertia in atomic units:
                           1         2         3
     Eigenvalues --  1134.490892567.566622909.95408
           X           -0.48557  -0.46829   0.73819
           Y            0.13511   0.79408   0.59261
           Z            0.86370  -0.38749   0.32231
 This molecule is an asymmetric top.
 Rotational symmetry number  1.
 Warning -- assumption of classical behavior for rotation
           may cause significant error
 Rotational temperatures (Kelvin)      0.07635     0.03373     0.02976
 Rotational constants (GHZ):           1.59079     0.70290     0.62020
 Zero-point vibrational energy     126294.4 (Joules/Mol)
                                   30.18509 (Kcal/Mol)
 Warning -- explicit consideration of  19 degrees of freedom as
           vibrations may cause significant error
 Vibrational temperatures:     48.46    77.96   168.22   178.01   232.56
          (Kelvin)            276.28   349.69   369.53   451.57   480.99
                              526.83   611.97   624.11   654.84   670.61
                              761.51   847.00   867.87   888.71  1089.28
                             1102.11  1263.21  1565.71  1674.85  1684.14
                             1740.66  1849.06  1942.25  1995.34  5386.17

 Zero-point correction=                           0.048103 (Hartree/Particle)
 Thermal correction to Energy=                    0.059420
 Thermal correction to Enthalpy=                  0.060364
 Thermal correction to Gibbs Free Energy=         0.009664
 Sum of electronic and zero-point Energies=          -1199.564063
 Sum of electronic and thermal Energies=             -1199.552746
 Sum of electronic and thermal Enthalpies=           -1199.551801
 Sum of electronic and thermal Free Energies=        -1199.602501

                     E (Thermal)             CV                S
                      KCal/Mol        Cal/Mol-Kelvin    Cal/Mol-Kelvin
 Total                   37.287             38.892            106.707
 Electronic               0.000              0.000              0.000
 Translational            0.889              2.981             41.783
 Rotational               0.889              2.981             30.517
 Vibrational             35.509             32.930             34.406
 Vibration     1          0.594              1.983              5.600
 Vibration     2          0.596              1.976              4.659
 Vibration     3          0.608              1.935              3.151
 Vibration     4          0.610              1.929              3.041
 Vibration     5          0.622              1.889              2.531
 Vibration     6          0.634              1.851              2.208
 Vibration     7          0.659              1.774              1.780
 Vibration     8          0.666              1.751              1.683
 Vibration     9          0.702              1.647              1.342
 Vibration    10          0.716              1.607              1.239
 Vibration    11          0.739              1.542              1.096
 Vibration    12          0.787              1.415              0.874
 Vibration    13          0.795              1.397              0.846
 Vibration    14          0.813              1.350              0.780
 Vibration    15          0.823              1.325              0.749
 Vibration    16          0.884              1.185              0.589
 Vibration    17          0.946              1.056              0.470
 Vibration    18          0.962              1.025              0.444
 Vibration    19          0.977              0.995              0.420

 Optimization completed.
    -- Stationary point found.
 Normal termination of Gaussian 16 at Fri May 23 05:20:42 2025.
