 Gaussian 16, Revision C.01,
 Gaussian 16:  ES64L-G16RevC.01  3-Jul-2019

 ----------------------------------------------------------------------
 #P wb97xd/6-311++G(d,p) Symm(None) scf(xqc) pop(None) opt(NoFreeze,TS,
 CalcAll,NoEigentest,MaxCycle=999)
 ----------------------------------------------------------------------

 ------------------------------
 Gaussian input prepared by ASE
 ------------------------------
 Symbolic Z-matrix:
 Charge =  0 Multiplicity = 1

 SCF Done:  E(RwB97XD) =  -1199.63128069     A.U. after   21 cycles
 SCF Done:  E(RwB97XD) =  -1199.63758056     A.U. after   19 cycles
 SCF Done:  E(RwB97XD) =  -1199.63913721     A.U. after   19 cycles
 SCF Done:  E(RwB97XD) =  -1199.63960463     A.U. after   19 cycles
 SCF Done:  E(RwB97XD) =  -1199.63975132     A.U. after   19 cycles
 SCF Done:  E(RwB97XD) =  -1199.63977325     A.U. after   14 cycles
 SCF Done:  E(RwB97XD) =  -1199.63977367     A.U. after   13 cycles

 Isotropic polarizability for W=    0.000000       68.97 Bohr**3.
 End of Minotr F.D. properties file   721 does not exist.

 Optimization completed.
    -- Stationary point found.

                          Input orientation:
 ---------------------------------------------------------------------
 Center     Atomic      Atomic             Coordinates (Angstroms)
 Number     Number       Type             X           Y           Z
 ---------------------------------------------------------------------
      1          6           0       -0.758430    0.644204   -1.127406
      2          6           0       -0.070288    0.041920    0.116391
      3          9           0       -0.469611    0.746868    1.204318
      4          9           0       -0.466838   -1.223673    0.237928
      5         16           0        2.012664    0.231708   -0.136436
      6          8           0        2.067827   -0.781365    1.030421
      7          8           0        3.537297   -0.139478    0.140600
      8          8           0        2.012720    1.724654    0.487490
      9          9           0       -0.404082    1.923074   -1.273271
     10          9           0       -0.383676   -0.027332   -2.214194
     11          9           0       -2.082389    0.583461   -1.023189
     12          1           0        1.233140    1.906098    1.028829
 ---------------------------------------------------------------------

 ******    1 imaginary frequencies (negative Signs) ******

                      1                      2                      3
                      A                      A                      A
 Frequencies --   -829.8097                40.2773                66.7247
 Red. masses --     18.2820                15.0351                17.8676
 Frc consts  --      7.4170                 0.0144                 0.0469
 IR Inten    --    374.9632                 0.2868                 0.2003

                      4                      5                      6
                      A                      A                      A
 Frequencies --    117.5680               151.4405               183.7819
 Red. masses --     15.1625                 3.0476                 4.0330
 Frc consts  --      0.1235                 0.0412                 0.0803
 IR Inten    --      1.8068                35.1083                23.8975

                      7                      8                      9
                      A                      A                      A
 Frequencies --    206.8205               229.1864               240.1537
 Red. masses --     14.1566                 7.9194                 4.4468
 Frc consts  --      0.3568                 0.2451                 0.1511
 IR Inten    --      6.3783                18.9631                22.9073

                     10                     11                     12
                      A                      A                      A
 Frequencies --    284.4856               303.2999               365.6191
 Red. masses --     17.3755                 9.9372                15.6529
 Frc consts  --      0.8285                 0.5386                 1.2328
 IR Inten    --      7.8737                10.7716                 2.0476

                     13                     14                     15
                      A                      A                      A
 Frequencies --    386.7671               449.5589               452.5580
 Red. masses --      6.3541                 6.8637                10.5680
 Frc consts  --      0.5600                 0.8173                 1.2752
 IR Inten    --     25.7068                 2.7120                 3.2024

                     16                     17                     18
                      A                      A                      A
 Frequencies --    535.3960               593.6142               613.6197
 Red. masses --     17.8708                17.8002                17.0986
 Frc consts  --      3.0182                 3.6956                 3.7932
 IR Inten    --      3.8393                 2.0103                14.0421

                     19                     20                     21
                      A                      A                      A
 Frequencies --    729.5333               745.1087               807.6310
 Red. masses --     16.5115                16.5726                17.2444
 Frc consts  --      5.1776                 5.4210                 6.6271
 IR Inten    --     88.4074                30.9999               123.7171

                     22                     23                     24
                      A                      A                      A
 Frequencies --    914.6386              1022.5805              1096.9875
 Red. masses --     13.5510                17.2374                 6.1547
 Frc consts  --      6.6792                10.6198                 4.3637
 IR Inten    --    156.9196                42.5575               177.9268

                     25                     26                     27
                      A                      A                      A
 Frequencies --   1159.0781              1203.5048              1222.6852
 Red. masses --      1.5315                 4.5188                12.8939
 Frc consts  --      1.2123                 3.8563                11.3570
 IR Inten    --    190.9618                21.7870               233.0922

                     28                     29                     30
                      A                      A                      A
 Frequencies --   1231.5556              1322.9007              3810.1730
 Red. masses --     11.8970                12.6116                 1.0667
 Frc consts  --     10.6315                13.0039                 9.1236
 IR Inten    --    315.5100               337.8914               114.1721

 - Thermochemistry -
 -------------------
 Temperature   298.150 Kelvin.  Pressure   1.00000 Atm.
 Atom     1 has atomic number  6 and mass  12.00000

 Molecular mass:   199.95666 amu.
 Principal axes and moments of inertia in atomic units:
                           1         2         3
     Eigenvalues --  1077.939692500.202762653.29556
           X            0.92687   0.31101  -0.21018
           Y           -0.11377   0.76635   0.63227
           Z            0.35772  -0.56213   0.74569
 This molecule is an asymmetric top.
 Rotational symmetry number  1.
 Warning -- assumption of classical behavior for rotation
           may cause significant error
 Rotational temperatures (Kelvin)      0.08035     0.03464     0.03264
 Rotational constants (GHZ):           1.67425     0.72184     0.68019
    1 imaginary frequencies ignored.
 Zero-point vibrational energy     122541.0 (Joules/Mol)
                                   29.28799 (Kcal/Mol)
 Warning -- explicit consideration of  17 degrees of freedom as
           vibrations may cause significant error
 Vibrational temperatures:     57.95    96.00   169.15   217.89   264.42
          (Kelvin)            297.57   329.75   345.53   409.31   436.38
                              526.04   556.47   646.81   651.13   770.32
                              854.08   882.86  1049.64  1072.05  1162.00
                             1315.96  1471.27  1578.32  1667.65  1731.57
                             1759.17  1771.93  1903.36  5481.99

 Zero-point correction=                           0.046673 (Hartree/Particle)
 Thermal correction to Energy=                    0.057681
 Thermal correction to Enthalpy=                  0.058626
 Thermal correction to Gibbs Free Energy=         0.008865
 Sum of electronic and zero-point Energies=          -1199.593100
 Sum of electronic and thermal Energies=             -1199.582092
 Sum of electronic and thermal Enthalpies=           -1199.581148
 Sum of electronic and thermal Free Energies=        -1199.630909

                     E (Thermal)             CV                S
                      KCal/Mol        Cal/Mol-Kelvin    Cal/Mol-Kelvin
 Total                   36.196             37.587            104.731
 Electronic               0.000              0.000              0.000
 Translational            0.889              2.981             41.783
 Rotational               0.889              2.981             30.348
 Vibrational             34.418             31.625             32.599
 Vibration     1          0.594              1.981              5.245
 Vibration     2          0.598              1.970              4.248
 Vibration     3          0.608              1.935              3.140
 Vibration     4          0.619              1.901              2.654
 Vibration     5          0.631              1.862              2.290
 Vibration     6          0.641              1.830              2.072
 Vibration     7          0.652              1.796              1.885
 Vibration     8          0.657              1.779              1.802
 Vibration     9          0.683              1.702              1.507
 Vibration    10          0.695              1.667              1.399
 Vibration    11          0.739              1.543              1.098
 Vibration    12          0.755              1.498              1.013
 Vibration    13          0.808              1.362              0.797
 Vibration    14          0.811              1.355              0.788
 Vibration    15          0.890              1.172              0.575
 Vibration    16          0.951              1.045              0.461
 Vibration    17          0.973              1.003              0.427

 Normal termination of Gaussian 16 at Fri May 23 04:45:50 2025.
