 Gaussian 16, Revision C.01,
 Gaussian 16:  ES64L-G16RevC.01  3-Jul-2019

 ----------------------------------------------------------------------
 #P wb97xd/6-311++G(d,p) Symm(None) scf(xqc) pop(None) freq opt(CalcFC,
  Tight)
 ----------------------------------------------------------------------

 ------------------------------
 Gaussian input prepared by ASE
 ------------------------------
 Symbolic Z-matrix:
 Charge =  0 Multiplicity = 1

 SCF Done:  E(RwB97XD) =  -1199.82110228     A.U. after   15 cycles
 SCF Done:  E(RwB97XD) =  -1199.82527355     A.U. after   13 cycles
 SCF Done:  E(RwB97XD) =  -1199.82539277     A.U. after   12 cycles
 SCF Done:  E(RwB97XD) =  -1199.82542421     A.U. after   11 cycles
 SCF Done:  E(RwB97XD) =  -1199.82542586     A.U. after    9 cycles
 SCF Done:  E(RwB97XD) =  -1199.82542593     A.U. after    8 cycles
 SCF Done:  E(RwB97XD) =  -1199.82542594     A.U. after    7 cycles
 SCF Done:  E(RwB97XD) =  -1199.82542594     A.U. after    5 cycles
 Optimization completed.
    -- Stationary point found.
 Normal termination of Gaussian 16 at Fri May 23 04:21:33 2025.

 ----------------------------------------------------------------------
 #P Geom=AllCheck Guess=TCheck SCRF=Check GenChk RwB97XD/6-311++G(d,p)
 Freq
 ----------------------------------------------------------------------

 Structure from the checkpoint file:  "/tmp/Gau-252634.chk"
 ------------------------------
 Gaussian input prepared by ASE
 ------------------------------
 Charge =  0 Multiplicity = 1

                          Input orientation:
 ---------------------------------------------------------------------
 Center     Atomic      Atomic             Coordinates (Angstroms)
 Number     Number       Type             X           Y           Z
 ---------------------------------------------------------------------
      1          6           0        3.514765   -1.685244   -1.156105
      2          6           0        1.347138    0.005392   -0.002888
      3          9           0        0.007124    0.045218   -0.031962
      4          9           0        1.724314   -0.689443    1.064433
      5         16           0        1.825590   -0.946490   -1.584181
      6          8           0        2.069899    0.103296   -2.557318
      7          8           0        0.926434   -2.045894   -1.814565
      8          8           0        1.913440    1.208704    0.012414
      9          9           0        4.056128   -2.099580   -2.286322
     10          9           0        4.278560   -0.754079   -0.607313
     11          9           0        3.375438   -2.699058   -0.326411
     12          1           0        1.940994    1.572292   -0.884075
 ---------------------------------------------------------------------

 SCF Done:  E(RwB97XD) =  -1199.82542594     A.U. after    1 cycles

 Isotropic polarizability for W=    0.000000       58.11 Bohr**3.
 End of Minotr F.D. properties file   721 does not exist.

                      1                      2                      3
                      A                      A                      A
 Frequencies --     44.5450                51.5701               118.2712
 Red. masses --     14.7300                17.9412                17.8816
 Frc consts  --      0.0172                 0.0281                 0.1474
 IR Inten    --      1.4784                 0.4539                 0.3440

                      4                      5                      6
                      A                      A                      A
 Frequencies --    185.2025               200.1715               232.6635
 Red. masses --      8.7005                11.7944                16.8052
 Frc consts  --      0.1758                 0.2784                 0.5360
 IR Inten    --     15.7327                 3.7575                 4.0231

                      7                      8                      9
                      A                      A                      A
 Frequencies --    267.2534               286.0750               298.7766
 Red. masses --     15.1986                 8.5727                 6.3416
 Frc consts  --      0.6396                 0.4134                 0.3335
 IR Inten    --      1.3286                26.4835                15.2553

                     10                     11                     12
                      A                      A                      A
 Frequencies --    327.2314               392.6475               425.8451
 Red. masses --     11.6715                 2.9057                 2.5570
 Frc consts  --      0.7364                 0.2639                 0.2732
 IR Inten    --      9.8138                54.2750                58.4946

                     13                     14                     15
                      A                      A                      A
 Frequencies --    520.6630               523.0735               555.9144
 Red. masses --      8.9175                18.8029                14.3359
 Frc consts  --      1.4243                 3.0311                 2.6103
 IR Inten    --     23.9023                29.6293                 0.8753

                     16                     17                     18
                      A                      A                      A
 Frequencies --    578.3819               590.6217               628.6204
 Red. masses --     12.1387                13.5399                15.6309
 Frc consts  --      2.3925                 2.7828                 3.6392
 IR Inten    --      9.2705                27.6496               168.8457

                     19                     20                     21
                      A                      A                      A
 Frequencies --    767.3304               788.8982              1030.4887
 Red. masses --     13.9735                16.8630                 4.9528
 Frc consts  --      4.8475                 6.1834                 3.0987
 IR Inten    --      7.3095                 1.5013               183.6576

                     22                     23                     24
                      A                      A                      A
 Frequencies --   1113.3400              1156.2205              1213.0545
 Red. masses --      8.8560                 5.8999                 7.9058
 Frc consts  --      6.4676                 4.6470                 6.8542
 IR Inten    --    148.8273               440.1717                23.1882

                     25                     26                     27
                      A                      A                      A
 Frequencies --   1245.1358              1256.7448              1311.3119
 Red. masses --     12.3138                11.6098                 6.4141
 Frc consts  --     11.2480                10.8036                 6.4983
 IR Inten    --    173.5191               213.1491               421.6080

                     28                     29                     30
                      A                      A                      A
 Frequencies --   1368.2891              1409.1580              3789.5687
 Red. masses --      3.7609                 4.4494                 1.0658
 Frc consts  --      4.1485                 5.2055                 9.0183
 IR Inten    --    209.0453               253.2114               120.2996

 - Thermochemistry -
 -------------------
 Temperature   298.150 Kelvin.  Pressure   1.00000 Atm.
 Atom     1 has atomic number  6 and mass  12.00000

 Molecular mass:   199.95666 amu.
 Principal axes and moments of inertia in atomic units:
                           1         2         3
     Eigenvalues --  1205.709692144.690582341.32541
           X            0.74218   0.49943   0.44692
           Y           -0.55258   0.07868   0.82974
           Z           -0.37923   0.86277  -0.33437
 This molecule is an asymmetric top.
 Rotational symmetry number  1.
 Warning -- assumption of classical behavior for rotation
           may cause significant error
 Rotational temperatures (Kelvin)      0.07184     0.04039     0.03699
 Rotational constants (GHZ):           1.49683     0.84149     0.77082
 Zero-point vibrational energy     135639.0 (Joules/Mol)
                                   32.41850 (Kcal/Mol)
 Warning -- explicit consideration of  17 degrees of freedom as
           vibrations may cause significant error
 Vibrational temperatures:     64.09    74.20   170.17   266.47   288.00
          (Kelvin)            334.75   384.52   411.60   429.87   470.81
                              564.93   612.70   749.12   752.59   799.84
                              832.16   849.77   904.44  1104.02  1135.05
                             1482.64  1601.85  1663.54  1745.31  1791.47
                             1808.18  1886.69  1968.66  2027.46  5452.34

 Zero-point correction=                           0.051662 (Hartree/Particle)
 Thermal correction to Energy=                    0.062241
 Thermal correction to Enthalpy=                  0.063185
 Thermal correction to Gibbs Free Energy=         0.014367
 Sum of electronic and zero-point Energies=          -1199.773764
 Sum of electronic and thermal Energies=             -1199.763185
 Sum of electronic and thermal Enthalpies=           -1199.762241
 Sum of electronic and thermal Free Energies=        -1199.811059

                     E (Thermal)             CV                S
                      KCal/Mol        Cal/Mol-Kelvin    Cal/Mol-Kelvin
 Total                   39.057             36.736            102.747
 Electronic               0.000              0.000              0.000
 Translational            0.889              2.981             41.783
 Rotational               0.889              2.981             30.183
 Vibrational             37.279             30.774             30.781
 Vibration     1          0.595              1.980              5.046
 Vibration     2          0.596              1.977              4.756
 Vibration     3          0.608              1.934              3.128
 Vibration     4          0.631              1.860              2.275
 Vibration     5          0.638              1.840              2.132
 Vibration     6          0.653              1.791              1.858
 Vibration     7          0.672              1.733              1.614
 Vibration     8          0.684              1.700              1.497
 Vibration     9          0.692              1.676              1.424
 Vibration    10          0.711              1.621              1.274
 Vibration    11          0.760              1.486              0.990
 Vibration    12          0.788              1.414              0.872
 Vibration    13          0.876              1.204              0.608
 Vibration    14          0.878              1.199              0.603
 Vibration    15          0.911              1.127              0.532
 Vibration    16          0.935              1.078              0.488
 Vibration    17          0.948              1.052              0.466

 Optimization completed.
    -- Stationary point found.
 Normal termination of Gaussian 16 at Fri May 23 04:22:51 2025.
