 Gaussian 16, Revision C.01,
 Gaussian 16:  ES64L-G16RevC.01  3-Jul-2019

 ----------------------------------------------------------------------
 #P wb97xd/6-311++G(d,p) Symm(None) scf(xqc) pop(None) freq opt(CalcFC,
  Tight)
 ----------------------------------------------------------------------

 ------------------------------
 Gaussian input prepared by ASE
 ------------------------------
 Symbolic Z-matrix:
 Charge =  0 Multiplicity = 1

 SCF Done:  E(RwB97XD) =  -1198.93625478     A.U. after   19 cycles
 SCF Done:  E(RwB97XD) =  -1199.11552083     A.U. after   16 cycles
 SCF Done:  E(RwB97XD) =  -1199.31799627     A.U. after   18 cycles
 SCF Done:  E(RwB97XD) =  -1199.54464112     A.U. after   17 cycles
 SCF Done:  E(RwB97XD) =  -1199.65855172     A.U. after   15 cycles
 SCF Done:  E(RwB97XD) =  -1199.66476456     A.U. after   15 cycles
 SCF Done:  E(RwB97XD) =  -1199.68096610     A.U. after   12 cycles
 SCF Done:  E(RwB97XD) =  -1199.70038862     A.U. after   15 cycles
 SCF Done:  E(RwB97XD) =  -1199.68352127     A.U. after   14 cycles
 SCF Done:  E(RwB97XD) =  -1199.70962118     A.U. after   14 cycles
 SCF Done:  E(RwB97XD) =  -1199.73453062     A.U. after   13 cycles
 SCF Done:  E(RwB97XD) =  -1199.73456364     A.U. after   12 cycles
 SCF Done:  E(RwB97XD) =  -1199.73456643     A.U. after   11 cycles
 SCF Done:  E(RwB97XD) =  -1199.73456673     A.U. after    9 cycles
 SCF Done:  E(RwB97XD) =  -1199.73456677     A.U. after    8 cycles
 SCF Done:  E(RwB97XD) =  -1199.73456680     A.U. after    8 cycles
 SCF Done:  E(RwB97XD) =  -1199.73456681     A.U. after    8 cycles
 SCF Done:  E(RwB97XD) =  -1199.73456681     A.U. after    5 cycles
 SCF Done:  E(RwB97XD) =  -1199.73456681     A.U. after    5 cycles
 Optimization completed.
    -- Stationary point found.
 Normal termination of Gaussian 16 at Fri May 23 05:33:06 2025.

 ----------------------------------------------------------------------
 #P Geom=AllCheck Guess=TCheck SCRF=Check GenChk RwB97XD/6-311++G(d,p)
 Freq
 ----------------------------------------------------------------------

 Structure from the checkpoint file:  "/tmp/Gau-145066.chk"
 ------------------------------
 Gaussian input prepared by ASE
 ------------------------------
 Charge =  0 Multiplicity = 1

                          Input orientation:
 ---------------------------------------------------------------------
 Center     Atomic      Atomic             Coordinates (Angstroms)
 Number     Number       Type             X           Y           Z
 ---------------------------------------------------------------------
      1          6           0       -1.488534   -0.464397    0.491994
      2          6           0       -1.417848    1.018827    0.926910
      3          9           0       -2.646722    1.544825    0.810651
      4          9           0       -1.020778    1.100325    2.192292
      5         16           0       -0.297617    2.124199   -0.170083
      6          8           0        1.563496    0.554316   -0.857820
      7          8           0       -0.282425    3.382693    0.565451
      8          8           0        1.135421    1.309557    0.267255
      9          9           0       -1.744556   -0.533047   -0.815050
     10          9           0       -0.327324   -1.086760    0.723465
     11          9           0       -2.441589   -1.103228    1.152610
     12          1           0        1.464094   -0.346969   -0.525061
 ---------------------------------------------------------------------

 SCF Done:  E(RwB97XD) =  -1199.73456681     A.U. after    1 cycles

 Isotropic polarizability for W=    0.000000       60.82 Bohr**3.
 End of Minotr F.D. properties file   721 does not exist.

                      1                      2                      3
                      A                      A                      A
 Frequencies --     29.6783                65.5642               101.9933
 Red. masses --     14.7415                17.5287                 7.4002
 Frc consts  --      0.0077                 0.0444                 0.0454
 IR Inten    --      0.4006                 0.7288                 3.2286

                      4                      5                      6
                      A                      A                      A
 Frequencies --    135.1926               186.4746               221.3263
 Red. masses --     13.6976                14.1051                17.7058
 Frc consts  --      0.1475                 0.2890                 0.5110
 IR Inten    --      3.0159                 9.4764                 2.5049

                      7                      8                      9
                      A                      A                      A
 Frequencies --    230.8253               245.4542               291.9394
 Red. masses --     14.1548                15.4621                15.3075
 Frc consts  --      0.4443                 0.5489                 0.7687
 IR Inten    --      0.7950                 1.5124                 0.2074

                     10                     11                     12
                      A                      A                      A
 Frequencies --    326.5119               363.0084               367.1983
 Red. masses --     18.5382                 2.7088                15.7525
 Frc consts  --      1.1644                 0.2103                 1.2514
 IR Inten    --      6.9081                55.9039                 2.5195

                     13                     14                     15
                      A                      A                      A
 Frequencies --    419.3800               430.1586               500.4968
 Red. masses --      1.8581                 9.7304                20.2776
 Frc consts  --      0.1925                 1.0608                 2.9927
 IR Inten    --     98.7579                10.8417                39.6669

                     16                     17                     18
                      A                      A                      A
 Frequencies --    546.7848               595.5559               651.1744
 Red. masses --     16.0694                17.8689                17.4567
 Frc consts  --      2.8306                 3.7342                 4.3612
 IR Inten    --      2.2256                 2.7752                21.3481

                     19                     20                     21
                      A                      A                      A
 Frequencies --    694.3860               756.7480               966.1098
 Red. masses --     16.7187                17.2579                13.3596
 Frc consts  --      4.7496                 5.8229                 7.3468
 IR Inten    --     69.6027                15.5733                91.8002

                     22                     23                     24
                      A                      A                      A
 Frequencies --    996.0980              1149.6842              1209.8712
 Red. masses --     14.6127                13.7351                12.4237
 Frc consts  --      8.5425                10.6965                10.7147
 IR Inten    --      3.3697               161.5376                74.4522

                     25                     26                     27
                      A                      A                      A
 Frequencies --   1221.9627              1237.6393              1239.7190
 Red. masses --     13.3229                17.5581                13.2731
 Frc consts  --     11.7210                15.8459                12.0190
 IR Inten    --    396.0083               245.0522               188.7559

                     28                     29                     30
                      A                      A                      A
 Frequencies --   1354.4971              1430.2880              3828.2554
 Red. masses --     12.7104                 1.1121                 1.0681
 Frc consts  --     13.7393                 1.3404                 9.2227
 IR Inten    --    135.4689                53.8011                73.6258

 - Thermochemistry -
 -------------------
 Temperature   298.150 Kelvin.  Pressure   1.00000 Atm.
 Atom     1 has atomic number  6 and mass  12.00000

 Molecular mass:   199.95666 amu.
 Principal axes and moments of inertia in atomic units:
                           1         2         3
     Eigenvalues --  1355.434201987.922702598.60723
           X            0.63493  -0.64228   0.42935
           Y            0.74880   0.64841  -0.13737
           Z           -0.19016   0.40871   0.89263
 This molecule is an asymmetric top.
 Rotational symmetry number  1.
 Warning -- assumption of classical behavior for rotation
           may cause significant error
 Rotational temperatures (Kelvin)      0.06390     0.04357     0.03333
 Rotational constants (GHZ):           1.33149     0.90785     0.69450
 Zero-point vibrational energy     130356.9 (Joules/Mol)
                                   31.15605 (Kcal/Mol)
 Warning -- explicit consideration of  17 degrees of freedom as
           vibrations may cause significant error
 Vibrational temperatures:     42.70    94.33   146.75   194.51   268.30
          (Kelvin)            318.44   332.11   353.15   420.04   469.78
                              522.29   528.32   603.39   618.90   720.10
                              786.70   856.87   936.89   999.07  1088.79
                             1390.02  1433.16  1654.14  1740.73  1758.13
                             1780.69  1783.68  1948.82  2057.87  5508.01

 Zero-point correction=                           0.049650 (Hartree/Particle)
 Thermal correction to Energy=                    0.060856
 Thermal correction to Enthalpy=                  0.061800
 Thermal correction to Gibbs Free Energy=         0.011388
 Sum of electronic and zero-point Energies=          -1199.684916
 Sum of electronic and thermal Energies=             -1199.673711
 Sum of electronic and thermal Enthalpies=           -1199.672767
 Sum of electronic and thermal Free Energies=        -1199.723179

                     E (Thermal)             CV                S
                      KCal/Mol        Cal/Mol-Kelvin    Cal/Mol-Kelvin
 Total                   38.187             38.180            106.101
 Electronic               0.000              0.000              0.000
 Translational            0.889              2.981             41.783
 Rotational               0.889              2.981             30.327
 Vibrational             36.410             32.218             33.991
 Vibration     1          0.593              1.984              5.851
 Vibration     2          0.597              1.971              4.282
 Vibration     3          0.604              1.948              3.416
 Vibration     4          0.613              1.918              2.871
 Vibration     5          0.632              1.858              2.263
 Vibration     6          0.648              1.809              1.948
 Vibration     7          0.653              1.794              1.873
 Vibration     8          0.660              1.770              1.763
 Vibration     9          0.687              1.689              1.463
 Vibration    10          0.710              1.622              1.277
 Vibration    11          0.737              1.548              1.109
 Vibration    12          0.740              1.540              1.091
 Vibration    13          0.782              1.428              0.894
 Vibration    14          0.791              1.405              0.858
 Vibration    15          0.856              1.249              0.657
 Vibration    16          0.902              1.147              0.551
 Vibration    17          0.953              1.041              0.457

 Optimization completed.
    -- Stationary point found.
 Normal termination of Gaussian 16 at Fri May 23 05:34:16 2025.
