 Gaussian 16, Revision C.01,
 Gaussian 16:  ES64L-G16RevC.01  3-Jul-2019

 ----------------------------------------------------------------------
 #P wb97xd/6-311++G(d,p) Symm(None) scf(xqc) pop(None) freq opt(CalcFC,
  Tight)
 ----------------------------------------------------------------------

 ------------------------------
 Gaussian input prepared by ASE
 ------------------------------
 Symbolic Z-matrix:
 Charge =  0 Multiplicity = 1

 SCF Done:  E(RwB97XD) =  -1199.73191206     A.U. after   16 cycles
 SCF Done:  E(RwB97XD) =  -1199.73452826     A.U. after   13 cycles
 SCF Done:  E(RwB97XD) =  -1199.73461124     A.U. after   13 cycles
 SCF Done:  E(RwB97XD) =  -1199.73470042     A.U. after   12 cycles
 SCF Done:  E(RwB97XD) =  -1199.73471408     A.U. after   11 cycles
 SCF Done:  E(RwB97XD) =  -1199.73471444     A.U. after   11 cycles
 SCF Done:  E(RwB97XD) =  -1199.73471454     A.U. after   10 cycles
 SCF Done:  E(RwB97XD) =  -1199.73471455     A.U. after    7 cycles
 SCF Done:  E(RwB97XD) =  -1199.73471455     A.U. after    4 cycles
 Optimization completed.
    -- Stationary point found.
 Normal termination of Gaussian 16 at Fri May 23 05:24:07 2025.

 ----------------------------------------------------------------------
 #P Geom=AllCheck Guess=TCheck SCRF=Check GenChk RwB97XD/6-311++G(d,p)
 Freq
 ----------------------------------------------------------------------

 Structure from the checkpoint file:  "/tmp/Gau-2607.chk"
 ------------------------------
 Gaussian input prepared by ASE
 ------------------------------
 Charge =  0 Multiplicity = 1

                          Input orientation:
 ---------------------------------------------------------------------
 Center     Atomic      Atomic             Coordinates (Angstroms)
 Number     Number       Type             X           Y           Z
 ---------------------------------------------------------------------
      1          6           0        2.989980    4.216561   -2.251124
      2          6           0        2.071447    3.452473   -1.263335
      3          9           0        2.152673    4.013354   -0.060837
      4          9           0        0.809867    3.522150   -1.714299
      5         16           0        2.521232    1.594197   -1.189082
      6          8           0        0.858722    0.120647   -0.010345
      7          8           0        3.868953    1.525117   -0.637899
      8          8           0        1.370717    1.445700    0.052502
      9          9           0        4.218076    4.322277   -1.772072
     10          9           0        3.031118    3.554039   -3.411680
     11          9           0        2.505992    5.433730   -2.473425
     12          1           0       -0.056164    0.286976   -0.268533
 ---------------------------------------------------------------------

 SCF Done:  E(RwB97XD) =  -1199.73471455     A.U. after    1 cycles

 Isotropic polarizability for W=    0.000000       61.26 Bohr**3.
 End of Minotr F.D. properties file   721 does not exist.

                      1                      2                      3
                      A                      A                      A
 Frequencies --     33.9610                53.5258                70.8481
 Red. masses --     12.0093                10.9857                 9.3504
 Frc consts  --      0.0082                 0.0185                 0.0277
 IR Inten    --      2.0379                 3.8190                 2.1620

                      4                      5                      6
                      A                      A                      A
 Frequencies --    121.6446               194.2496               196.8342
 Red. masses --     17.4162                16.3509                13.7311
 Frc consts  --      0.1518                 0.3635                 0.3134
 IR Inten    --      3.3774                 4.3530                 4.8906

                      7                      8                      9
                      A                      A                      A
 Frequencies --    226.3722               269.9960               301.3870
 Red. masses --     18.2252                 8.1489                 1.8154
 Frc consts  --      0.5503                 0.3500                 0.0972
 IR Inten    --      1.4992                 5.0807                72.9404

                     10                     11                     12
                      A                      A                      A
 Frequencies --    318.6982               320.2930               369.7077
 Red. masses --     14.0381                 3.7556                18.4066
 Frc consts  --      0.8401                 0.2270                 1.4823
 IR Inten    --      9.2100                14.9942                 0.0829

                     13                     14                     15
                      A                      A                      A
 Frequencies --    403.1945               427.7349               516.3932
 Red. masses --      7.3772                19.5794                16.6316
 Frc consts  --      0.7066                 2.1106                 2.6130
 IR Inten    --     45.4830                16.3668                31.1602

                     16                     17                     18
                      A                      A                      A
 Frequencies --    552.3583               601.7076               629.2556
 Red. masses --     18.8163                17.8333                16.7830
 Frc consts  --      3.3824                 3.8041                 3.9154
 IR Inten    --      8.0701                10.0290                44.1111

                     19                     20                     21
                      A                      A                      A
 Frequencies --    698.4260               759.2723               962.2179
 Red. masses --     17.8841                17.2455                13.6402
 Frc consts  --      5.1399                 5.8576                 7.4408
 IR Inten    --     57.5204                21.3084               107.3397

                     22                     23                     24
                      A                      A                      A
 Frequencies --    998.9108              1152.9754              1217.9806
 Red. masses --     14.6596                13.5330                13.7467
 Frc consts  --      8.6184                10.5995                12.0152
 IR Inten    --     13.4586               177.0657                32.3200

                     25                     26                     27
                      A                      A                      A
 Frequencies --   1221.5479              1236.3908              1264.6905
 Red. masses --     13.3027                15.2187                14.8278
 Frc consts  --     11.6953                13.7069                13.9732
 IR Inten    --    310.5361                32.4143               471.6100

                     28                     29                     30
                      A                      A                      A
 Frequencies --   1349.3446              1424.4255              3830.7301
 Red. masses --     12.6531                 1.1087                 1.0687
 Frc consts  --     13.5735                 1.3253                 9.2403
 IR Inten    --    155.8270                59.7470                81.1653

 - Thermochemistry -
 -------------------
 Temperature   298.150 Kelvin.  Pressure   1.00000 Atm.
 Atom     1 has atomic number  6 and mass  12.00000

 Molecular mass:   199.95666 amu.
 Principal axes and moments of inertia in atomic units:
                           1         2         3
     Eigenvalues --  1031.366752617.277232894.23607
           X            0.31494   0.90759   0.27767
           Y            0.82385  -0.40668   0.39483
           Z           -0.47126  -0.10441   0.87579
 This molecule is an asymmetric top.
 Rotational symmetry number  1.
 Warning -- assumption of classical behavior for rotation
           may cause significant error
 Rotational temperatures (Kelvin)      0.08398     0.03309     0.02993
 Rotational constants (GHZ):           1.74985     0.68955     0.62356
 Zero-point vibrational energy     129944.8 (Joules/Mol)
                                   31.05755 (Kcal/Mol)
 Warning -- explicit consideration of  17 degrees of freedom as
           vibrations may cause significant error
 Vibrational temperatures:     48.86    77.01   101.93   175.02   279.48
          (Kelvin)            283.20   325.70   388.46   433.63   458.54
                              460.83   531.93   580.11   615.42   742.97
                              794.72   865.72   905.36  1004.88  1092.42
                             1384.42  1437.21  1658.87  1752.40  1757.53
                             1778.89  1819.61  1941.41  2049.43  5511.57

 Zero-point correction=                           0.049493 (Hartree/Particle)
 Thermal correction to Energy=                    0.060846
 Thermal correction to Enthalpy=                  0.061791
 Thermal correction to Gibbs Free Energy=         0.010729
 Sum of electronic and zero-point Energies=          -1199.685221
 Sum of electronic and thermal Energies=             -1199.673868
 Sum of electronic and thermal Enthalpies=           -1199.672924
 Sum of electronic and thermal Free Energies=        -1199.723985

                     E (Thermal)             CV                S
                      KCal/Mol        Cal/Mol-Kelvin    Cal/Mol-Kelvin
 Total                   38.182             38.284            107.468
 Electronic               0.000              0.000              0.000
 Translational            0.889              2.981             41.783
 Rotational               0.889              2.981             30.436
 Vibrational             36.404             32.322             35.248
 Vibration     1          0.594              1.983              5.583
 Vibration     2          0.596              1.976              4.683
 Vibration     3          0.598              1.968              4.130
 Vibration     4          0.609              1.931              3.074
 Vibration     5          0.635              1.848              2.187
 Vibration     6          0.636              1.844              2.162
 Vibration     7          0.650              1.801              1.908
 Vibration     8          0.674              1.728              1.596
 Vibration     9          0.693              1.671              1.409
 Vibration    10          0.705              1.638              1.317
 Vibration    11          0.706              1.635              1.309
 Vibration    12          0.742              1.534              1.081
 Vibration    13          0.769              1.463              0.951
 Vibration    14          0.789              1.410              0.866
 Vibration    15          0.871              1.214              0.618
 Vibration    16          0.908              1.135              0.539
 Vibration    17          0.960              1.028              0.447

 Optimization completed.
    -- Stationary point found.
 Normal termination of Gaussian 16 at Fri May 23 05:25:15 2025.
