 Gaussian 16, Revision C.01,
 Gaussian 16:  ES64L-G16RevC.01  3-Jul-2019

 ----------------------------------------------------------------------
 #P wb97xd/6-311++G(d,p) Symm(None) scf(xqc) pop(None) freq opt(CalcFC,
  Tight)
 ----------------------------------------------------------------------

 ------------------------------
 Gaussian input prepared by ASE
 ------------------------------
 Symbolic Z-matrix:
 Charge =  0 Multiplicity = 1

 SCF Done:  E(RwB97XD) =  -1199.59447063     A.U. after   18 cycles
 SCF Done:  E(RwB97XD) =  -1199.60108090     A.U. after   19 cycles
 SCF Done:  E(RwB97XD) =  -1199.59810657     A.U. after   18 cycles
 SCF Done:  E(RwB97XD) =  -1199.60259079     A.U. after   18 cycles
 SCF Done:  E(RwB97XD) =  -1199.60359887     A.U. after   18 cycles
 SCF Done:  E(RwB97XD) =  -1199.60510743     A.U. after   18 cycles
 SCF Done:  E(RwB97XD) =  -1199.60591882     A.U. after   18 cycles
 SCF Done:  E(RwB97XD) =  -1199.60748605     A.U. after   18 cycles
 SCF Done:  E(RwB97XD) =  -1199.60802202     A.U. after   19 cycles
 SCF Done:  E(RwB97XD) =  -1199.60877212     A.U. after   15 cycles
 SCF Done:  E(RwB97XD) =  -1199.60849658     A.U. after   18 cycles
 SCF Done:  E(RwB97XD) =  -1199.60926220     A.U. after   15 cycles
 SCF Done:  E(RwB97XD) =  -1199.60934253     A.U. after   17 cycles
 SCF Done:  E(RwB97XD) =  -1199.60934491     A.U. after   14 cycles
 SCF Done:  E(RwB97XD) =  -1199.60934573     A.U. after   12 cycles
 SCF Done:  E(RwB97XD) =  -1199.60934579     A.U. after   11 cycles
 SCF Done:  E(RwB97XD) =  -1199.60934580     A.U. after   10 cycles
 SCF Done:  E(RwB97XD) =  -1199.60934580     A.U. after    5 cycles
 Optimization completed.
    -- Stationary point found.
 Normal termination of Gaussian 16 at Fri May 23 07:38:12 2025.

 ----------------------------------------------------------------------
 #P Geom=AllCheck Guess=TCheck SCRF=Check GenChk RwB97XD/6-311++G(d,p)
 Freq
 ----------------------------------------------------------------------

 Structure from the checkpoint file:  "/tmp/Gau-198952.chk"
 ------------------------------
 Gaussian input prepared by ASE
 ------------------------------
 Charge =  0 Multiplicity = 1

                          Input orientation:
 ---------------------------------------------------------------------
 Center     Atomic      Atomic             Coordinates (Angstroms)
 Number     Number       Type             X           Y           Z
 ---------------------------------------------------------------------
      1          6           0       -0.628895   -1.285757    0.384192
      2          6           0        0.086524    0.001957   -0.078287
      3          9           0       -0.399101    0.427834   -1.216768
      4          9           0       -0.270359    1.020237    0.879226
      5         16           0        2.030640   -0.116598   -0.182673
      6          8           0        0.853732    1.224989    2.042743
      7          8           0        2.228153   -0.624187   -1.531681
      8          8           0        2.217728    1.504036   -0.278453
      9          9           0       -0.383128   -2.245061   -0.500251
     10          9           0       -0.168898   -1.658367    1.570717
     11          9           0       -1.940074   -1.093998    0.463872
     12          1           0        2.051146    1.863313    0.614566
 ---------------------------------------------------------------------

 SCF Done:  E(RwB97XD) =  -1199.60934580     A.U. after    1 cycles

 Isotropic polarizability for W=    0.000000       61.60 Bohr**3.
 End of Minotr F.D. properties file   721 does not exist.

                      1                      2                      3
                      A                      A                      A
 Frequencies --     42.2875                61.2359               108.7444
 Red. masses --     18.4215                13.2535                14.2157
 Frc consts  --      0.0194                 0.0293                 0.0990
 IR Inten    --      0.1938                 0.6358                 2.3830

                      4                      5                      6
                      A                      A                      A
 Frequencies --    132.0387               196.4434               207.9099
 Red. masses --     15.3522                16.3790                17.1873
 Frc consts  --      0.1577                 0.3724                 0.4377
 IR Inten    --      6.4300                 6.0224                 2.4387

                      7                      8                      9
                      A                      A                      A
 Frequencies --    231.4547               255.2862               272.0352
 Red. masses --     14.6331                15.7490                17.2854
 Frc consts  --      0.4619                 0.6047                 0.7537
 IR Inten    --      1.6822                13.3149                 0.5036

                     10                     11                     12
                      A                      A                      A
 Frequencies --    301.9814               346.5189               403.8535
 Red. masses --     10.4329                16.7600                13.1012
 Frc consts  --      0.5606                 1.1857                 1.2590
 IR Inten    --      9.1122                 5.7627                12.3891

                     13                     14                     15
                      A                      A                      A
 Frequencies --    431.4755               468.0950               533.8875
 Red. masses --     12.2285                13.3216                16.3276
 Frc consts  --      1.3413                 1.7198                 2.7420
 IR Inten    --      2.5333                 1.1271                20.5433

                     16                     17                     18
                      A                      A                      A
 Frequencies --    565.2516               588.4163               620.5231
 Red. masses --     16.1634                15.6266                 1.8474
 Frc consts  --      3.0428                 3.1877                 0.4191
 IR Inten    --     12.0632                90.1612                79.4793

                     19                     20                     21
                      A                      A                      A
 Frequencies --    638.0203               744.6053               769.5059
 Red. masses --      2.5091                15.1176                12.2440
 Frc consts  --      0.6018                 4.9384                 4.2717
 IR Inten    --    104.2549                 9.0049               115.9178

                     22                     23                     24
                      A                      A                      A
 Frequencies --    921.9539               959.4570              1153.5833
 Red. masses --     12.5049                13.2010                 1.2717
 Frc consts  --      6.2625                 7.1599                 0.9971
 IR Inten    --    116.4454               107.2113               118.0225

                     25                     26                     27
                      A                      A                      A
 Frequencies --   1227.8742              1240.2551              1249.4425
 Red. masses --     11.6728                12.4909                12.9512
 Frc consts  --     10.3690                11.3205                11.9122
 IR Inten    --    172.2397                90.9236               214.0593

                     28                     29                     30
                      A                      A                      A
 Frequencies --   1266.9553              1364.9421              3651.4888
 Red. masses --      8.8028                12.7753                 1.0645
 Frc consts  --      8.3252                14.0233                 8.3624
 IR Inten    --    431.4566               127.9014               229.0496

 - Thermochemistry -
 -------------------
 Temperature   298.150 Kelvin.  Pressure   1.00000 Atm.
 Atom     1 has atomic number  6 and mass  12.00000

 Molecular mass:   199.95666 amu.
 Principal axes and moments of inertia in atomic units:
                           1         2         3
     Eigenvalues --  1326.459212083.261832511.14035
           X            0.81597  -0.24035   0.52577
           Y            0.54362   0.62839  -0.55642
           Z           -0.19665   0.73984   0.64341
 This molecule is an asymmetric top.
 Rotational symmetry number  1.
 Warning -- assumption of classical behavior for rotation
           may cause significant error
 Rotational temperatures (Kelvin)      0.06530     0.04158     0.03449
 Rotational constants (GHZ):           1.36057     0.86631     0.71869
 Zero-point vibrational energy     125341.9 (Joules/Mol)
                                   29.95742 (Kcal/Mol)
 Warning -- explicit consideration of  18 degrees of freedom as
           vibrations may cause significant error
 Vibrational temperatures:     60.84    88.10   156.46   189.97   282.64
          (Kelvin)            299.14   333.01   367.30   391.40   434.48
                              498.56   581.06   620.80   673.48   768.15
                              813.27   846.60   892.79   917.97  1071.32
                             1107.15  1326.49  1380.44  1659.75  1766.64
                             1784.45  1797.67  1822.87  1963.85  5253.68

 Zero-point correction=                           0.047740 (Hartree/Particle)
 Thermal correction to Energy=                    0.059006
 Thermal correction to Enthalpy=                  0.059950
 Thermal correction to Gibbs Free Energy=         0.009736
 Sum of electronic and zero-point Energies=          -1199.561606
 Sum of electronic and thermal Energies=             -1199.550340
 Sum of electronic and thermal Enthalpies=           -1199.549396
 Sum of electronic and thermal Free Energies=        -1199.599610

                     E (Thermal)             CV                S
                      KCal/Mol        Cal/Mol-Kelvin    Cal/Mol-Kelvin
 Total                   37.027             38.845            105.684
 Electronic               0.000              0.000              0.000
 Translational            0.889              2.981             41.783
 Rotational               0.889              2.981             30.318
 Vibrational             35.249             32.884             33.582
 Vibration     1          0.595              1.980              5.149
 Vibration     2          0.597              1.973              4.417
 Vibration     3          0.606              1.942              3.291
 Vibration     4          0.612              1.921              2.916
 Vibration     5          0.636              1.845              2.166
 Vibration     6          0.641              1.829              2.062
 Vibration     7          0.653              1.793              1.868
 Vibration     8          0.666              1.754              1.694
 Vibration     9          0.675              1.725              1.583
 Vibration    10          0.694              1.670              1.406
 Vibration    11          0.725              1.582              1.182
 Vibration    12          0.769              1.462              0.949
 Vibration    13          0.793              1.402              0.854
 Vibration    14          0.825              1.321              0.743
 Vibration    15          0.889              1.175              0.579
 Vibration    16          0.921              1.106              0.513
 Vibration    17          0.946              1.056              0.470
 Vibration    18          0.981              0.989              0.416

                           ! Non-Optimized Parameters !
 Normal termination of Gaussian 16 at Fri May 23 07:39:35 2025.
