 Gaussian 16, Revision C.01,
 Gaussian 16:  ES64L-G16RevC.01  3-Jul-2019

 ----------------------------------------------------------------------
 #P wb97xd/6-311++G(d,p) Symm(None) scf(xqc) pop(None) opt(NoFreeze,TS,
 CalcAll,NoEigentest,MaxCycle=999)
 ----------------------------------------------------------------------

 ------------------------------
 Gaussian input prepared by ASE
 ------------------------------
 Symbolic Z-matrix:
 Charge =  0 Multiplicity = 1

 SCF Done:  E(RwB97XD) =  -1199.58059455     A.U. after   30 cycles
 SCF Done:  E(RwB97XD) =  -1199.59058937     A.U. after   25 cycles
 SCF Done:  E(RwB97XD) =  -1199.59051351     A.U. after   27 cycles
 SCF Done:  E(RwB97XD) =  -1199.59103282     A.U. after   24 cycles
 SCF Done:  E(RwB97XD) =  -1199.59103401     A.U. after   21 cycles
 SCF Done:  E(RwB97XD) =  -1199.59103403     A.U. after   19 cycles

 Isotropic polarizability for W=    0.000000       72.34 Bohr**3.
 End of Minotr F.D. properties file   721 does not exist.

 Optimization completed.
    -- Stationary point found.

                          Input orientation:
 ---------------------------------------------------------------------
 Center     Atomic      Atomic             Coordinates (Angstroms)
 Number     Number       Type             X           Y           Z
 ---------------------------------------------------------------------
      1          6           0       -0.581886   -1.380939   -0.286427
      2          6           0       -0.033711    0.027835    0.033673
      3          9           0       -0.551060    0.923554   -0.810414
      4          9           0       -0.360066    0.358822    1.292640
      5         16           0        1.878483    0.129624    0.030236
      6          8           0        1.350686    0.480033    2.686276
      7          8           0        2.325686   -0.480637   -1.220775
      8          8           0        1.922096    1.748565   -0.089370
      9          9           0       -0.436135   -1.650235   -1.574106
     10          9           0        0.085380   -2.282360    0.431870
     11          9           0       -1.871683   -1.452820    0.026060
     12          1           0        1.659295    2.040167   -0.975440
 ---------------------------------------------------------------------

 ******    1 imaginary frequencies (negative Signs) ******

                      1                      2                      3
                      A                      A                      A
 Frequencies --   -369.4408                38.8800                59.7192
 Red. masses --     17.0531                15.7426                17.9325
 Frc consts  --      1.3713                 0.0140                 0.0377
 IR Inten    --     84.1101                 0.5677                 0.0633

                      4                      5                      6
                      A                      A                      A
 Frequencies --     81.3136               128.0001               175.2981
 Red. masses --     10.7710                15.6144                12.0107
 Frc consts  --      0.0420                 0.1507                 0.2175
 IR Inten    --      1.6502                 0.4371                 9.2261

                      7                      8                      9
                      A                      A                      A
 Frequencies --    210.0575               226.3222               240.0901
 Red. masses --     12.4250                15.5282                 5.7154
 Frc consts  --      0.3230                 0.4686                 0.1941
 IR Inten    --      2.9162                 4.9968                10.2301

                     10                     11                     12
                      A                      A                      A
 Frequencies --    280.5520               329.4570               354.0153
 Red. masses --     15.2397                14.5710                 2.0369
 Frc consts  --      0.7067                 0.9318                 0.1504
 IR Inten    --      0.4676                 3.3831                34.4681

                     13                     14                     15
                      A                      A                      A
 Frequencies --    375.1317               410.6001               475.9331
 Red. masses --     14.8724                14.8251                 2.6879
 Frc consts  --      1.2331                 1.4726                 0.3587
 IR Inten    --      2.8009                21.6158               129.1571

                     16                     17                     18
                      A                      A                      A
 Frequencies --    515.9510               544.6723               603.0947
 Red. masses --     12.4090                18.0864                16.7589
 Frc consts  --      1.9463                 3.1613                 3.5914
 IR Inten    --     32.7725                 5.0021                 9.3518

                     19                     20                     21
                      A                      A                      A
 Frequencies --    631.5706               758.7635               778.3069
 Red. masses --     17.1744                17.0684                16.3787
 Frc consts  --      4.0362                 5.7897                 5.8456
 IR Inten    --     14.2670                49.4995               172.4292

                     22                     23                     24
                      A                      A                      A
 Frequencies --    961.0745              1108.6144              1119.6415
 Red. masses --     13.4954                 3.9621                 1.6903
 Frc consts  --      7.3443                 2.8690                 1.2485
 IR Inten    --     82.8671                19.7100                97.8753

                     25                     26                     27
                      A                      A                      A
 Frequencies --   1201.7285              1220.7502              1237.9712
 Red. masses --     12.6561                 8.2904                12.4769
 Frc consts  --     10.7687                 7.2792                11.2662
 IR Inten    --    141.7457                53.7935               226.1630

                     28                     29                     30
                      A                      A                      A
 Frequencies --   1258.2265              1347.2045              3778.9347
 Red. masses --     11.1159                12.6413                 1.0655
 Frc consts  --     10.3684                13.5179                 8.9649
 IR Inten    --    372.8189               170.9533               128.2607

 - Thermochemistry -
 -------------------
 Temperature   298.150 Kelvin.  Pressure   1.00000 Atm.
 Atom     1 has atomic number  6 and mass  12.00000

 Molecular mass:   199.95666 amu.
 Principal axes and moments of inertia in atomic units:
                           1         2         3
     Eigenvalues --  1374.213712188.453802499.11607
           X            0.74381  -0.40426  -0.53228
           Y            0.62848   0.15195   0.76284
           Z            0.22751   0.90193  -0.36709
 This molecule is an asymmetric top.
 Rotational symmetry number  1.
 Warning -- assumption of classical behavior for rotation
           may cause significant error
 Rotational temperatures (Kelvin)      0.06303     0.03958     0.03466
 Rotational constants (GHZ):           1.31329     0.82466     0.72215
    1 imaginary frequencies ignored.
 Zero-point vibrational energy     122329.4 (Joules/Mol)
                                   29.23742 (Kcal/Mol)
 Warning -- explicit consideration of  17 degrees of freedom as
           vibrations may cause significant error
 Vibrational temperatures:     55.94    85.92   116.99   184.16   252.21
          (Kelvin)            302.23   325.63   345.44   403.65   474.02
                              509.35   539.73   590.76   684.76   742.34
                              783.66   867.72   908.69  1091.69  1119.81
                             1382.77  1595.05  1610.91  1729.02  1756.39
                             1781.16  1810.31  1938.33  5437.04

 Zero-point correction=                           0.046593 (Hartree/Particle)
 Thermal correction to Energy=                    0.057823
 Thermal correction to Enthalpy=                  0.058768
 Thermal correction to Gibbs Free Energy=         0.008186
 Sum of electronic and zero-point Energies=          -1199.544441
 Sum of electronic and thermal Energies=             -1199.533211
 Sum of electronic and thermal Enthalpies=           -1199.532266
 Sum of electronic and thermal Free Energies=        -1199.582848

                     E (Thermal)             CV                S
                      KCal/Mol        Cal/Mol-Kelvin    Cal/Mol-Kelvin
 Total                   36.285             37.845            106.458
 Electronic               0.000              0.000              0.000
 Translational            0.889              2.981             41.783
 Rotational               0.889              2.981             30.398
 Vibrational             34.507             31.884             34.277
 Vibration     1          0.594              1.981              5.315
 Vibration     2          0.597              1.974              4.466
 Vibration     3          0.600              1.962              3.859
 Vibration     4          0.611              1.925              2.976
 Vibration     5          0.627              1.873              2.378
 Vibration     6          0.642              1.825              2.043
 Vibration     7          0.650              1.801              1.908
 Vibration     8          0.657              1.779              1.802
 Vibration     9          0.680              1.710              1.530
 Vibration    10          0.712              1.617              1.263
 Vibration    11          0.730              1.567              1.148
 Vibration    12          0.746              1.523              1.059
 Vibration    13          0.775              1.447              0.924
 Vibration    14          0.833              1.303              0.721
 Vibration    15          0.871              1.215              0.619
 Vibration    16          0.900              1.151              0.555
 Vibration    17          0.961              1.025              0.444

 Normal termination of Gaussian 16 at Fri May 23 07:41:02 2025.
