 Gaussian 16, Revision C.01,
 Gaussian 16:  ES64L-G16RevC.01  3-Jul-2019

 ----------------------------------------------------------------------
 #P wb97xd/6-311++G(d,p) Symm(None) scf(xqc) pop(None) freq opt(CalcFC,
  Tight)
 ----------------------------------------------------------------------

 ------------------------------
 Gaussian input prepared by ASE
 ------------------------------
 Symbolic Z-matrix:
 Charge =  0 Multiplicity = 1

 SCF Done:  E(RwB97XD) =  -1199.82269980     A.U. after   14 cycles
 SCF Done:  E(RwB97XD) =  -1199.82748282     A.U. after   14 cycles
 SCF Done:  E(RwB97XD) =  -1199.82592135     A.U. after   15 cycles
 SCF Done:  E(RwB97XD) =  -1199.82799946     A.U. after   13 cycles
 SCF Done:  E(RwB97XD) =  -1199.82808957     A.U. after   14 cycles
 SCF Done:  E(RwB97XD) =  -1199.82832684     A.U. after   12 cycles
 SCF Done:  E(RwB97XD) =  -1199.82844791     A.U. after   13 cycles
 SCF Done:  E(RwB97XD) =  -1199.82845730     A.U. after   12 cycles
 SCF Done:  E(RwB97XD) =  -1199.82848074     A.U. after   11 cycles
 SCF Done:  E(RwB97XD) =  -1199.82848199     A.U. after   10 cycles
 SCF Done:  E(RwB97XD) =  -1199.82848208     A.U. after    8 cycles
 SCF Done:  E(RwB97XD) =  -1199.82848208     A.U. after    7 cycles
 SCF Done:  E(RwB97XD) =  -1199.82848208     A.U. after    7 cycles
 Optimization completed.
    -- Stationary point found.
 Normal termination of Gaussian 16 at Fri May 23 04:31:22 2025.

 ----------------------------------------------------------------------
 #P Geom=AllCheck Guess=TCheck SCRF=Check GenChk RwB97XD/6-311++G(d,p)
 Freq
 ----------------------------------------------------------------------

 Structure from the checkpoint file:  "/tmp/Gau-225487.chk"
 ------------------------------
 Gaussian input prepared by ASE
 ------------------------------
 Charge =  0 Multiplicity = 1

                          Input orientation:
 ---------------------------------------------------------------------
 Center     Atomic      Atomic             Coordinates (Angstroms)
 Number     Number       Type             X           Y           Z
 ---------------------------------------------------------------------
      1          6           0        0.043955   -0.122624   -0.110023
      2          6           0        1.585496    0.087734    0.001919
      3          9           0        1.313064   -2.004557    1.722325
      4          9           0        2.155925   -0.397915   -1.099634
      5         16           0        2.368633   -0.822801    1.483974
      6          8           0        2.243209    0.072124    2.598448
      7          8           0        3.595925   -1.434138    1.095794
      8          8           0        1.921809    1.388987    0.133511
      9          9           0       -0.264755   -1.377201   -0.397018
     10          9           0       -0.538198    0.225586    1.040343
     11          9           0       -0.422527    0.662779   -1.073080
     12          1           0        1.717368    1.709736    1.021407
 ---------------------------------------------------------------------

 SCF Done:  E(RwB97XD) =  -1199.82848208     A.U. after    1 cycles

 Isotropic polarizability for W=    0.000000       56.29 Bohr**3.
 End of Minotr F.D. properties file   721 does not exist.

                      1                      2                      3
                      A                      A                      A
 Frequencies --     34.1508                71.7745               145.0822
 Red. masses --     14.8293                16.7699                17.4204
 Frc consts  --      0.0102                 0.0509                 0.2160
 IR Inten    --      1.4293                 0.2650                 1.8172

                      4                      5                      6
                      A                      A                      A
 Frequencies --    200.6154               214.7732               227.7187
 Red. masses --      9.2231                14.3903                 6.4735
 Frc consts  --      0.2187                 0.3911                 0.1978
 IR Inten    --     10.9129                 3.3041                21.2648

                      7                      8                      9
                      A                      A                      A
 Frequencies --    259.3022               298.5115               319.9693
 Red. masses --      3.0028                 2.7798                 9.8550
 Frc consts  --      0.1190                 0.1459                 0.5945
 IR Inten    --     74.4864                38.0043                 7.5490

                     10                     11                     12
                      A                      A                      A
 Frequencies --    331.7186               375.4799               421.1416
 Red. masses --      7.3900                 6.6512                15.9627
 Frc consts  --      0.4791                 0.5525                 1.6681
 IR Inten    --     24.1235                11.5688                18.5135

                     13                     14                     15
                      A                      A                      A
 Frequencies --    465.3954               493.8815               535.4304
 Red. masses --     17.3213                13.9572                13.5721
 Frc consts  --      2.2104                 2.0058                 2.2925
 IR Inten    --     17.0062                 4.2733                28.3155

                     16                     17                     18
                      A                      A                      A
 Frequencies --    604.3551               605.8047               655.3535
 Red. masses --     20.6983                14.4836                12.0484
 Frc consts  --      4.4542                 3.1318                 3.0488
 IR Inten    --    114.2146                 2.2205                12.6325

                     19                     20                     21
                      A                      A                      A
 Frequencies --    747.5426               788.4186               946.4500
 Red. masses --     16.1986                19.3202                10.0238
 Frc consts  --      5.3333                 7.0758                 5.2903
 IR Inten    --     59.2158               136.2681               125.3633

                     22                     23                     24
                      A                      A                      A
 Frequencies --   1107.8934              1203.7254              1219.7645
 Red. masses --      3.4180                 5.1143                11.1598
 Frc consts  --      2.4718                 4.3661                 9.7827
 IR Inten    --    118.8230               109.7114               186.4541

                     25                     26                     27
                      A                      A                      A
 Frequencies --   1235.7868              1256.9211              1324.8259
 Red. masses --      9.3189                12.7630                 6.9269
 Frc consts  --      8.3850                11.8801                 7.1632
 IR Inten    --    238.4023               393.1525                51.4386

                     28                     29                     30
                      A                      A                      A
 Frequencies --   1374.4856              1443.2009              3825.1461
 Red. masses --      2.7740                13.7654                 1.0661
 Frc consts  --      3.0877                16.8925                 9.1902
 IR Inten    --    116.3516               286.0636               119.8965

 - Thermochemistry -
 -------------------
 Temperature   298.150 Kelvin.  Pressure   1.00000 Atm.
 Atom     1 has atomic number  6 and mass  12.00000

 Molecular mass:   199.95666 amu.
 Principal axes and moments of inertia in atomic units:
                           1         2         3
     Eigenvalues --  1163.012222144.658612299.54708
           X            0.75970   0.63378  -0.14555
           Y           -0.29718   0.53746   0.78919
           Z            0.57840  -0.55629   0.59666
 This molecule is an asymmetric top.
 Rotational symmetry number  1.
 Warning -- assumption of classical behavior for rotation
           may cause significant error
 Rotational temperatures (Kelvin)      0.07447     0.04039     0.03767
 Rotational constants (GHZ):           1.55178     0.84151     0.78482
 Zero-point vibrational energy     135983.2 (Joules/Mol)
                                   32.50077 (Kcal/Mol)
 Warning -- explicit consideration of  17 degrees of freedom as
           vibrations may cause significant error
 Vibrational temperatures:     49.14   103.27   208.74   288.64   309.01
          (Kelvin)            327.64   373.08   429.49   460.36   477.27
                              540.23   605.93   669.60   710.59   770.36
                              869.53   871.62   942.91  1075.55  1134.36
                             1361.73  1594.01  1731.89  1754.97  1778.02
                             1808.43  1906.13  1977.58  2076.44  5503.53

 Zero-point correction=                           0.051793 (Hartree/Particle)
 Thermal correction to Energy=                    0.062305
 Thermal correction to Enthalpy=                  0.063249
 Thermal correction to Gibbs Free Energy=         0.014762
 Sum of electronic and zero-point Energies=          -1199.776689
 Sum of electronic and thermal Energies=             -1199.766177
 Sum of electronic and thermal Enthalpies=           -1199.765233
 Sum of electronic and thermal Free Energies=        -1199.813720

                     E (Thermal)             CV                S
                      KCal/Mol        Cal/Mol-Kelvin    Cal/Mol-Kelvin
 Total                   39.097             36.830            102.050
 Electronic               0.000              0.000              0.000
 Translational            0.889              2.981             41.783
 Rotational               0.889              2.981             30.129
 Vibrational             37.320             30.868             30.138
 Vibration     1          0.594              1.983              5.572
 Vibration     2          0.598              1.967              4.104
 Vibration     3          0.616              1.908              2.736
 Vibration     4          0.638              1.839              2.127
 Vibration     5          0.645              1.818              2.003
 Vibration     6          0.651              1.799              1.897
 Vibration     7          0.668              1.747              1.666
 Vibration     8          0.692              1.676              1.425
 Vibration     9          0.706              1.635              1.310
 Vibration    10          0.714              1.612              1.252
 Vibration    11          0.746              1.522              1.057
 Vibration    12          0.784              1.424              0.888
 Vibration    13          0.823              1.327              0.751
 Vibration    14          0.850              1.264              0.674
 Vibration    15          0.890              1.172              0.575
 Vibration    16          0.963              1.023              0.442
 Vibration    17          0.964              1.020              0.440

 Optimization completed.
    -- Stationary point found.
 Normal termination of Gaussian 16 at Fri May 23 04:32:32 2025.
