 Gaussian 16, Revision C.01,
 Gaussian 16:  ES64L-G16RevC.01  3-Jul-2019

 ------------------------------------------
 #P am1 Symm(None) scf(xqc) pop(None) force
 ------------------------------------------

 ------------------------------
 Gaussian input prepared by ASE
 ------------------------------
 Symbolic Z-matrix:
 Charge =  0 Multiplicity = 1

                          Input orientation:
 ---------------------------------------------------------------------
 Center     Atomic      Atomic             Coordinates (Angstroms)
 Number     Number       Type             X           Y           Z
 ---------------------------------------------------------------------
      1          6           0       -0.908047   -0.389628    1.104903
      2          6           0        0.080265    0.394013    0.214403
      3          9           0       -0.247792    0.301823   -1.063376
      4          9           0       -0.010346    1.714215    0.464858
      5         16           0        1.911795   -0.099154    0.558612
      6          8           0        1.756141    2.428289    1.431574
      7          8           0        2.120929   -1.394619   -0.065095
      8          8           0        2.614346    0.814670   -0.570560
      9          9           0       -1.090079   -1.638801    0.710168
     10          9           0       -0.509000   -0.468024    2.374016
     11          9           0       -2.118908    0.154328    1.155309
     12          1           0        2.451117    1.780922   -0.496517
 ---------------------------------------------------------------------

 SCF Done:  E(RAM1) =  0.409606002289     A.U. after   33 cycles
 SCF Done:  E(RAM1) =  0.403718283722     a.u. after    7 cycles
 Normal termination of Gaussian 16 at Fri May 23 07:30:12 2025.
