 Gaussian 16, Revision C.01,
 Gaussian 16:  ES64L-G16RevC.01  3-Jul-2019

 ----------------------------------------------------------------------
 #P wb97xd/6-311++G(d,p) Symm(None) scf(xqc) pop(None) opt(NoFreeze,TS,
 CalcAll,NoEigentest,MaxCycle=999)
 ----------------------------------------------------------------------

 ------------------------------
 Gaussian input prepared by ASE
 ------------------------------
 Symbolic Z-matrix:
 Charge =  0 Multiplicity = 1

 SCF Done:  E(RwB97XD) =  -1199.60762609     A.U. after   21 cycles
 SCF Done:  E(RwB97XD) =  -1199.63593793     A.U. after   17 cycles
 SCF Done:  E(RwB97XD) =  -1199.66048071     A.U. after   17 cycles
 SCF Done:  E(RwB97XD) =  -1199.66312040     A.U. after   15 cycles
 SCF Done:  E(RwB97XD) =  -1199.66300304     A.U. after   17 cycles
 SCF Done:  E(RwB97XD) =  -1199.66364947     A.U. after   15 cycles
 SCF Done:  E(RwB97XD) =  -1199.66367194     A.U. after   13 cycles
 SCF Done:  E(RwB97XD) =  -1199.66367269     A.U. after   12 cycles

 Isotropic polarizability for W=    0.000000       72.61 Bohr**3.
 End of Minotr F.D. properties file   721 does not exist.

 Optimization completed.
    -- Stationary point found.

                          Input orientation:
 ---------------------------------------------------------------------
 Center     Atomic      Atomic             Coordinates (Angstroms)
 Number     Number       Type             X           Y           Z
 ---------------------------------------------------------------------
      1          6           0       -0.231568   -1.327380    0.084820
      2          6           0        0.070626    0.036644    0.115020
      3          9           0       -0.268374    0.743894   -0.953985
      4          9           0       -0.136143    0.676986    1.247356
      5         16           0        2.465650   -0.124024    0.014907
      6          8           0        2.871535   -0.369662    1.364982
      7          8           0        3.204972   -0.216726   -1.218233
      8          8           0        2.133673    1.499747    0.060712
      9          9           0       -0.326203   -2.011944    1.154244
     10          9           0        1.777774   -1.860704   -0.229242
     11          9           0       -0.576943   -1.925350   -0.986774
     12          1           0        2.232782    1.847538   -0.834814
 ---------------------------------------------------------------------

 ******    1 imaginary frequencies (negative Signs) ******

                      1                      2                      3
                      A                      A                      A
 Frequencies --   -573.8640                31.2231                60.9580
 Red. masses --     12.7052                15.1540                12.1659
 Frc consts  --      2.4652                 0.0087                 0.0266
 IR Inten    --    193.6691                 1.7779                 2.6485

                      4                      5                      6
                      A                      A                      A
 Frequencies --    160.2384               170.3265               202.6178
 Red. masses --     18.7894                17.0274                17.4273
 Frc consts  --      0.2842                 0.2910                 0.4215
 IR Inten    --     16.8867                11.0980                 0.1661

                      7                      8                      9
                      A                      A                      A
 Frequencies --    211.0411               240.0671               274.0297
 Red. masses --     17.4043                15.5630                10.7906
 Frc consts  --      0.4567                 0.5285                 0.4774
 IR Inten    --      1.9347                 3.2476                 8.4139

                     10                     11                     12
                      A                      A                      A
 Frequencies --    317.8032               366.7322               388.3378
 Red. masses --      7.3255                 1.8308                14.2243
 Frc consts  --      0.4359                 0.1451                 1.2639
 IR Inten    --      8.8014                29.0181                17.9664

                     13                     14                     15
                      A                      A                      A
 Frequencies --    407.0427               443.3412               480.6362
 Red. masses --     15.6441                 5.6714                 3.8661
 Frc consts  --      1.5271                 0.6568                 0.5262
 IR Inten    --     26.3062               230.9016                 3.7157

                     16                     17                     18
                      A                      A                      A
 Frequencies --    512.0586               548.2921               560.2269
 Red. masses --     10.6992                16.7552                14.4428
 Frc consts  --      1.6529                 2.9677                 2.6707
 IR Inten    --    239.2542                 1.3657               138.5708

                     19                     20                     21
                      A                      A                      A
 Frequencies --    594.4715               646.3431               717.7127
 Red. masses --     16.5713                13.2632                16.7291
 Frc consts  --      3.4504                 3.2646                 5.0772
 IR Inten    --      4.3433                 9.3213               183.0452

                     22                     23                     24
                      A                      A                      A
 Frequencies --    812.9750              1114.8649              1149.1311
 Red. masses --     17.7519                 9.7592                 1.2705
 Frc consts  --      6.9127                 7.1468                 0.9884
 IR Inten    --     59.2816               228.1234               101.0071

                     25                     26                     27
                      A                      A                      A
 Frequencies --   1209.6797              1306.0128              1423.2849
 Red. masses --     13.7624                13.1149                12.4245
 Frc consts  --     11.8655                13.1798                14.8290
 IR Inten    --    321.6006               155.3797               187.3760

                     28                     29                     30
                      A                      A                      A
 Frequencies --   1479.0131              1606.0069              3836.7073
 Red. masses --     13.2365                12.4014                 1.0664
 Frc consts  --     17.0595                18.8459                 9.2486
 IR Inten    --    340.1333               813.9418               165.3870

 - Thermochemistry -
 -------------------
 Temperature   298.150 Kelvin.  Pressure   1.00000 Atm.
 Atom     1 has atomic number  6 and mass  12.00000

 Molecular mass:   199.95666 amu.
 Principal axes and moments of inertia in atomic units:
                           1         2         3
     Eigenvalues --  1312.394122074.110132351.70604
           X            0.90882  -0.41214   0.06471
           Y            0.41578   0.90754  -0.05916
           Z           -0.03434   0.08067   0.99615
 This molecule is an asymmetric top.
 Rotational symmetry number  1.
 Warning -- assumption of classical behavior for rotation
           may cause significant error
 Rotational temperatures (Kelvin)      0.06600     0.04176     0.03683
 Rotational constants (GHZ):           1.37515     0.87013     0.76742
    1 imaginary frequencies ignored.
 Zero-point vibrational energy     127229.9 (Joules/Mol)
                                   30.40867 (Kcal/Mol)
 Warning -- explicit consideration of  18 degrees of freedom as
           vibrations may cause significant error
 Vibrational temperatures:     44.92    87.71   230.55   245.06   291.52
          (Kelvin)            303.64   345.40   394.27   457.25   527.65
                              558.73   585.64   637.87   691.53   736.74
                              788.87   806.04   855.31   929.94  1032.63
                             1169.69  1604.04  1653.34  1740.46  1879.06
                             2047.79  2127.97  2310.69  5520.17

 Zero-point correction=                           0.048459 (Hartree/Particle)
 Thermal correction to Energy=                    0.059296
 Thermal correction to Enthalpy=                  0.060241
 Thermal correction to Gibbs Free Energy=         0.010918
 Sum of electronic and zero-point Energies=          -1199.615213
 Sum of electronic and thermal Energies=             -1199.604376
 Sum of electronic and thermal Enthalpies=           -1199.603432
 Sum of electronic and thermal Free Energies=        -1199.652754

                     E (Thermal)             CV                S
                      KCal/Mol        Cal/Mol-Kelvin    Cal/Mol-Kelvin
 Total                   37.209             37.617            103.807
 Electronic               0.000              0.000              0.000
 Translational            0.889              2.981             41.783
 Rotational               0.889              2.981             30.238
 Vibrational             35.432             31.656             31.786
 Vibration     1          0.594              1.983              5.750
 Vibration     2          0.597              1.973              4.426
 Vibration     3          0.622              1.891              2.547
 Vibration     4          0.625              1.879              2.432
 Vibration     5          0.639              1.836              2.109
 Vibration     6          0.643              1.824              2.035
 Vibration     7          0.657              1.779              1.802
 Vibration     8          0.676              1.721              1.571
 Vibration     9          0.704              1.640              1.321
 Vibration    10          0.740              1.541              1.093
 Vibration    11          0.757              1.495              1.007
 Vibration    12          0.772              1.455              0.937
 Vibration    13          0.803              1.376              0.816
 Vibration    14          0.837              1.293              0.708
 Vibration    15          0.867              1.223              0.629
 Vibration    16          0.904              1.143              0.548
 Vibration    17          0.916              1.117              0.523
 Vibration    18          0.952              1.044              0.459

 Normal termination of Gaussian 16 at Fri May 23 05:03:34 2025.
