 Gaussian 16, Revision C.01,
 Gaussian 16:  ES64L-G16RevC.01  3-Jul-2019

 ----------------------------------------------------------------------
 #P wb97xd/6-311++G(d,p) Symm(None) scf(xqc) pop(None) freq opt(CalcFC,
  Tight)
 ----------------------------------------------------------------------

 ------------------------------
 Gaussian input prepared by ASE
 ------------------------------
 Symbolic Z-matrix:
 Charge =  0 Multiplicity = 1

 SCF Done:  E(RwB97XD) =  -1199.58813506     A.U. after   18 cycles
 SCF Done:  E(RwB97XD) =  -1199.60010901     A.U. after   19 cycles
 SCF Done:  E(RwB97XD) =  -1199.60032934     A.U. after   18 cycles
 SCF Done:  E(RwB97XD) =  -1199.60066050     A.U. after   18 cycles
 SCF Done:  E(RwB97XD) =  -1199.60225075     A.U. after   20 cycles
 SCF Done:  E(RwB97XD) =  -1199.59801483     A.U. after   19 cycles
 SCF Done:  E(RwB97XD) =  -1199.60296373     A.U. after   18 cycles
 SCF Done:  E(RwB97XD) =  -1199.60320878     A.U. after   17 cycles
 SCF Done:  E(RwB97XD) =  -1199.60334381     A.U. after   17 cycles
 SCF Done:  E(RwB97XD) =  -1199.60345813     A.U. after   15 cycles
 SCF Done:  E(RwB97XD) =  -1199.60355228     A.U. after   16 cycles
 SCF Done:  E(RwB97XD) =  -1199.60356142     A.U. after   12 cycles
 SCF Done:  E(RwB97XD) =  -1199.60357115     A.U. after   15 cycles
 SCF Done:  E(RwB97XD) =  -1199.60357387     A.U. after   13 cycles
 SCF Done:  E(RwB97XD) =  -1199.60357421     A.U. after   12 cycles
 SCF Done:  E(RwB97XD) =  -1199.60357437     A.U. after   11 cycles
 SCF Done:  E(RwB97XD) =  -1199.60357441     A.U. after   11 cycles
 SCF Done:  E(RwB97XD) =  -1199.60357441     A.U. after    9 cycles
 SCF Done:  E(RwB97XD) =  -1199.60357441     A.U. after    8 cycles
 Optimization completed.
    -- Stationary point found.
 Normal termination of Gaussian 16 at Fri May 23 07:36:06 2025.

 ----------------------------------------------------------------------
 #P Geom=AllCheck Guess=TCheck SCRF=Check GenChk RwB97XD/6-311++G(d,p)
 Freq
 ----------------------------------------------------------------------

 Structure from the checkpoint file:  "/tmp/Gau-95003.chk"
 ------------------------------
 Gaussian input prepared by ASE
 ------------------------------
 Charge =  0 Multiplicity = 1

                          Input orientation:
 ---------------------------------------------------------------------
 Center     Atomic      Atomic             Coordinates (Angstroms)
 Number     Number       Type             X           Y           Z
 ---------------------------------------------------------------------
      1          6           0       -0.667319    0.528636   -1.378570
      2          6           0       -0.092671    0.134010    0.016531
      3          9           0       -0.568669    0.933883    0.948509
      4          9           0       -0.600321   -1.157450    0.261322
      5         16           0        1.798205   -0.042867    0.243599
      6          8           0        0.106688   -1.744223    1.640808
      7          8           0        2.234357   -1.091251   -0.663863
      8          8           0        1.957682    1.438952   -0.508720
      9          9           0       -0.561952    1.834338   -1.554715
     10          9           0       -0.029510   -0.109257   -2.344288
     11          9           0       -1.958844    0.199562   -1.422793
     12          1           0        2.755328    1.873890   -0.190812
 ---------------------------------------------------------------------

 SCF Done:  E(RwB97XD) =  -1199.60357441     A.U. after    1 cycles

 Isotropic polarizability for W=    0.000000       61.96 Bohr**3.
 End of Minotr F.D. properties file   721 does not exist.

                      1                      2                      3
                      A                      A                      A
 Frequencies --     40.4284                83.6101               104.1705
 Red. masses --     13.0556                11.4246                16.2659
 Frc consts  --      0.0126                 0.0471                 0.1040
 IR Inten    --      1.4846                 3.4713                 1.6101

                      4                      5                      6
                      A                      A                      A
 Frequencies --    142.1013               156.7831               192.3099
 Red. masses --     14.3391                12.2268                12.9835
 Frc consts  --      0.1706                 0.1771                 0.2829
 IR Inten    --      0.2192                 6.4145                 7.6841

                      7                      8                      9
                      A                      A                      A
 Frequencies --    206.9625               233.1661               252.2180
 Red. masses --      2.3163                 6.0746                 3.4129
 Frc consts  --      0.0585                 0.1946                 0.1279
 IR Inten    --     60.1502                26.2435                22.9435

                     10                     11                     12
                      A                      A                      A
 Frequencies --    286.7409               321.6964               358.0890
 Red. masses --     16.8960                 7.9157                12.0767
 Frc consts  --      0.8185                 0.4826                 0.9124
 IR Inten    --      1.1777                10.5988                 1.2838

                     13                     14                     15
                      A                      A                      A
 Frequencies --    408.2449               431.5326               476.8153
 Red. masses --      9.6508                14.1888                14.5291
 Frc consts  --      0.9477                 1.5568                 1.9462
 IR Inten    --     26.6528                13.9742                12.3170

                     16                     17                     18
                      A                      A                      A
 Frequencies --    534.0872               558.6969               597.0794
 Red. masses --     17.9223                17.3703                17.5373
 Frc consts  --      3.0121                 3.1945                 3.6836
 IR Inten    --     10.0391                35.0401                25.0052

                     19                     20                     21
                      A                      A                      A
 Frequencies --    630.5674               722.1750               757.1873
 Red. masses --     16.6210                15.1528                16.6402
 Frc consts  --      3.8938                 4.6562                 5.6210
 IR Inten    --      3.8554               129.6314                50.3848

                     22                     23                     24
                      A                      A                      A
 Frequencies --    975.1658               995.5262              1102.6931
 Red. masses --      9.2379                 9.3870                 1.2323
 Frc consts  --      5.1758                 5.4813                 0.8828
 IR Inten    --    220.5410                69.4771                72.8375

                     25                     26                     27
                      A                      A                      A
 Frequencies --   1213.1392              1225.0055              1246.9809
 Red. masses --     12.6502                13.0794                15.8345
 Frc consts  --     10.9690                11.5642                14.5069
 IR Inten    --    150.0800               224.9922                75.5714

                     28                     29                     30
                      A                      A                      A
 Frequencies --   1276.8099              1327.5765              3878.5112
 Red. masses --     14.3298                12.5468                 1.0674
 Frc consts  --     13.7640                13.0287                 9.4601
 IR Inten    --    487.5839               129.9616               164.1070

 - Thermochemistry -
 -------------------
 Temperature   298.150 Kelvin.  Pressure   1.00000 Atm.
 Atom     1 has atomic number  6 and mass  12.00000

 Molecular mass:   199.95666 amu.
 Principal axes and moments of inertia in atomic units:
                           1         2         3
     Eigenvalues --  1443.888951924.855062384.06412
           X            0.73460   0.66957  -0.10973
           Y           -0.37951   0.53954   0.75158
           Z            0.56244  -0.51046   0.65045
 This molecule is an asymmetric top.
 Rotational symmetry number  1.
 Warning -- assumption of classical behavior for rotation
           may cause significant error
 Rotational temperatures (Kelvin)      0.05999     0.04500     0.03633
 Rotational constants (GHZ):           1.24992     0.93760     0.75700
 Zero-point vibrational energy     124029.2 (Joules/Mol)
                                   29.64370 (Kcal/Mol)
 Warning -- explicit consideration of  18 degrees of freedom as
           vibrations may cause significant error
 Vibrational temperatures:     58.17   120.30   149.88   204.45   225.58
          (Kelvin)            276.69   297.77   335.47   362.89   412.56
                              462.85   515.21   587.37   620.88   686.03
                              768.43   803.84   859.06   907.25  1039.05
                             1089.42  1403.05  1432.34  1586.53  1745.44
                             1762.51  1794.13  1837.04  1910.09  5580.31

 Zero-point correction=                           0.047240 (Hartree/Particle)
 Thermal correction to Energy=                    0.058888
 Thermal correction to Enthalpy=                  0.059832
 Thermal correction to Gibbs Free Energy=         0.008983
 Sum of electronic and zero-point Energies=          -1199.556334
 Sum of electronic and thermal Energies=             -1199.544686
 Sum of electronic and thermal Enthalpies=           -1199.543742
 Sum of electronic and thermal Free Energies=        -1199.594592

                     E (Thermal)             CV                S
                      KCal/Mol        Cal/Mol-Kelvin    Cal/Mol-Kelvin
 Total                   36.953             39.663            107.022
 Electronic               0.000              0.000              0.000
 Translational            0.889              2.981             41.783
 Rotational               0.889              2.981             30.272
 Vibrational             35.175             33.701             34.966
 Vibration     1          0.594              1.981              5.238
 Vibration     2          0.601              1.960              3.804
 Vibration     3          0.605              1.946              3.375
 Vibration     4          0.616              1.911              2.775
 Vibration     5          0.620              1.895              2.588
 Vibration     6          0.634              1.851              2.205
 Vibration     7          0.641              1.830              2.070
 Vibration     8          0.654              1.790              1.854
 Vibration     9          0.664              1.759              1.715
 Vibration    10          0.684              1.698              1.493
 Vibration    11          0.707              1.632              1.301
 Vibration    12          0.733              1.559              1.130
 Vibration    13          0.773              1.452              0.933
 Vibration    14          0.793              1.402              0.854
 Vibration    15          0.833              1.301              0.719
 Vibration    16          0.889              1.175              0.578
 Vibration    17          0.914              1.121              0.526
 Vibration    18          0.955              1.038              0.455

 Optimization completed.
    -- Stationary point found.
 Normal termination of Gaussian 16 at Fri May 23 07:37:21 2025.
