 Gaussian 16, Revision C.01,
 Gaussian 16:  ES64L-G16RevC.01  3-Jul-2019

 ----------------------------------------------------------------------
 #P wb97xd/6-311++G(d,p) Symm(None) scf(xqc) pop(None) freq opt(CalcFC,
  Tight)
 ----------------------------------------------------------------------

 ------------------------------
 Gaussian input prepared by ASE
 ------------------------------
 Symbolic Z-matrix:
 Charge =  0 Multiplicity = 1

 SCF Done:  E(RwB97XD) =  -1199.60577281     A.U. after   16 cycles
 SCF Done:  E(RwB97XD) =  -1199.60878425     A.U. after   13 cycles
 SCF Done:  E(RwB97XD) =  -1199.61001951     A.U. after   14 cycles
 SCF Done:  E(RwB97XD) =  -1199.60865570     A.U. after   14 cycles
 SCF Done:  E(RwB97XD) =  -1199.61030635     A.U. after   13 cycles
 SCF Done:  E(RwB97XD) =  -1199.61035084     A.U. after   12 cycles
 SCF Done:  E(RwB97XD) =  -1199.61040137     A.U. after   12 cycles
 SCF Done:  E(RwB97XD) =  -1199.61057771     A.U. after   13 cycles
 SCF Done:  E(RwB97XD) =  -1199.61071086     A.U. after   13 cycles
 SCF Done:  E(RwB97XD) =  -1199.61078124     A.U. after   12 cycles
 SCF Done:  E(RwB97XD) =  -1199.61083050     A.U. after   12 cycles
 SCF Done:  E(RwB97XD) =  -1199.61085634     A.U. after   12 cycles
 SCF Done:  E(RwB97XD) =  -1199.61086038     A.U. after   11 cycles
 SCF Done:  E(RwB97XD) =  -1199.61086050     A.U. after   10 cycles
 SCF Done:  E(RwB97XD) =  -1199.61086051     A.U. after    7 cycles
 SCF Done:  E(RwB97XD) =  -1199.61086051     A.U. after    5 cycles
 Optimization completed.
    -- Stationary point found.
 Normal termination of Gaussian 16 at Fri May 23 05:23:18 2025.

 ----------------------------------------------------------------------
 #P Geom=AllCheck Guess=TCheck SCRF=Check GenChk RwB97XD/6-311++G(d,p)
 Freq
 ----------------------------------------------------------------------

 Structure from the checkpoint file:  "/tmp/Gau-77272.chk"
 ------------------------------
 Gaussian input prepared by ASE
 ------------------------------
 Charge =  0 Multiplicity = 1

                          Input orientation:
 ---------------------------------------------------------------------
 Center     Atomic      Atomic             Coordinates (Angstroms)
 Number     Number       Type             X           Y           Z
 ---------------------------------------------------------------------
      1          6           0        2.689758    0.012976   -2.695537
      2          6           0        2.628886   -0.531292   -1.294390
      3          9           0       -0.438940    0.639841   -1.297578
      4          9           0        2.873701   -1.850419   -1.236937
      5         16           0        1.718125    0.026297   -0.070093
      6          8           0       -0.049439    0.092302   -0.051960
      7          8           0        1.866121   -0.628578    1.194203
      8          8           0        1.949486    1.586490   -0.137383
      9          9           0        2.358047    1.300656   -2.767135
     10          9           0        3.932858   -0.128207   -3.167014
     11          9           0        1.879493   -0.667263   -3.519609
     12          1           0        1.127097    2.064767    0.043154
 ---------------------------------------------------------------------

 SCF Done:  E(RwB97XD) =  -1199.61086051     A.U. after    1 cycles

 Isotropic polarizability for W=    0.000000       63.31 Bohr**3.
 End of Minotr F.D. properties file   721 does not exist.

                      1                      2                      3
                      A                      A                      A
 Frequencies --     37.9133                68.3805                77.0700
 Red. masses --     17.6020                17.1773                16.0683
 Frc consts  --      0.0149                 0.0473                 0.0562
 IR Inten    --      0.1625                 0.3624                 1.4358

                      4                      5                      6
                      A                      A                      A
 Frequencies --    163.3681               184.8093               204.3071
 Red. masses --      8.7491                10.4226                16.6099
 Frc consts  --      0.1376                 0.2097                 0.4085
 IR Inten    --      3.4694                12.3283                 1.9784

                      7                      8                      9
                      A                      A                      A
 Frequencies --    238.6229               297.2480               319.5129
 Red. masses --     12.5981                10.2925                 9.1640
 Frc consts  --      0.4226                 0.5358                 0.5512
 IR Inten    --      2.8230                 9.7761                10.8237

                     10                     11                     12
                      A                      A                      A
 Frequencies --    321.3067               354.9425               373.3805
 Red. masses --     13.4465                 1.3211                14.7634
 Frc consts  --      0.8179                 0.0981                 1.2127
 IR Inten    --      4.6377                91.3049                 9.3089

                     13                     14                     15
                      A                      A                      A
 Frequencies --    426.3145               462.4176               466.0537
 Red. masses --      9.2685                15.9394                14.8767
 Frc consts  --      0.9925                 2.0081                 1.9038
 IR Inten    --     26.2887                 6.2193                29.8731

                     16                     17                     18
                      A                      A                      A
 Frequencies --    544.4424               596.6587               603.0704
 Red. masses --     13.7658                15.5275                16.0792
 Frc consts  --      2.4041                 3.2569                 3.4455
 IR Inten    --     22.8612                 5.2028                 9.7578

                     19                     20                     21
                      A                      A                      A
 Frequencies --    629.6172               766.6674               883.1610
 Red. masses --     12.8925                15.9924                17.5971
 Frc consts  --      3.0112                 5.5383                 8.0867
 IR Inten    --    266.5886                21.6028               173.7422

                     22                     23                     24
                      A                      A                      A
 Frequencies --    956.3999              1082.2826              1167.1435
 Red. masses --     16.9615                 6.9350                 7.8702
 Frc consts  --      9.1410                 4.7861                 6.3166
 IR Inten    --     18.8193               152.5866               373.1092

                     25                     26                     27
                      A                      A                      A
 Frequencies --   1179.4074              1216.6918              1274.5562
 Red. masses --      1.4055                12.3210                12.7243
 Frc consts  --      1.1519                10.7462                12.1787
 IR Inten    --     57.9790               332.3890                30.3829

                     28                     29                     30
                      A                      A                      A
 Frequencies --   1340.0681              1376.8721              3797.9455
 Red. masses --     11.5142                16.7627                 1.0660
 Frc consts  --     12.1826                18.7232                 9.0593
 IR Inten    --    324.0653               252.5690               180.6215

 - Thermochemistry -
 -------------------
 Temperature   298.150 Kelvin.  Pressure   1.00000 Atm.
 Atom     1 has atomic number  6 and mass  12.00000

 Molecular mass:   199.95666 amu.
 Principal axes and moments of inertia in atomic units:
                           1         2         3
     Eigenvalues --  1267.512212280.931332660.40894
           X           -0.54216   0.62727   0.55911
           Y            0.10944  -0.60700   0.78713
           Z            0.83312   0.48794   0.26045
 This molecule is an asymmetric top.
 Rotational symmetry number  1.
 Warning -- assumption of classical behavior for rotation
           may cause significant error
 Rotational temperatures (Kelvin)      0.06833     0.03797     0.03256
 Rotational constants (GHZ):           1.42385     0.79123     0.67837
 Zero-point vibrational energy     128064.0 (Joules/Mol)
                                   30.60803 (Kcal/Mol)
 Warning -- explicit consideration of  18 degrees of freedom as
           vibrations may cause significant error
 Vibrational temperatures:     54.55    98.38   110.89   235.05   265.90
          (Kelvin)            293.95   343.33   427.67   459.71   462.29
                              510.68   537.21   613.37   665.32   670.55
                              783.33   858.46   867.68   905.88  1103.06
                             1270.67  1376.05  1557.16  1679.26  1696.90
                             1750.55  1833.80  1928.06  1981.01  5464.40

 Zero-point correction=                           0.048777 (Hartree/Particle)
 Thermal correction to Energy=                    0.059960
 Thermal correction to Enthalpy=                  0.060904
 Thermal correction to Gibbs Free Energy=         0.010687
 Sum of electronic and zero-point Energies=          -1199.562084
 Sum of electronic and thermal Energies=             -1199.550900
 Sum of electronic and thermal Enthalpies=           -1199.549956
 Sum of electronic and thermal Free Energies=        -1199.600174

                     E (Thermal)             CV                S
                      KCal/Mol        Cal/Mol-Kelvin    Cal/Mol-Kelvin
 Total                   37.626             38.536            105.692
 Electronic               0.000              0.000              0.000
 Translational            0.889              2.981             41.783
 Rotational               0.889              2.981             30.421
 Vibrational             35.848             32.575             33.488
 Vibration     1          0.594              1.982              5.365
 Vibration     2          0.598              1.969              4.199
 Vibration     3          0.599              1.964              3.964
 Vibration     4          0.623              1.887              2.510
 Vibration     5          0.631              1.861              2.279
 Vibration     6          0.640              1.834              2.094
 Vibration     7          0.657              1.781              1.813
 Vibration     8          0.691              1.679              1.432
 Vibration     9          0.705              1.636              1.313
 Vibration    10          0.707              1.633              1.303
 Vibration    11          0.731              1.565              1.144
 Vibration    12          0.745              1.527              1.066
 Vibration    13          0.788              1.413              0.871
 Vibration    14          0.820              1.333              0.759
 Vibration    15          0.823              1.325              0.749
 Vibration    16          0.900              1.152              0.556
 Vibration    17          0.955              1.039              0.455
 Vibration    18          0.961              1.025              0.444

 Optimization completed.
    -- Stationary point found.
 Normal termination of Gaussian 16 at Fri May 23 05:24:58 2025.
