 Gaussian 16, Revision C.01,
 Gaussian 16:  ES64L-G16RevC.01  3-Jul-2019

 ------------------------------------------
 #P am1 Symm(None) scf(xqc) pop(None) force
 ------------------------------------------

 ------------------------------
 Gaussian input prepared by ASE
 ------------------------------
 Symbolic Z-matrix:
 Charge =  0 Multiplicity = 1

                          Input orientation:
 ---------------------------------------------------------------------
 Center     Atomic      Atomic             Coordinates (Angstroms)
 Number     Number       Type             X           Y           Z
 ---------------------------------------------------------------------
      1          6           0       -0.915933   -0.448472    1.062891
      2          6           0        0.080133    0.467750    0.319767
      3          9           0       -0.203141    0.547218   -0.969528
      4          9           0       -0.051075    1.738422    0.746439
      5         16           0        1.915901   -0.026195    0.639414
      6          8           0        1.858089    2.598265    1.171508
      7          8           0        2.062900   -1.399791    0.189302
      8          8           0        2.589987    0.703224   -0.632292
      9          9           0       -1.032138   -1.648888    0.519859
     10          9           0       -0.570819   -0.655612    2.333332
     11          9           0       -2.148129    0.045179    1.114008
     12          1           0        2.464647    1.676935   -0.676405
 ---------------------------------------------------------------------

 SCF Done:  E(RAM1) =  0.391823226882     A.U. after   33 cycles
 SCF Done:  E(RAM1) =  0.391766104992     a.u. after    6 cycles
 Normal termination of Gaussian 16 at Fri May 23 07:30:06 2025.
