 Gaussian 16, Revision C.01,
 Gaussian 16:  ES64L-G16RevC.01  3-Jul-2019

 ----------------------------------------------------------------------
 #P wb97xd/6-311++G(d,p) Symm(None) scf(xqc) pop(None) freq opt(CalcFC,
  Tight)
 ----------------------------------------------------------------------

 ------------------------------
 Gaussian input prepared by ASE
 ------------------------------
 Symbolic Z-matrix:
 Charge =  0 Multiplicity = 1

 SCF Done:  E(RwB97XD) =  -1199.71911456     A.U. after   15 cycles
 SCF Done:  E(RwB97XD) =  -1199.73438600     A.U. after   15 cycles
 SCF Done:  E(RwB97XD) =  -1199.73062998     A.U. after   14 cycles
 SCF Done:  E(RwB97XD) =  -1199.73055974     A.U. after   16 cycles
 SCF Done:  E(RwB97XD) =  -1199.73312578     A.U. after   13 cycles
 SCF Done:  E(RwB97XD) =  -1199.73529249     A.U. after   13 cycles
 SCF Done:  E(RwB97XD) =  -1199.72120890     A.U. after   15 cycles
 SCF Done:  E(RwB97XD) =  -1199.73736069     A.U. after   13 cycles
 SCF Done:  E(RwB97XD) =  -1199.73851948     A.U. after   13 cycles
 SCF Done:  E(RwB97XD) =  -1199.73912701     A.U. after   13 cycles
 SCF Done:  E(RwB97XD) =  -1199.73927006     A.U. after   11 cycles
 SCF Done:  E(RwB97XD) =  -1199.73927234     A.U. after   11 cycles
 SCF Done:  E(RwB97XD) =  -1199.73927262     A.U. after    9 cycles
 SCF Done:  E(RwB97XD) =  -1199.73927271     A.U. after    8 cycles
 SCF Done:  E(RwB97XD) =  -1199.73927272     A.U. after    7 cycles
 SCF Done:  E(RwB97XD) =  -1199.73927273     A.U. after    7 cycles
 SCF Done:  E(RwB97XD) =  -1199.73927273     A.U. after    5 cycles
 SCF Done:  E(RwB97XD) =  -1199.73927272     A.U. after    7 cycles
 SCF Done:  E(RwB97XD) =  -1199.73927273     A.U. after    7 cycles
 Optimization completed.
    -- Stationary point found.
 Normal termination of Gaussian 16 at Fri May 23 05:22:00 2025.

 ----------------------------------------------------------------------
 #P Geom=AllCheck Guess=TCheck SCRF=Check GenChk RwB97XD/6-311++G(d,p)
 Freq
 ----------------------------------------------------------------------

 Structure from the checkpoint file:  "/tmp/Gau-3266.chk"
 ------------------------------
 Gaussian input prepared by ASE
 ------------------------------
 Charge =  0 Multiplicity = 1

                          Input orientation:
 ---------------------------------------------------------------------
 Center     Atomic      Atomic             Coordinates (Angstroms)
 Number     Number       Type             X           Y           Z
 ---------------------------------------------------------------------
      1          6           0        1.045018    2.402914   -2.848336
      2          6           0       -0.270194    1.797905   -2.294959
      3          9           0       -1.301785    2.412904   -2.903760
      4          9           0       -0.332339    0.499675   -2.548272
      5         16           0       -0.603887    2.141831   -0.436944
      6          8           0        1.235275    0.371299   -0.094096
      7          8           0       -1.569800    1.104540   -0.073783
      8          8           0        0.908760    1.728514    0.163772
      9          9           0        1.168932    3.655133   -2.397491
     10          9           0        2.098747    1.700057   -2.471944
     11          9           0        1.004070    2.433993   -4.177177
     12          1           0        0.820189   -0.085902    0.649994
 ---------------------------------------------------------------------

 SCF Done:  E(RwB97XD) =  -1199.73927273     A.U. after    1 cycles

 Isotropic polarizability for W=    0.000000       60.27 Bohr**3.
 End of Minotr F.D. properties file   721 does not exist.

                      1                      2                      3
                      A                      A                      A
 Frequencies --     50.5330                63.8093               109.5438
 Red. masses --     14.6069                16.1283                11.5674
 Frc consts  --      0.0220                 0.0387                 0.0818
 IR Inten    --      0.1941                 0.0946                 1.4948

                      4                      5                      6
                      A                      A                      A
 Frequencies --    133.5215               191.9962               214.4291
 Red. masses --     10.2863                 5.5051                10.0276
 Frc consts  --      0.1080                 0.1196                 0.2717
 IR Inten    --      2.5236                20.7109                 6.2807

                      7                      8                      9
                      A                      A                      A
 Frequencies --    232.5321               237.3054               272.9683
 Red. masses --      5.4242                 3.9802                16.4319
 Frc consts  --      0.1728                 0.1321                 0.7214
 IR Inten    --     18.9026                28.3707                 1.5772

                     10                     11                     12
                      A                      A                      A
 Frequencies --    300.2967               346.2759               379.2273
 Red. masses --      4.6340                 4.8160                 8.8328
 Frc consts  --      0.2462                 0.3402                 0.7484
 IR Inten    --     26.6830                40.5900                16.5653

                     13                     14                     15
                      A                      A                      A
 Frequencies --    418.3037               472.9045               544.7162
 Red. masses --     17.8449                 9.7697                16.9350
 Frc consts  --      1.8397                 1.2873                 2.9606
 IR Inten    --     10.8245                28.9252                 1.9839

                     16                     17                     18
                      A                      A                      A
 Frequencies --    573.5536               613.7439               638.2998
 Red. masses --     17.4295                18.9875                16.6856
 Frc consts  --      3.3782                 4.2140                 4.0054
 IR Inten    --     10.2466                31.6978                34.4972

                     19                     20                     21
                      A                      A                      A
 Frequencies --    658.2654               759.8510               959.4459
 Red. masses --     17.6020                17.2509                15.3964
 Frc consts  --      4.4938                 5.8684                 8.3504
 IR Inten    --     31.1769                16.9663                 3.9827

                     22                     23                     24
                      A                      A                      A
 Frequencies --    970.5709              1136.2819              1213.7827
 Red. masses --     13.4679                13.6685                13.3617
 Frc consts  --      7.4749                10.3978                11.5983
 IR Inten    --    100.9746               134.4785               286.7422

                     25                     26                     27
                      A                      A                      A
 Frequencies --   1222.2469              1227.0194              1254.3113
 Red. masses --     14.7526                15.3910                13.1429
 Frc consts  --     12.9849                13.6528                12.1829
 IR Inten    --     74.7208               289.2912               286.5521

                     28                     29                     30
                      A                      A                      A
 Frequencies --   1353.6612              1439.7650              3806.6505
 Red. masses --     12.7260                 1.1074                 1.0685
 Frc consts  --     13.7393                 1.3525                 9.1229
 IR Inten    --    124.5808                51.9788                73.6574

 - Thermochemistry -
 -------------------
 Temperature   298.150 Kelvin.  Pressure   1.00000 Atm.
 Atom     1 has atomic number  6 and mass  12.00000

 Molecular mass:   199.95666 amu.
 Principal axes and moments of inertia in atomic units:
                           1         2         3
     Eigenvalues --  1251.493532093.321342448.37301
           X           -0.35042   0.93657   0.00720
           Y           -0.33001  -0.13066   0.93489
           Z            0.87653   0.32523   0.35487
 This molecule is an asymmetric top.
 Rotational symmetry number  1.
 Warning -- assumption of classical behavior for rotation
           may cause significant error
 Rotational temperatures (Kelvin)      0.06921     0.04138     0.03538
 Rotational constants (GHZ):           1.44207     0.86214     0.73712
 Zero-point vibrational energy     130367.9 (Joules/Mol)
                                   31.15868 (Kcal/Mol)
 Warning -- explicit consideration of  17 degrees of freedom as
           vibrations may cause significant error
 Vibrational temperatures:     72.71    91.81   157.61   192.11   276.24
          (Kelvin)            308.52   334.56   341.43   392.74   432.06
                              498.21   545.62   601.85   680.40   783.73
                              825.22   883.04   918.37   947.10  1093.26
                             1380.43  1396.44  1634.86  1746.36  1758.54
                             1765.41  1804.67  1947.62  2071.50  5476.92

 Zero-point correction=                           0.049655 (Hartree/Particle)
 Thermal correction to Energy=                    0.060814
 Thermal correction to Enthalpy=                  0.061759
 Thermal correction to Gibbs Free Energy=         0.011874
 Sum of electronic and zero-point Energies=          -1199.689618
 Sum of electronic and thermal Energies=             -1199.678458
 Sum of electronic and thermal Enthalpies=           -1199.677514
 Sum of electronic and thermal Free Energies=        -1199.727399

                     E (Thermal)             CV                S
                      KCal/Mol        Cal/Mol-Kelvin    Cal/Mol-Kelvin
 Total                   38.162             38.123            104.992
 Electronic               0.000              0.000              0.000
 Translational            0.889              2.981             41.783
 Rotational               0.889              2.981             30.240
 Vibrational             36.384             32.161             32.968
 Vibration     1          0.595              1.977              4.796
 Vibration     2          0.597              1.972              4.336
 Vibration     3          0.606              1.942              3.277
 Vibration     4          0.613              1.920              2.895
 Vibration     5          0.634              1.851              2.208
 Vibration     6          0.644              1.819              2.006
 Vibration     7          0.653              1.791              1.859
 Vibration     8          0.656              1.784              1.823
 Vibration     9          0.676              1.723              1.577
 Vibration    10          0.693              1.673              1.415
 Vibration    11          0.724              1.583              1.183
 Vibration    12          0.749              1.514              1.042
 Vibration    13          0.781              1.430              0.898
 Vibration    14          0.830              1.310              0.729
 Vibration    15          0.900              1.151              0.555
 Vibration    16          0.930              1.088              0.497
 Vibration    17          0.973              1.003              0.427

 Optimization completed.
    -- Stationary point found.
 Normal termination of Gaussian 16 at Fri May 23 05:23:21 2025.
