 Gaussian 16, Revision C.01,
 Gaussian 16:  ES64L-G16RevC.01  3-Jul-2019

 ----------------------------------------------------------------------
 #P wb97xd/6-311++G(d,p) Symm(None) scf(xqc) pop(None) freq opt(CalcFC,
  Tight)
 ----------------------------------------------------------------------

 ------------------------------
 Gaussian input prepared by ASE
 ------------------------------
 Symbolic Z-matrix:
 Charge =  0 Multiplicity = 1

 SCF Done:  E(RwB97XD) =  -1199.82079082     A.U. after   14 cycles
 SCF Done:  E(RwB97XD) =  -1199.82748026     A.U. after   14 cycles
 SCF Done:  E(RwB97XD) =  -1199.82760729     A.U. after   14 cycles
 SCF Done:  E(RwB97XD) =  -1199.82782000     A.U. after   14 cycles
 SCF Done:  E(RwB97XD) =  -1199.82390234     A.U. after   15 cycles
 SCF Done:  E(RwB97XD) =  -1199.82845296     A.U. after   13 cycles
 SCF Done:  E(RwB97XD) =  -1199.82851659     A.U. after   12 cycles
 SCF Done:  E(RwB97XD) =  -1199.82852180     A.U. after   10 cycles
 SCF Done:  E(RwB97XD) =  -1199.82852225     A.U. after    9 cycles
 SCF Done:  E(RwB97XD) =  -1199.82852233     A.U. after    7 cycles
 SCF Done:  E(RwB97XD) =  -1199.82852234     A.U. after    7 cycles
 Optimization completed.
    -- Stationary point found.
 Normal termination of Gaussian 16 at Fri May 23 04:30:49 2025.

 ----------------------------------------------------------------------
 #P Geom=AllCheck Guess=TCheck SCRF=Check GenChk RwB97XD/6-311++G(d,p)
 Freq
 ----------------------------------------------------------------------

 Structure from the checkpoint file:  "/tmp/Gau-247011.chk"
 ------------------------------
 Gaussian input prepared by ASE
 ------------------------------
 Charge =  0 Multiplicity = 1

                          Input orientation:
 ---------------------------------------------------------------------
 Center     Atomic      Atomic             Coordinates (Angstroms)
 Number     Number       Type             X           Y           Z
 ---------------------------------------------------------------------
      1          6           0        0.031900   -0.068251   -0.062595
      2          6           0        1.581095    0.076912    0.035781
      3          9           0        1.965454    0.300517    2.607581
      4          9           0        2.129303   -0.512323   -1.030403
      5         16           0        2.289142   -0.876468    1.529387
      6          8           0        3.708114   -0.922562    1.395832
      7          8           0        1.484490   -1.995661    1.899676
      8          8           0        1.993977    1.357852    0.073817
      9          9           0       -0.337154   -1.326216   -0.220074
     10          9           0       -0.530226    0.425493    1.045758
     11          9           0       -0.397801    0.640687   -1.100758
     12          1           0        1.624197    1.822364    0.833170
 ---------------------------------------------------------------------

 SCF Done:  E(RwB97XD) =  -1199.82852234     A.U. after    1 cycles

 Isotropic polarizability for W=    0.000000       56.51 Bohr**3.
 End of Minotr F.D. properties file   721 does not exist.

                      1                      2                      3
                      A                      A                      A
 Frequencies --     48.0755                72.0055               145.8553
 Red. masses --     17.6601                15.0011                17.4904
 Frc consts  --      0.0240                 0.0458                 0.2192
 IR Inten    --      0.0994                 0.4099                 1.2698

                      4                      5                      6
                      A                      A                      A
 Frequencies --    202.8320               217.2606               228.9487
 Red. masses --      9.9663                 7.8085                15.5331
 Frc consts  --      0.2416                 0.2172                 0.4797
 IR Inten    --      6.5057                 8.7452                 8.3332

                      7                      8                      9
                      A                      A                      A
 Frequencies --    266.8444               292.3504               312.9796
 Red. masses --     17.0384                 1.7324                 6.9736
 Frc consts  --      0.7148                 0.0872                 0.4025
 IR Inten    --      7.8844                89.3920                 9.0926

                     10                     11                     12
                      A                      A                      A
 Frequencies --    340.6483               372.0540               431.9893
 Red. masses --      4.0918                11.2458                16.3010
 Frc consts  --      0.2798                 0.9172                 1.7923
 IR Inten    --     48.6428                 6.6592                22.0385

                     13                     14                     15
                      A                      A                      A
 Frequencies --    439.8109               490.5820               535.4347
 Red. masses --     11.8729                14.5918                14.5866
 Frc consts  --      1.3531                 2.0691                 2.4639
 IR Inten    --     21.1494                 0.9579                23.5700

                     16                     17                     18
                      A                      A                      A
 Frequencies --    597.4800               605.9026               662.4235
 Red. masses --     17.4246                15.4953                12.8732
 Frc consts  --      3.6649                 3.3516                 3.3282
 IR Inten    --     53.8481                41.7249                12.2608

                     19                     20                     21
                      A                      A                      A
 Frequencies --    713.3159               770.3385               957.8760
 Red. masses --     18.8943                17.2312                12.8719
 Frc consts  --      5.6643                 6.0246                 6.9584
 IR Inten    --    207.8178                20.6764               117.9190

                     22                     23                     24
                      A                      A                      A
 Frequencies --   1097.7870              1206.2427              1216.1107
 Red. masses --      2.7524                 4.8688                13.0101
 Frc consts  --      1.9543                 4.1739                11.3364
 IR Inten    --    106.5144               208.8732               196.1932

                     25                     26                     27
                      A                      A                      A
 Frequencies --   1234.5750              1262.5048              1329.6867
 Red. masses --     11.2956                12.9746                 5.9601
 Frc consts  --     10.1436                12.1846                 6.2087
 IR Inten    --    135.6153               384.5794                66.8083

                     28                     29                     30
                      A                      A                      A
 Frequencies --   1382.3545              1453.5363              3860.0815
 Red. masses --      2.9965                20.5577                 1.0661
 Frc consts  --      3.3736                25.5904                 9.3597
 IR Inten    --    106.2600               282.5783               127.5574

 - Thermochemistry -
 -------------------
 Temperature   298.150 Kelvin.  Pressure   1.00000 Atm.
 Atom     1 has atomic number  6 and mass  12.00000

 Molecular mass:   199.95666 amu.
 Principal axes and moments of inertia in atomic units:
                           1         2         3
     Eigenvalues --  1158.981252167.542322302.72046
           X            0.75832  -0.64752  -0.07532
           Y           -0.24424  -0.38934   0.88812
           Z            0.60440   0.65508   0.45339
 This molecule is an asymmetric top.
 Rotational symmetry number  1.
 Warning -- assumption of classical behavior for rotation
           may cause significant error
 Rotational temperatures (Kelvin)      0.07473     0.03996     0.03761
 Rotational constants (GHZ):           1.55718     0.83262     0.78374
 Zero-point vibrational energy     136062.6 (Joules/Mol)
                                   32.51974 (Kcal/Mol)
 Warning -- explicit consideration of  17 degrees of freedom as
           vibrations may cause significant error
 Vibrational temperatures:     69.17   103.60   209.85   291.83   312.59
          (Kelvin)            329.41   383.93   420.63   450.31   490.12
                              535.30   621.54   632.79   705.84   770.37
                              859.64   871.76   953.08  1026.30  1108.35
                             1378.17  1579.47  1735.51  1749.71  1776.28
                             1816.46  1913.12  1988.90  2091.31  5553.80

 Zero-point correction=                           0.051823 (Hartree/Particle)
 Thermal correction to Energy=                    0.062325
 Thermal correction to Enthalpy=                  0.063269
 Thermal correction to Gibbs Free Energy=         0.015088
 Sum of electronic and zero-point Energies=          -1199.776699
 Sum of electronic and thermal Energies=             -1199.766197
 Sum of electronic and thermal Enthalpies=           -1199.765253
 Sum of electronic and thermal Free Energies=        -1199.813434

                     E (Thermal)             CV                S
                      KCal/Mol        Cal/Mol-Kelvin    Cal/Mol-Kelvin
 Total                   39.110             36.935            101.405
 Electronic               0.000              0.000              0.000
 Translational            0.889              2.981             41.783
 Rotational               0.889              2.981             30.138
 Vibrational             37.332             30.974             29.484
 Vibration     1          0.595              1.978              4.895
 Vibration     2          0.598              1.967              4.098
 Vibration     3          0.617              1.907              2.726
 Vibration     4          0.639              1.836              2.107
 Vibration     5          0.646              1.815              1.982
 Vibration     6          0.652              1.797              1.887
 Vibration     7          0.672              1.734              1.617
 Vibration     8          0.688              1.688              1.460
 Vibration     9          0.701              1.649              1.347
 Vibration    10          0.720              1.594              1.209
 Vibration    11          0.744              1.530              1.071
 Vibration    12          0.793              1.401              0.852
 Vibration    13          0.800              1.383              0.827
 Vibration    14          0.846              1.271              0.682
 Vibration    15          0.890              1.172              0.575
 Vibration    16          0.955              1.037              0.454
 Vibration    17          0.965              1.019              0.440

 Optimization completed.
    -- Stationary point found.
 Normal termination of Gaussian 16 at Fri May 23 04:32:25 2025.
