 Gaussian 16, Revision C.01,
 Gaussian 16:  ES64L-G16RevC.01  3-Jul-2019

 ----------------------------------------------------------------------
 #P wb97xd/6-311++G(d,p) Symm(None) scf(xqc) pop(None) freq opt(CalcFC,
  Tight)
 ----------------------------------------------------------------------

 ------------------------------
 Gaussian input prepared by ASE
 ------------------------------
 Symbolic Z-matrix:
 Charge =  0 Multiplicity = 1

 SCF Done:  E(RwB97XD) =  -1199.82723401     A.U. after   14 cycles
 SCF Done:  E(RwB97XD) =  -1199.82913613     A.U. after   15 cycles
 SCF Done:  E(RwB97XD) =  -1199.80946094     A.U. after   14 cycles
 SCF Done:  E(RwB97XD) =  -1199.82928977     A.U. after   12 cycles
 SCF Done:  E(RwB97XD) =  -1199.82931777     A.U. after   11 cycles
 SCF Done:  E(RwB97XD) =  -1199.82932191     A.U. after   10 cycles
 SCF Done:  E(RwB97XD) =  -1199.82932210     A.U. after    8 cycles
 SCF Done:  E(RwB97XD) =  -1199.82932211     A.U. after    7 cycles
 SCF Done:  E(RwB97XD) =  -1199.82932211     A.U. after    5 cycles
 Optimization completed.
    -- Stationary point found.
 Normal termination of Gaussian 16 at Fri May 23 04:29:05 2025.

 ----------------------------------------------------------------------
 #P Geom=AllCheck Guess=TCheck SCRF=Check GenChk RwB97XD/6-311++G(d,p)
 Freq
 ----------------------------------------------------------------------

 Structure from the checkpoint file:  "/tmp/Gau-250078.chk"
 ------------------------------
 Gaussian input prepared by ASE
 ------------------------------
 Charge =  0 Multiplicity = 1

                          Input orientation:
 ---------------------------------------------------------------------
 Center     Atomic      Atomic             Coordinates (Angstroms)
 Number     Number       Type             X           Y           Z
 ---------------------------------------------------------------------
      1          6           0        0.008425   -0.075857   -0.051910
      2          6           0        1.560394    0.045011    0.029674
      3          9           0        1.856275    0.312066    2.623774
      4          9           0        2.065787   -0.665487   -1.015037
      5         16           0        2.291725   -0.782861    1.542066
      6          8           0        3.711496   -0.730928    1.438560
      7          8           0        1.555104   -1.970968    1.828786
      8          8           0        1.988669    1.317343    0.041021
      9          9           0       -0.386270   -1.304638   -0.317081
     10          9           0       -0.561491    0.344474    1.069052
     11          9           0       -0.397301    0.728572   -1.052197
     12          1           0        1.562336    1.824718   -0.659435
 ---------------------------------------------------------------------

 SCF Done:  E(RwB97XD) =  -1199.82932211     A.U. after    1 cycles

 Isotropic polarizability for W=    0.000000       55.71 Bohr**3.
 End of Minotr F.D. properties file   721 does not exist.

                      1                      2                      3
                      A                      A                      A
 Frequencies --     49.3543                66.6753               131.9815
 Red. masses --     17.2110                17.2593                17.2823
 Frc consts  --      0.0247                 0.0452                 0.1774
 IR Inten    --      0.0651                 0.2700                 0.9593

                      4                      5                      6
                      A                      A                      A
 Frequencies --    197.8383               230.7578               241.3034
 Red. masses --     14.7794                13.1002                10.6176
 Frc consts  --      0.3408                 0.4110                 0.3643
 IR Inten    --      1.3555                 3.7110                 2.0191

                      7                      8                      9
                      A                      A                      A
 Frequencies --    273.7506               289.8454               310.0774
 Red. masses --      5.0966                 2.1889                 5.6445
 Frc consts  --      0.2250                 0.1083                 0.3198
 IR Inten    --     28.0350                57.4521                16.8815

                     10                     11                     12
                      A                      A                      A
 Frequencies --    340.6400               379.1733               434.2163
 Red. masses --      3.4479                11.9661                15.6728
 Frc consts  --      0.2357                 1.0136                 1.7410
 IR Inten    --     25.7041                 4.4716                14.2328

                     13                     14                     15
                      A                      A                      A
 Frequencies --    452.6054               497.3850               536.1437
 Red. masses --     16.9125                17.4490                14.5817
 Frc consts  --      2.0413                 2.5433                 2.4696
 IR Inten    --     26.3766                 4.2684                34.2934

                     16                     17                     18
                      A                      A                      A
 Frequencies --    599.6770               606.0629               663.9160
 Red. masses --     16.5583                17.8837                13.5701
 Frc consts  --      3.5083                 3.8703                 3.5242
 IR Inten    --      5.9272               114.9741                21.9610

                     19                     20                     21
                      A                      A                      A
 Frequencies --    751.9020               785.6502               928.8822
 Red. masses --     12.6329                19.5680                 4.3787
 Frc consts  --      4.2080                 7.1163                 2.2260
 IR Inten    --     64.2469               137.4805                98.4009

                     22                     23                     24
                      A                      A                      A
 Frequencies --   1090.9977              1198.0387              1213.8690
 Red. masses --     11.7421                11.2339                 5.3902
 Frc consts  --      8.2346                 9.5000                 4.6795
 IR Inten    --    131.8214               210.1398               192.2922

                     25                     26                     27
                      A                      A                      A
 Frequencies --   1232.6349              1276.4306              1348.0448
 Red. masses --     15.0658                13.0660                 4.0044
 Frc consts  --     13.4869                12.5426                 4.2874
 IR Inten    --    168.8130               427.1315                39.9558

                     28                     29                     30
                      A                      A                      A
 Frequencies --   1358.5092              1457.9369              3844.1310
 Red. masses --      2.5331                19.2013                 1.0658
 Frc consts  --      2.7544                24.0468                 9.2791
 IR Inten    --     35.7900               271.1838               134.2347

 - Thermochemistry -
 -------------------
 Temperature   298.150 Kelvin.  Pressure   1.00000 Atm.
 Atom     1 has atomic number  6 and mass  12.00000

 Molecular mass:   199.95666 amu.
 Principal axes and moments of inertia in atomic units:
                           1         2         3
     Eigenvalues --  1145.753772164.914442291.81912
           X            0.76594  -0.64216  -0.03111
           Y           -0.21227  -0.29827   0.93058
           Z            0.60686   0.70616   0.36477
 This molecule is an asymmetric top.
 Rotational symmetry number  1.
 Warning -- assumption of classical behavior for rotation
           may cause significant error
 Rotational temperatures (Kelvin)      0.07560     0.04001     0.03779
 Rotational constants (GHZ):           1.57516     0.83363     0.78747
 Zero-point vibrational energy     136305.1 (Joules/Mol)
                                   32.57770 (Kcal/Mol)
 Warning -- explicit consideration of  17 degrees of freedom as
           vibrations may cause significant error
 Vibrational temperatures:     71.01    95.93   189.89   284.65   332.01
          (Kelvin)            347.18   393.87   417.02   446.13   490.11
                              545.55   624.74   651.20   715.63   771.39
                              862.80   871.99   955.23  1081.82  1130.38
                             1336.45  1569.70  1723.71  1746.49  1773.49
                             1836.50  1939.54  1954.59  2097.65  5530.85

 Zero-point correction=                           0.051916 (Hartree/Particle)
 Thermal correction to Energy=                    0.062377
 Thermal correction to Enthalpy=                  0.063321
 Thermal correction to Gibbs Free Energy=         0.015157
 Sum of electronic and zero-point Energies=          -1199.777406
 Sum of electronic and thermal Energies=             -1199.766945
 Sum of electronic and thermal Enthalpies=           -1199.766001
 Sum of electronic and thermal Free Energies=        -1199.814165

                     E (Thermal)             CV                S
                      KCal/Mol        Cal/Mol-Kelvin    Cal/Mol-Kelvin
 Total                   39.142             36.789            101.369
 Electronic               0.000              0.000              0.000
 Translational            0.889              2.981             41.783
 Rotational               0.889              2.981             30.120
 Vibrational             37.364             30.828             29.465
 Vibration     1          0.595              1.978              4.843
 Vibration     2          0.598              1.970              4.249
 Vibration     3          0.612              1.921              2.917
 Vibration     4          0.637              1.843              2.153
 Vibration     5          0.652              1.794              1.873
 Vibration     6          0.658              1.777              1.793
 Vibration     7          0.676              1.722              1.572
 Vibration     8          0.686              1.693              1.475
 Vibration     9          0.699              1.655              1.362
 Vibration    10          0.720              1.594              1.209
 Vibration    11          0.749              1.515              1.042
 Vibration    12          0.795              1.396              0.845
 Vibration    13          0.811              1.355              0.788
 Vibration    14          0.853              1.256              0.665
 Vibration    15          0.891              1.170              0.574
 Vibration    16          0.958              1.032              0.450
 Vibration    17          0.965              1.019              0.439

 Optimization completed.
    -- Stationary point found.
 Normal termination of Gaussian 16 at Fri May 23 04:30:09 2025.
