 Gaussian 16, Revision C.01,
 Gaussian 16:  ES64L-G16RevC.01  3-Jul-2019

 ----------------------------------------------------------------------
 #P wb97xd/6-311++G(d,p) Symm(None) scf(xqc) pop(None) freq opt(CalcFC,
  Tight)
 ----------------------------------------------------------------------

 ------------------------------
 Gaussian input prepared by ASE
 ------------------------------
 Symbolic Z-matrix:
 Charge =  0 Multiplicity = 1

 SCF Done:  E(RwB97XD) =  -1199.81070680     A.U. after   15 cycles
 SCF Done:  E(RwB97XD) =  -1199.81871904     A.U. after   13 cycles
 SCF Done:  E(RwB97XD) =  -1199.80753911     A.U. after   13 cycles
 SCF Done:  E(RwB97XD) =  -1199.81968412     A.U. after   12 cycles
 SCF Done:  E(RwB97XD) =  -1199.82001250     A.U. after   12 cycles
 SCF Done:  E(RwB97XD) =  -1199.82003982     A.U. after   11 cycles
 SCF Done:  E(RwB97XD) =  -1199.82004821     A.U. after   11 cycles
 SCF Done:  E(RwB97XD) =  -1199.82006249     A.U. after   11 cycles
 SCF Done:  E(RwB97XD) =  -1199.82006668     A.U. after   10 cycles
 SCF Done:  E(RwB97XD) =  -1199.82006897     A.U. after   10 cycles
 SCF Done:  E(RwB97XD) =  -1199.82007046     A.U. after    8 cycles
 SCF Done:  E(RwB97XD) =  -1199.82006926     A.U. after   11 cycles
 SCF Done:  E(RwB97XD) =  -1199.82007100     A.U. after   10 cycles
 SCF Done:  E(RwB97XD) =  -1199.82007152     A.U. after    9 cycles
 SCF Done:  E(RwB97XD) =  -1199.82007163     A.U. after    8 cycles
 SCF Done:  E(RwB97XD) =  -1199.82007145     A.U. after    9 cycles
 SCF Done:  E(RwB97XD) =  -1199.82007169     A.U. after    9 cycles
 SCF Done:  E(RwB97XD) =  -1199.82007170     A.U. after    6 cycles
 SCF Done:  E(RwB97XD) =  -1199.82007170     A.U. after    6 cycles
 Optimization completed.
    -- Stationary point found.
 Normal termination of Gaussian 16 at Fri May 23 04:25:45 2025.

 ----------------------------------------------------------------------
 #P Geom=AllCheck Guess=TCheck SCRF=Check GenChk RwB97XD/6-311++G(d,p)
 Freq
 ----------------------------------------------------------------------

 Structure from the checkpoint file:  "/tmp/Gau-245507.chk"
 ------------------------------
 Gaussian input prepared by ASE
 ------------------------------
 Charge =  0 Multiplicity = 1

                          Input orientation:
 ---------------------------------------------------------------------
 Center     Atomic      Atomic             Coordinates (Angstroms)
 Number     Number       Type             X           Y           Z
 ---------------------------------------------------------------------
      1          6           0        2.081259    0.412504   -2.910362
      2          6           0        1.353150    0.042443   -0.084228
      3          9           0        0.021178    0.131934   -0.180553
      4          9           0        1.673313   -0.705444    0.960903
      5         16           0        1.976619   -0.950102   -1.595735
      6          8           0        0.936792   -1.848327   -2.029141
      7          8           0        3.326632   -1.369360   -1.320377
      8          8           0        1.942554    1.241625    0.019478
      9          9           0        2.037911   -0.155457   -4.096550
     10          9           0        1.033631    1.234566   -2.774372
     11          9           0        3.192524    1.110614   -2.784541
     12          1           0        1.410606    1.913760   -0.419042
 ---------------------------------------------------------------------

 SCF Done:  E(RwB97XD) =  -1199.82007170     A.U. after    1 cycles

 Isotropic polarizability for W=    0.000000       58.16 Bohr**3.
 End of Minotr F.D. properties file   721 does not exist.

                      1                      2                      3
                      A                      A                      A
 Frequencies --     43.5215                67.3290               128.0423
 Red. masses --     16.1016                13.4872                16.3397
 Frc consts  --      0.0180                 0.0360                 0.1578
 IR Inten    --      0.1985                 0.7059                 0.3256

                      4                      5                      6
                      A                      A                      A
 Frequencies --    194.7791               195.7549               233.8632
 Red. masses --     16.3295                17.4927                11.0209
 Frc consts  --      0.3650                 0.3949                 0.3551
 IR Inten    --      0.8771                 5.0093                28.0236

                      7                      8                      9
                      A                      A                      A
 Frequencies --    259.4261               277.7539               286.0823
 Red. masses --      4.4877                 8.6436                 6.0344
 Frc consts  --      0.1780                 0.3929                 0.2910
 IR Inten    --     13.7011                 5.8301                23.0501

                     10                     11                     12
                      A                      A                      A
 Frequencies --    325.2326               336.1365               406.4707
 Red. masses --      2.5421                 8.8654                 6.0882
 Frc consts  --      0.1584                 0.5902                 0.5927
 IR Inten    --     51.1598                10.8290                26.6686

                     13                     14                     15
                      A                      A                      A
 Frequencies --    515.7167               524.6441               550.8308
 Red. masses --      8.4752                17.6782                11.1429
 Frc consts  --      1.3281                 2.8669                 1.9920
 IR Inten    --     46.8025                29.8718                 3.0598

                     16                     17                     18
                      A                      A                      A
 Frequencies --    568.0491               589.0133               623.2873
 Red. masses --     10.7454                13.4512                16.3766
 Frc consts  --      2.0429                 2.7496                 3.7485
 IR Inten    --      5.4624                17.0172               180.6643

                     19                     20                     21
                      A                      A                      A
 Frequencies --    767.0984               786.6836              1064.3835
 Red. masses --     16.0193                15.2840                 8.2202
 Frc consts  --      5.5539                 5.5730                 5.4869
 IR Inten    --      7.7040                 5.2512               306.8718

                     22                     23                     24
                      A                      A                      A
 Frequencies --   1099.6317              1131.3397              1207.8225
 Red. masses --      3.0235                 7.2348                13.5105
 Frc consts  --      2.1540                 5.4559                11.6126
 IR Inten    --     25.0562               368.8461               233.9028

                     25                     26                     27
                      A                      A                      A
 Frequencies --   1242.5250              1258.1872              1300.0497
 Red. masses --     13.4930                13.5887                 7.7374
 Frc consts  --     12.2735                12.6741                 7.7048
 IR Inten    --     22.6412               149.3173               417.3276

                     28                     29                     30
                      A                      A                      A
 Frequencies --   1381.5957              1411.4144              3878.8189
 Red. masses --      2.4211                17.8377                 1.0661
 Frc consts  --      2.7229                20.9362                 9.4500
 IR Inten    --     89.5720               340.2021               137.9377

 - Thermochemistry -
 -------------------
 Temperature   298.150 Kelvin.  Pressure   1.00000 Atm.
 Atom     1 has atomic number  6 and mass  12.00000

 Molecular mass:   199.95666 amu.
 Principal axes and moments of inertia in atomic units:
                           1         2         3
     Eigenvalues --  1218.905802127.123872342.23854
           X           -0.24820  -0.24176   0.93806
           Y           -0.14789   0.96646   0.20995
           Z            0.95735   0.08662   0.27563
 This molecule is an asymmetric top.
 Rotational symmetry number  1.
 Warning -- assumption of classical behavior for rotation
           may cause significant error
 Rotational temperatures (Kelvin)      0.07106     0.04072     0.03698
 Rotational constants (GHZ):           1.48062     0.84844     0.77052
 Zero-point vibrational energy     135509.9 (Joules/Mol)
                                   32.38764 (Kcal/Mol)
 Warning -- explicit consideration of  17 degrees of freedom as
           vibrations may cause significant error
 Vibrational temperatures:     62.62    96.87   184.22   280.24   281.65
          (Kelvin)            336.48   373.26   399.63   411.61   467.94
                              483.63   584.82   742.00   754.85   792.52
                              817.30   847.46   896.77  1103.68  1131.86
                             1531.41  1582.12  1627.75  1737.79  1787.72
                             1810.25  1870.48  1987.81  2030.71  5580.76

 Zero-point correction=                           0.051613 (Hartree/Particle)
 Thermal correction to Energy=                    0.062268
 Thermal correction to Enthalpy=                  0.063212
 Thermal correction to Gibbs Free Energy=         0.014464
 Sum of electronic and zero-point Energies=          -1199.768459
 Sum of electronic and thermal Energies=             -1199.757804
 Sum of electronic and thermal Enthalpies=           -1199.756860
 Sum of electronic and thermal Free Energies=        -1199.805607

                     E (Thermal)             CV                S
                      KCal/Mol        Cal/Mol-Kelvin    Cal/Mol-Kelvin
 Total                   39.074             36.987            102.598
 Electronic               0.000              0.000              0.000
 Translational            0.889              2.981             41.783
 Rotational               0.889              2.981             30.186
 Vibrational             37.296             31.026             30.629
 Vibration     1          0.595              1.980              5.092
 Vibration     2          0.598              1.970              4.230
 Vibration     3          0.611              1.925              2.975
 Vibration     4          0.635              1.847              2.182
 Vibration     5          0.636              1.846              2.173
 Vibration     6          0.654              1.789              1.849
 Vibration     7          0.668              1.747              1.666
 Vibration     8          0.679              1.715              1.547
 Vibration     9          0.684              1.700              1.497
 Vibration    10          0.709              1.625              1.284
 Vibration    11          0.717              1.603              1.230
 Vibration    12          0.771              1.456              0.939
 Vibration    13          0.871              1.215              0.620
 Vibration    14          0.880              1.195              0.599
 Vibration    15          0.906              1.138              0.542
 Vibration    16          0.924              1.100              0.508
 Vibration    17          0.946              1.055              0.469

 Optimization completed.
    -- Stationary point found.
 Normal termination of Gaussian 16 at Fri May 23 04:27:14 2025.
