 Gaussian 16, Revision C.01,
 Gaussian 16:  ES64L-G16RevC.01  3-Jul-2019

 ----------------------------------------------------------------------
 #P wb97xd/6-311++G(d,p) Symm(None) scf(xqc) pop(None) freq opt(CalcFC,
  Tight)
 ----------------------------------------------------------------------

 ------------------------------
 Gaussian input prepared by ASE
 ------------------------------
 Symbolic Z-matrix:
 Charge =  0 Multiplicity = 1

 SCF Done:  E(RwB97XD) =  -1199.81765356     A.U. after   15 cycles
 SCF Done:  E(RwB97XD) =  -1199.82031625     A.U. after   13 cycles
 SCF Done:  E(RwB97XD) =  -1199.82053126     A.U. after   13 cycles
 SCF Done:  E(RwB97XD) =  -1199.82060484     A.U. after   11 cycles
 SCF Done:  E(RwB97XD) =  -1199.82060951     A.U. after   10 cycles
 SCF Done:  E(RwB97XD) =  -1199.82061002     A.U. after   10 cycles
 SCF Done:  E(RwB97XD) =  -1199.82061042     A.U. after    9 cycles
 SCF Done:  E(RwB97XD) =  -1199.82061048     A.U. after    9 cycles
 SCF Done:  E(RwB97XD) =  -1199.82061048     A.U. after    6 cycles
 Optimization completed.
    -- Stationary point found.
 Normal termination of Gaussian 16 at Fri May 23 04:21:39 2025.

 ----------------------------------------------------------------------
 #P Geom=AllCheck Guess=TCheck SCRF=Check GenChk RwB97XD/6-311++G(d,p)
 Freq
 ----------------------------------------------------------------------

 Structure from the checkpoint file:  "/tmp/Gau-163153.chk"
 ------------------------------
 Gaussian input prepared by ASE
 ------------------------------
 Charge =  0 Multiplicity = 1

                          Input orientation:
 ---------------------------------------------------------------------
 Center     Atomic      Atomic             Coordinates (Angstroms)
 Number     Number       Type             X           Y           Z
 ---------------------------------------------------------------------
      1          6           0        3.527741   -1.631839   -1.139173
      2          6           0        1.320898   -0.004937   -0.042416
      3          9           0       -0.005193    0.175520   -0.124587
      4          9           0        1.544953   -0.804568    1.018687
      5         16           0        1.822733   -0.945544   -1.604104
      6          8           0        2.030460    0.010001   -2.660022
      7          8           0        0.935932   -2.074320   -1.715756
      8          8           0        2.003335    1.136039    0.012377
      9          9           0        4.080648   -2.064056   -2.257965
     10          9           0        4.275732   -0.677564   -0.609298
     11          9           0        3.409389   -2.630363   -0.285630
     12          1           0        1.721725    1.659973    0.771929
 ---------------------------------------------------------------------

 SCF Done:  E(RwB97XD) =  -1199.82061048     A.U. after    1 cycles

 Isotropic polarizability for W=    0.000000       58.20 Bohr**3.
 End of Minotr F.D. properties file   721 does not exist.

                      1                      2                      3
                      A                      A                      A
 Frequencies --     25.7034                53.0717               119.2061
 Red. masses --     15.5603                16.9385                10.5906
 Frc consts  --      0.0061                 0.0281                 0.0887
 IR Inten    --      0.2850                 0.7397                 1.7140

                      4                      5                      6
                      A                      A                      A
 Frequencies --    189.9149               199.8875               207.6302
 Red. masses --      4.7174                 2.7815                 2.3196
 Frc consts  --      0.1002                 0.0655                 0.0589
 IR Inten    --     21.2944                48.1454                45.7069

                      7                      8                      9
                      A                      A                      A
 Frequencies --    233.3382               268.9109               286.6178
 Red. masses --     16.6936                13.3915                16.3537
 Frc consts  --      0.5355                 0.5706                 0.7915
 IR Inten    --      6.1907                 3.4094                 2.7476

                     10                     11                     12
                      A                      A                      A
 Frequencies --    302.6555               337.0030               402.6022
 Red. masses --      9.8846                13.8303                14.6915
 Frc consts  --      0.5335                 0.9254                 1.4030
 IR Inten    --      4.7009                 1.3530                16.3478

                     13                     14                     15
                      A                      A                      A
 Frequencies --    523.4934               536.9868               553.6135
 Red. masses --     17.3759                15.7438                16.3917
 Frc consts  --      2.8056                 2.6748                 2.9600
 IR Inten    --     42.4179                65.3711                 1.8111

                     16                     17                     18
                      A                      A                      A
 Frequencies --    574.0759               590.5897               620.1935
 Red. masses --     15.8160                16.4810                14.1283
 Frc consts  --      3.0710                 3.3869                 3.2018
 IR Inten    --      2.2598                29.1114               151.7140

                     19                     20                     21
                      A                      A                      A
 Frequencies --    750.9363               782.8833              1013.6837
 Red. masses --      6.1358                15.1991                 4.1404
 Frc consts  --      2.0386                 5.4886                 2.5067
 IR Inten    --     25.9235                 4.4233               143.8186

                     22                     23                     24
                      A                      A                      A
 Frequencies --   1114.3746              1148.0996              1224.3408
 Red. masses --     13.4497                11.3246                 8.4693
 Frc consts  --      9.8407                 8.7949                 7.4800
 IR Inten    --     86.1067               396.1971                69.9272

                     25                     26                     27
                      A                      A                      A
 Frequencies --   1242.4779              1254.1128              1292.0035
 Red. masses --     11.6695                12.5599                 5.3099
 Frc consts  --     10.6140                11.6388                 5.2223
 IR Inten    --    154.6828               257.9836               422.5337

                     28                     29                     30
                      A                      A                      A
 Frequencies --   1377.3205              1415.7199              3840.6844
 Red. masses --      2.5429                14.7277                 1.0653
 Frc consts  --      2.8421                17.3916                 9.2582
 IR Inten    --     65.3086               308.9297               127.9636

 - Thermochemistry -
 -------------------
 Temperature   298.150 Kelvin.  Pressure   1.00000 Atm.
 Atom     1 has atomic number  6 and mass  12.00000

 Molecular mass:   199.95666 amu.
 Principal axes and moments of inertia in atomic units:
                           1         2         3
     Eigenvalues --  1204.879152138.305852338.29091
           X            0.76332   0.48252   0.42955
           Y           -0.52920   0.08567   0.84416
           Z           -0.37053   0.87168  -0.32074
 This molecule is an asymmetric top.
 Rotational symmetry number  1.
 Warning -- assumption of classical behavior for rotation
           may cause significant error
 Rotational temperatures (Kelvin)      0.07189     0.04051     0.03704
 Rotational constants (GHZ):           1.49786     0.84401     0.77182
 Zero-point vibrational energy     134473.0 (Joules/Mol)
                                   32.13982 (Kcal/Mol)
 Warning -- explicit consideration of  18 degrees of freedom as
           vibrations may cause significant error
 Vibrational temperatures:     36.98    76.36   171.51   273.25   287.59
          (Kelvin)            298.73   335.72   386.90   412.38   435.45
                              484.87   579.25   753.19   772.60   796.53
                              825.97   849.73   892.32  1080.43  1126.39
                             1458.46  1603.34  1651.86  1761.55  1787.65
                             1804.39  1858.90  1981.66  2036.91  5525.89

 Zero-point correction=                           0.051218 (Hartree/Particle)
 Thermal correction to Energy=                    0.062066
 Thermal correction to Enthalpy=                  0.063010
 Thermal correction to Gibbs Free Energy=         0.013217
 Sum of electronic and zero-point Energies=          -1199.769392
 Sum of electronic and thermal Energies=             -1199.758544
 Sum of electronic and thermal Enthalpies=           -1199.757600
 Sum of electronic and thermal Free Energies=        -1199.807394

                     E (Thermal)             CV                S
                      KCal/Mol        Cal/Mol-Kelvin    Cal/Mol-Kelvin
 Total                   38.947             37.152            104.800
 Electronic               0.000              0.000              0.000
 Translational            0.889              2.981             41.783
 Rotational               0.889              2.981             30.178
 Vibrational             37.170             31.190             32.838
 Vibration     1          0.593              1.985              6.136
 Vibration     2          0.596              1.976              4.700
 Vibration     3          0.609              1.933              3.113
 Vibration     4          0.633              1.854              2.229
 Vibration     5          0.638              1.840              2.134
 Vibration     6          0.641              1.829              2.064
 Vibration     7          0.654              1.790              1.853
 Vibration     8          0.673              1.730              1.603
 Vibration     9          0.684              1.699              1.494
 Vibration    10          0.694              1.669              1.402
 Vibration    11          0.718              1.602              1.226
 Vibration    12          0.768              1.465              0.953
 Vibration    13          0.878              1.198              0.602
 Vibration    14          0.892              1.168              0.572
 Vibration    15          0.909              1.132              0.537
 Vibration    16          0.930              1.087              0.496
 Vibration    17          0.948              1.052              0.466
 Vibration    18          0.980              0.989              0.416

 Optimization completed.
    -- Stationary point found.
 Normal termination of Gaussian 16 at Fri May 23 04:22:50 2025.
