 Gaussian 16, Revision C.01,
 Gaussian 16:  ES64L-G16RevC.01  3-Jul-2019

 ----------------------------------------------------------------------
 #P wb97xd/6-311++G(d,p) Symm(None) scf(xqc) pop(None) freq opt(CalcFC,
  Tight)
 ----------------------------------------------------------------------

 ------------------------------
 Gaussian input prepared by ASE
 ------------------------------
 Symbolic Z-matrix:
 Charge =  0 Multiplicity = 1

 SCF Done:  E(RwB97XD) =  -1199.57296279     A.U. after   20 cycles
 SCF Done:  E(RwB97XD) =  -1199.57997337     A.U. after   17 cycles
 SCF Done:  E(RwB97XD) =  -1199.58495177     A.U. after   17 cycles
 SCF Done:  E(RwB97XD) =  -1199.56849287     A.U. after   19 cycles
 SCF Done:  E(RwB97XD) =  -1199.59573566     A.U. after   19 cycles
 SCF Done:  E(RwB97XD) =  -1199.59541590     A.U. after   18 cycles
 SCF Done:  E(RwB97XD) =  -1199.59515676     A.U. after   18 cycles
 SCF Done:  E(RwB97XD) =  -1199.59446678     A.U. after   18 cycles
 SCF Done:  E(RwB97XD) =  -1199.59640475     A.U. after   14 cycles
 SCF Done:  E(RwB97XD) =  -1199.57533048     A.U. after   20 cycles
 SCF Done:  E(RwB97XD) =  -1199.59778830     A.U. after   17 cycles
 SCF Done:  E(RwB97XD) =  -1199.59779367     A.U. after   13 cycles
 SCF Done:  E(RwB97XD) =  -1199.59779473     A.U. after   12 cycles
 SCF Done:  E(RwB97XD) =  -1199.59779493     A.U. after   11 cycles
 SCF Done:  E(RwB97XD) =  -1199.59779494     A.U. after   10 cycles
 SCF Done:  E(RwB97XD) =  -1199.59779495     A.U. after   10 cycles
 SCF Done:  E(RwB97XD) =  -1199.59779495     A.U. after    8 cycles
 SCF Done:  E(RwB97XD) =  -1199.59779495     A.U. after    5 cycles
 SCF Done:  E(RwB97XD) =  -1199.59779495     A.U. after    4 cycles
 Optimization completed.
    -- Stationary point found.
 Normal termination of Gaussian 16 at Fri May 23 07:40:17 2025.

 ----------------------------------------------------------------------
 #P Geom=AllCheck Guess=TCheck SCRF=Check GenChk RwB97XD/6-311++G(d,p)
 Freq
 ----------------------------------------------------------------------

 Structure from the checkpoint file:  "/tmp/Gau-104082.chk"
 ------------------------------
 Gaussian input prepared by ASE
 ------------------------------
 Charge =  0 Multiplicity = 1

                          Input orientation:
 ---------------------------------------------------------------------
 Center     Atomic      Atomic             Coordinates (Angstroms)
 Number     Number       Type             X           Y           Z
 ---------------------------------------------------------------------
      1          6           0       -0.586628   -1.404543    0.386461
      2          6           0       -0.030921   -0.001251    0.007737
      3          9           0       -0.608641    0.473708   -1.065727
      4          9           0       -0.229505    0.880083    1.065206
      5         16           0        1.881333   -0.065673   -0.251065
      6          8           0       -1.837146    1.012249    1.559577
      7          8           0        2.033973   -0.466137   -1.642488
      8          8           0        1.951029    1.580524   -0.147876
      9          9           0        0.023967   -2.307127   -0.389428
     10          9           0       -0.283022   -1.670454    1.651814
     11          9           0       -1.883537   -1.502048    0.197440
     12          1           0        2.790364    1.840021    0.247214
 ---------------------------------------------------------------------

 SCF Done:  E(RwB97XD) =  -1199.59779495     A.U. after    1 cycles

 Isotropic polarizability for W=    0.000000       64.05 Bohr**3.
 End of Minotr F.D. properties file   721 does not exist.

                      1                      2                      3
                      A                      A                      A
 Frequencies --     33.8973                51.7643                78.5319
 Red. masses --     11.1926                15.5443                15.1968
 Frc consts  --      0.0076                 0.0245                 0.0552
 IR Inten    --      4.8957                 1.4459                 1.4105

                      4                      5                      6
                      A                      A                      A
 Frequencies --    125.7996               140.0067               156.9604
 Red. masses --      1.8346                 5.7711                14.3323
 Frc consts  --      0.0171                 0.0667                 0.2080
 IR Inten    --     69.3357                23.7946                 6.4120

                      7                      8                      9
                      A                      A                      A
 Frequencies --    199.0644               226.9589               238.2275
 Red. masses --     13.4403                17.9377                 9.5230
 Frc consts  --      0.3138                 0.5444                 0.3184
 IR Inten    --      3.8525                 1.2747                 2.5490

                     10                     11                     12
                      A                      A                      A
 Frequencies --    279.2355               294.2977               361.9748
 Red. masses --     11.6717                 4.3416                15.9913
 Frc consts  --      0.5362                 0.2216                 1.2345
 IR Inten    --      5.5743                24.6562                 2.2633

                     13                     14                     15
                      A                      A                      A
 Frequencies --    409.4802               423.2363               490.8807
 Red. masses --     10.8632                15.0734                16.4453
 Frc consts  --      1.0732                 1.5908                 2.3348
 IR Inten    --     15.6454                 5.5144                86.7649

                     16                     17                     18
                      A                      A                      A
 Frequencies --    514.8933               548.9938               593.7182
 Red. masses --     15.7739                17.3195                17.8875
 Frc consts  --      2.4639                 3.0755                 3.7150
 IR Inten    --     10.5507                 8.8697                 5.2057

                     19                     20                     21
                      A                      A                      A
 Frequencies --    632.2378               747.9797               761.6921
 Red. masses --     14.9650                15.3070                17.2271
 Frc consts  --      3.5244                 5.0457                 5.8887
 IR Inten    --     46.4887               145.7957                 7.8055

                     22                     23                     24
                      A                      A                      A
 Frequencies --    945.9422              1023.5295              1094.8319
 Red. masses --     12.9098                10.2250                 1.1855
 Frc consts  --      6.8061                 6.3112                 0.8373
 IR Inten    --     83.7989               226.0144                63.9214

                     25                     26                     27
                      A                      A                      A
 Frequencies --   1197.8798              1233.4562              1252.6166
 Red. masses --     12.8233                13.6571                14.6770
 Frc consts  --     10.8412                12.2421                13.5682
 IR Inten    --    106.8337               149.8710               408.5631

                     28                     29                     30
                      A                      A                      A
 Frequencies --   1280.7970              1362.3061              3869.2600
 Red. masses --     13.0413                12.2487                 1.0674
 Frc consts  --     12.6047                13.3934                 9.4157
 IR Inten    --    160.8240               147.6021               184.4652

 - Thermochemistry -
 -------------------
 Temperature   298.150 Kelvin.  Pressure   1.00000 Atm.
 Atom     1 has atomic number  6 and mass  12.00000

 Molecular mass:   199.95666 amu.
 Principal axes and moments of inertia in atomic units:
                           1         2         3
     Eigenvalues --  1333.855772063.306112633.72190
           X            0.85086  -0.21243   0.48052
           Y            0.35190   0.90958  -0.22099
           Z           -0.39013   0.35713   0.84868
 This molecule is an asymmetric top.
 Rotational symmetry number  1.
 Warning -- assumption of classical behavior for rotation
           may cause significant error
 Rotational temperatures (Kelvin)      0.06493     0.04198     0.03289
 Rotational constants (GHZ):           1.35303     0.87468     0.68524
 Zero-point vibrational energy     123038.6 (Joules/Mol)
                                   29.40694 (Kcal/Mol)
 Warning -- explicit consideration of  18 degrees of freedom as
           vibrations may cause significant error
 Vibrational temperatures:     48.77    74.48   112.99   181.00   201.44
          (Kelvin)            225.83   286.41   326.54   342.76   401.76
                              423.43   520.80   589.15   608.94   706.27
                              740.82   789.88   854.23   909.65  1076.18
                             1095.91  1361.00  1472.63  1575.22  1723.48
                             1774.67  1802.24  1842.78  1960.05  5567.00

 Zero-point correction=                           0.046863 (Hartree/Particle)
 Thermal correction to Energy=                    0.058842
 Thermal correction to Enthalpy=                  0.059787
 Thermal correction to Gibbs Free Energy=         0.007423
 Sum of electronic and zero-point Energies=          -1199.550932
 Sum of electronic and thermal Energies=             -1199.538953
 Sum of electronic and thermal Enthalpies=           -1199.538008
 Sum of electronic and thermal Free Energies=        -1199.590372

                     E (Thermal)             CV                S
                      KCal/Mol        Cal/Mol-Kelvin    Cal/Mol-Kelvin
 Total                   36.924             39.873            110.208
 Electronic               0.000              0.000              0.000
 Translational            0.889              2.981             41.783
 Rotational               0.889              2.981             30.362
 Vibrational             35.147             33.911             38.063
 Vibration     1          0.594              1.983              5.587
 Vibration     2          0.596              1.977              4.749
 Vibration     3          0.600              1.964              3.927
 Vibration     4          0.611              1.927              3.009
 Vibration     5          0.615              1.913              2.804
 Vibration     6          0.621              1.895              2.586
 Vibration     7          0.637              1.841              2.142
 Vibration     8          0.651              1.800              1.903
 Vibration     9          0.656              1.782              1.816
 Vibration    10          0.680              1.712              1.538
 Vibration    11          0.689              1.684              1.449
 Vibration    12          0.736              1.551              1.114
 Vibration    13          0.774              1.450              0.928
 Vibration    14          0.785              1.420              0.881
 Vibration    15          0.847              1.270              0.681
 Vibration    16          0.870              1.217              0.622
 Vibration    17          0.904              1.142              0.546
 Vibration    18          0.951              1.045              0.461

 Optimization completed.
    -- Stationary point found.
 Normal termination of Gaussian 16 at Fri May 23 07:41:34 2025.
