 Gaussian 16, Revision C.01,
 Gaussian 16:  ES64L-G16RevC.01  3-Jul-2019

 ----------------------------------------------------------------------
 #P wb97xd/6-311++G(d,p) Symm(None) scf(xqc) pop(None) freq opt(CalcFC,
  Tight)
 ----------------------------------------------------------------------

 ------------------------------
 Gaussian input prepared by ASE
 ------------------------------
 Symbolic Z-matrix:
 Charge =  0 Multiplicity = 1

 SCF Done:  E(RwB97XD) =  -1199.81769498     A.U. after   15 cycles
 SCF Done:  E(RwB97XD) =  -1199.82252808     A.U. after   13 cycles
 SCF Done:  E(RwB97XD) =  -1199.82388777     A.U. after   14 cycles
 SCF Done:  E(RwB97XD) =  -1199.82419906     A.U. after   12 cycles
 SCF Done:  E(RwB97XD) =  -1199.82438554     A.U. after   12 cycles
 SCF Done:  E(RwB97XD) =  -1199.82472565     A.U. after   14 cycles
 SCF Done:  E(RwB97XD) =  -1199.82506031     A.U. after   12 cycles
 SCF Done:  E(RwB97XD) =  -1199.82500018     A.U. after   13 cycles
 SCF Done:  E(RwB97XD) =  -1199.82527195     A.U. after   12 cycles
 SCF Done:  E(RwB97XD) =  -1199.82541980     A.U. after   11 cycles
 SCF Done:  E(RwB97XD) =  -1199.82542404     A.U. after   10 cycles
 SCF Done:  E(RwB97XD) =  -1199.82542434     A.U. after    9 cycles
 SCF Done:  E(RwB97XD) =  -1199.82542437     A.U. after    8 cycles
 SCF Done:  E(RwB97XD) =  -1199.82542437     A.U. after    6 cycles
 SCF Done:  E(RwB97XD) =  -1199.82542437     A.U. after    5 cycles
 Optimization completed.
    -- Stationary point found.
 Normal termination of Gaussian 16 at Fri May 23 04:24:06 2025.

 ----------------------------------------------------------------------
 #P Geom=AllCheck Guess=TCheck SCRF=Check GenChk RwB97XD/6-311++G(d,p)
 Freq
 ----------------------------------------------------------------------

 Structure from the checkpoint file:  "/tmp/Gau-152678.chk"
 ------------------------------
 Gaussian input prepared by ASE
 ------------------------------
 Charge =  0 Multiplicity = 1

                          Input orientation:
 ---------------------------------------------------------------------
 Center     Atomic      Atomic             Coordinates (Angstroms)
 Number     Number       Type             X           Y           Z
 ---------------------------------------------------------------------
      1          6           0        1.809733    0.436123   -2.954671
      2          6           0        1.403447    0.165758   -0.014128
      3          9           0        0.359718    0.916864   -0.346719
      4          9           0        0.990651   -0.779901    0.842309
      5         16           0        1.999466   -0.808057   -1.541042
      6          8           0        1.119418   -1.910638   -1.824047
      7          8           0        3.425915   -0.961514   -1.316232
      8          8           0        2.379606    0.929235    0.468754
      9          9           0        2.478871   -0.042716   -3.986738
     10          9           0        0.539113    0.581173   -3.271115
     11          9           0        2.320368    1.601473   -2.590226
     12          1           0        3.229015    0.473641    0.381882
 ---------------------------------------------------------------------

 SCF Done:  E(RwB97XD) =  -1199.82542437     A.U. after    1 cycles

 Isotropic polarizability for W=    0.000000       58.12 Bohr**3.
 End of Minotr F.D. properties file   721 does not exist.

                      1                      2                      3
                      A                      A                      A
 Frequencies --     42.5895                51.0865               113.4576
 Red. masses --     15.5558                16.7869                17.4738
 Frc consts  --      0.0166                 0.0258                 0.1325
 IR Inten    --      0.5474                 0.4782                 0.2746

                      4                      5                      6
                      A                      A                      A
 Frequencies --    189.6128               208.0465               232.6845
 Red. masses --     13.3432                12.4788                16.8258
 Frc consts  --      0.2826                 0.3182                 0.5367
 IR Inten    --      6.4311                 5.1952                 4.5408

                      7                      8                      9
                      A                      A                      A
 Frequencies --    267.4805               291.3654               305.6585
 Red. masses --     16.9294                15.9253                 6.5747
 Frc consts  --      0.7136                 0.7966                 0.3619
 IR Inten    --      0.1733                 4.9766                18.4338

                     10                     11                     12
                      A                      A                      A
 Frequencies --    332.0252               397.6556               430.7098
 Red. masses --      9.9525                 3.4553                 1.8738
 Frc consts  --      0.6464                 0.3219                 0.2048
 IR Inten    --     14.8256                45.4788                82.9613

                     13                     14                     15
                      A                      A                      A
 Frequencies --    521.2080               523.0336               556.0686
 Red. masses --      9.5856                18.8283                13.9199
 Frc consts  --      1.5342                 3.0347                 2.5360
 IR Inten    --     26.1994                30.1590                 1.2043

                     16                     17                     18
                      A                      A                      A
 Frequencies --    579.2545               590.4323               628.7323
 Red. masses --     11.4267                13.8153                15.9788
 Frc consts  --      2.2590                 2.8376                 3.7216
 IR Inten    --     11.1491                27.4625               165.3153

                     19                     20                     21
                      A                      A                      A
 Frequencies --    768.0004               789.3003              1034.3750
 Red. masses --     14.2715                16.8727                 5.4764
 Frc consts  --      4.9595                 6.1932                 3.4523
 IR Inten    --      7.1348                 1.6317               187.9614

                     22                     23                     24
                      A                      A                      A
 Frequencies --   1114.6229              1158.9573              1214.7527
 Red. masses --      9.3625                 6.0902                 7.9607
 Frc consts  --      6.8533                 4.8197                 6.9211
 IR Inten    --    163.8248               416.9385                25.5172

                     25                     26                     27
                      A                      A                      A
 Frequencies --   1245.3595              1257.3653              1313.4186
 Red. masses --     12.2164                11.6281                 6.8639
 Frc consts  --     11.1631                10.8313                 6.9763
 IR Inten    --    176.3508               215.3361               407.6228

                     28                     29                     30
                      A                      A                      A
 Frequencies --   1372.0050              1413.3830              3792.7447
 Red. masses --      4.0642                 3.3602                 1.0658
 Frc consts  --      4.5075                 3.9549                 9.0328
 IR Inten    --    261.6660               214.2264               119.1843

 - Thermochemistry -
 -------------------
 Temperature   298.150 Kelvin.  Pressure   1.00000 Atm.
 Atom     1 has atomic number  6 and mass  12.00000

 Molecular mass:   199.95666 amu.
 Principal axes and moments of inertia in atomic units:
                           1         2         3
     Eigenvalues --  1205.726172144.591112341.25479
           X           -0.14592  -0.35280   0.92425
           Y           -0.11050   0.93422   0.33916
           Z            0.98311   0.05263   0.17530
 This molecule is an asymmetric top.
 Rotational symmetry number  1.
 Warning -- assumption of classical behavior for rotation
           may cause significant error
 Rotational temperatures (Kelvin)      0.07184     0.04039     0.03699
 Rotational constants (GHZ):           1.49681     0.84153     0.77084
 Zero-point vibrational energy     135987.8 (Joules/Mol)
                                   32.50187 (Kcal/Mol)
 Warning -- explicit consideration of  17 degrees of freedom as
           vibrations may cause significant error
 Vibrational temperatures:     61.28    73.50   163.24   272.81   299.33
          (Kelvin)            334.78   384.84   419.21   439.77   477.71
                              572.14   619.70   749.90   752.53   800.06
                              833.42   849.50   904.61  1104.98  1135.63
                             1488.23  1603.69  1667.48  1747.76  1791.79
                             1809.07  1889.72  1974.01  2033.54  5456.91

 Zero-point correction=                           0.051795 (Hartree/Particle)
 Thermal correction to Energy=                    0.062335
 Thermal correction to Enthalpy=                  0.063280
 Thermal correction to Gibbs Free Energy=         0.014491
 Sum of electronic and zero-point Energies=          -1199.773629
 Sum of electronic and thermal Energies=             -1199.763089
 Sum of electronic and thermal Enthalpies=           -1199.762145
 Sum of electronic and thermal Free Energies=        -1199.810933

                     E (Thermal)             CV                S
                      KCal/Mol        Cal/Mol-Kelvin    Cal/Mol-Kelvin
 Total                   39.116             36.652            102.684
 Electronic               0.000              0.000              0.000
 Translational            0.889              2.981             41.783
 Rotational               0.889              2.981             30.183
 Vibrational             37.339             30.690             30.718
 Vibration     1          0.595              1.980              5.135
 Vibration     2          0.595              1.977              4.775
 Vibration     3          0.607              1.938              3.209
 Vibration     4          0.633              1.854              2.232
 Vibration     5          0.641              1.828              2.061
 Vibration     6          0.653              1.791              1.858
 Vibration     7          0.673              1.733              1.612
 Vibration     8          0.687              1.690              1.466
 Vibration     9          0.696              1.663              1.386
 Vibration    10          0.714              1.612              1.250
 Vibration    11          0.764              1.475              0.971
 Vibration    12          0.792              1.403              0.856
 Vibration    13          0.876              1.203              0.607
 Vibration    14          0.878              1.199              0.603
 Vibration    15          0.912              1.126              0.532
 Vibration    16          0.936              1.076              0.487
 Vibration    17          0.948              1.052              0.466

 Optimization completed.
    -- Stationary point found.
 Normal termination of Gaussian 16 at Fri May 23 04:25:36 2025.
