 Gaussian 16, Revision C.01,
 Gaussian 16:  ES64L-G16RevC.01  3-Jul-2019

 ----------------------------------------------------------------------
 #P wb97xd/6-311++G(d,p) Symm(None) scf(xqc) pop(None) opt(NoFreeze,TS,
 CalcAll,NoEigentest,MaxCycle=999)
 ----------------------------------------------------------------------

 ------------------------------
 Gaussian input prepared by ASE
 ------------------------------
 Symbolic Z-matrix:
 Charge =  0 Multiplicity = 1

 SCF Done:  E(RwB97XD) =  -1199.64237530     A.U. after   16 cycles

 Isotropic polarizability for W=    0.000000       63.34 Bohr**3.
 End of Minotr F.D. properties file   721 does not exist.

 Optimization completed.
    -- Stationary point found.

                          Input orientation:
 ---------------------------------------------------------------------
 Center     Atomic      Atomic             Coordinates (Angstroms)
 Number     Number       Type             X           Y           Z
 ---------------------------------------------------------------------
      1          6           0       -1.627173    0.108175    0.991885
      2          6           0        0.160139    0.518840    0.400711
      3          9           0       -0.091099    0.111065   -0.847513
      4          9           0        0.017350    1.817777    0.602602
      5         16           0        2.050931    0.251267    0.531380
      6          8           0        2.522175    0.884206    1.723156
      7          8           0        2.342358   -1.113250    0.181885
      8          8           0        2.504117    1.194961   -0.701373
      9          9           0       -0.010311   -0.495979    1.702715
     10          9           0       -2.179369    0.654152    2.013477
     11          9           0       -2.227297   -0.993638    0.719981
     12          1           0        2.588608    0.660453   -1.500615
 ---------------------------------------------------------------------

 ******    1 imaginary frequencies (negative Signs) ******

                      1                      2                      3
                      A                      A                      A
 Frequencies --   -585.9681                45.6299                69.6318
 Red. masses --     14.5546                16.6978                12.3675
 Frc consts  --      2.9444                 0.0205                 0.0353
 IR Inten    --     31.6380                 0.2346                 1.2983

                      4                      5                      6
                      A                      A                      A
 Frequencies --    115.3762               117.9931               214.0221
 Red. masses --     12.7932                17.9253                 9.2983
 Frc consts  --      0.1003                 0.1470                 0.2509
 IR Inten    --     41.5720                 2.8074                 6.4207

                      7                      8                      9
                      A                      A                      A
 Frequencies --    239.8959               250.1804               254.0647
 Red. masses --     12.1762                18.3258                12.0857
 Frc consts  --      0.4129                 0.6758                 0.4596
 IR Inten    --     34.3115                 1.7102                 1.5605

                     10                     11                     12
                      A                      A                      A
 Frequencies --    310.0769               321.8716               340.4039
 Red. masses --      1.7249                12.8027                13.2337
 Frc consts  --      0.0977                 0.7815                 0.9035
 IR Inten    --     48.2778                40.9807                30.7895

                     13                     14                     15
                      A                      A                      A
 Frequencies --    386.2522               429.6822               483.8155
 Red. masses --      4.6119                 6.8374                13.1009
 Frc consts  --      0.4054                 0.7438                 1.8068
 IR Inten    --     19.3044                13.2203                20.7266

                     16                     17                     18
                      A                      A                      A
 Frequencies --    488.6224               535.3002               597.0173
 Red. masses --      7.7297                16.5619                18.8655
 Frc consts  --      1.0873                 2.7961                 3.9618
 IR Inten    --     16.3244                99.3619               393.7314

                     19                     20                     21
                      A                      A                      A
 Frequencies --    651.1310               689.8646               740.2927
 Red. masses --     14.9931                17.1071                14.3552
 Frc consts  --      3.7452                 4.7968                 4.6352
 IR Inten    --     81.0298                 1.9927               561.3058

                     22                     23                     24
                      A                      A                      A
 Frequencies --    827.3189              1048.8439              1127.1792
 Red. masses --     16.7968                13.5437                 1.1952
 Frc consts  --      6.7737                 8.7783                 0.8947
 IR Inten    --     15.6963               352.5415                51.3333

                     25                     26                     27
                      A                      A                      A
 Frequencies --   1204.7292              1216.3670              1311.4717
 Red. masses --     16.4669                13.0950                13.5219
 Frc consts  --     14.0813                11.4153                13.7027
 IR Inten    --    122.9833                84.0553               327.6005

                     28                     29                     30
                      A                      A                      A
 Frequencies --   1313.8729              1433.2259              3846.6659
 Red. masses --     13.5831                13.7919                 1.0663
 Frc consts  --     13.8151                16.6918                 9.2956
 IR Inten    --    265.6338               326.4724               148.9413

 - Thermochemistry -
 -------------------
 Temperature   298.150 Kelvin.  Pressure   1.00000 Atm.
 Atom     1 has atomic number  6 and mass  12.00000

 Molecular mass:   199.95666 amu.
 Principal axes and moments of inertia in atomic units:
                           1         2         3
     Eigenvalues --   964.882852753.389892799.17761
           X            0.97120   0.05860   0.23097
           Y            0.10423   0.76716  -0.63293
           Z           -0.21428   0.63877   0.73896
 This molecule is an asymmetric top.
 Rotational symmetry number  1.
 Warning -- assumption of classical behavior for rotation
           may cause significant error
 Rotational temperatures (Kelvin)      0.08977     0.03146     0.03094
 Rotational constants (GHZ):           1.87043     0.65546     0.64474
    1 imaginary frequencies ignored.
 Zero-point vibrational energy     123280.0 (Joules/Mol)
                                   29.46462 (Kcal/Mol)
 Warning -- explicit consideration of  17 degrees of freedom as
           vibrations may cause significant error
 Vibrational temperatures:     65.65   100.18   166.00   169.77   307.93
          (Kelvin)            345.16   359.95   365.54   446.13   463.10
                              489.77   555.73   618.22   696.10   703.02
                              770.18   858.97   936.83   992.56  1065.12
                             1190.33  1509.05  1621.76  1733.34  1750.08
                             1886.92  1890.37  2062.09  5534.49

 Zero-point correction=                           0.046955 (Hartree/Particle)
 Thermal correction to Energy=                    0.057979
 Thermal correction to Enthalpy=                  0.058923
 Thermal correction to Gibbs Free Energy=         0.009288
 Sum of electronic and zero-point Energies=          -1199.595420
 Sum of electronic and thermal Energies=             -1199.584397
 Sum of electronic and thermal Enthalpies=           -1199.583452
 Sum of electronic and thermal Free Energies=        -1199.633087

                     E (Thermal)             CV                S
                      KCal/Mol        Cal/Mol-Kelvin    Cal/Mol-Kelvin
 Total                   36.382             37.949            104.466
 Electronic               0.000              0.000              0.000
 Translational            0.889              2.981             41.783
 Rotational               0.889              2.981             30.387
 Vibrational             34.605             31.988             32.295
 Vibration     1          0.595              1.979              4.998
 Vibration     2          0.598              1.969              4.164
 Vibration     3          0.608              1.937              3.176
 Vibration     4          0.608              1.934              3.133
 Vibration     5          0.644              1.820              2.009
 Vibration     6          0.657              1.779              1.804
 Vibration     7          0.663              1.762              1.729
 Vibration     8          0.665              1.756              1.702
 Vibration     9          0.699              1.655              1.362
 Vibration    10          0.707              1.632              1.301
 Vibration    11          0.720              1.595              1.210
 Vibration    12          0.755              1.500              1.015
 Vibration    13          0.791              1.406              0.860
 Vibration    14          0.840              1.286              0.700
 Vibration    15          0.845              1.275              0.687
 Vibration    16          0.890              1.172              0.575
 Vibration    17          0.955              1.038              0.455

 Normal termination of Gaussian 16 at Fri May 23 04:51:41 2025.
