 Gaussian 16, Revision C.01,
 Gaussian 16:  ES64L-G16RevC.01  3-Jul-2019

 ----------------------------------------------------------------------
 #P wb97xd/6-311++G(d,p) Symm(None) scf(xqc) pop(None) opt(NoFreeze,TS,
 CalcAll,NoEigentest,MaxCycle=999)
 ----------------------------------------------------------------------

 ------------------------------
 Gaussian input prepared by ASE
 ------------------------------
 Symbolic Z-matrix:
 Charge =  0 Multiplicity = 1

 SCF Done:  E(RwB97XD) =  -1199.67452689     A.U. after   16 cycles
 SCF Done:  E(RwB97XD) =  -1199.67452704     A.U. after   10 cycles

 Isotropic polarizability for W=    0.000000       70.59 Bohr**3.
 End of Minotr F.D. properties file   721 does not exist.

 Optimization completed.
    -- Stationary point found.

                          Input orientation:
 ---------------------------------------------------------------------
 Center     Atomic      Atomic             Coordinates (Angstroms)
 Number     Number       Type             X           Y           Z
 ---------------------------------------------------------------------
      1          6           0       -0.236966    1.091695    0.869593
      2          6           0       -0.000066   -0.000102    0.000343
      3          9           0       -0.327959   -1.198537    0.463040
      4          9           0       -0.397014    0.184266   -1.248003
      5         16           0        2.302173   -0.000469   -0.000123
      6          8           0        2.342730   -0.900781    1.122230
      7          8           0        2.214673   -0.350392   -1.392979
      8          8           0        3.681469    0.826502    0.000011
      9          9           0        1.649648    1.678612    0.819273
     10          9           0       -0.663818    2.222467    0.453108
     11          9           0       -0.302091    0.920482    2.132724
     12          1           0        3.760464    1.315000    0.829809
 ---------------------------------------------------------------------

 ******    1 imaginary frequencies (negative Signs) ******

                      1                      2                      3
                      A                      A                      A
 Frequencies --   -643.3005                34.4902                77.1733
 Red. masses --     14.0915                14.4963                 8.5781
 Frc consts  --      3.4359                 0.0102                 0.0301
 IR Inten    --    191.1829                 0.8285                 8.4369

                      4                      5                      6
                      A                      A                      A
 Frequencies --    169.3697               190.9579               198.1862
 Red. masses --     13.1755                13.4993                12.5999
 Frc consts  --      0.2227                 0.2900                 0.2916
 IR Inten    --     19.4601                 4.4803                 2.9830

                      7                      8                      9
                      A                      A                      A
 Frequencies --    214.3251               241.7338               277.9043
 Red. masses --     18.1298                 4.0506                 7.2301
 Frc consts  --      0.4907                 0.1395                 0.3290
 IR Inten    --      4.7362                15.3009                 5.6570

                     10                     11                     12
                      A                      A                      A
 Frequencies --    303.4691               329.1342               370.1105
 Red. masses --     13.3831                13.8037                10.9788
 Frc consts  --      0.7262                 0.8810                 0.8861
 IR Inten    --     12.3702                15.3113                65.2489

                     13                     14                     15
                      A                      A                      A
 Frequencies --    424.4812               438.5814               488.8922
 Red. masses --      4.2421                 3.4439                 6.9338
 Frc consts  --      0.4503                 0.3903                 0.9764
 IR Inten    --    173.8909                60.9565                36.5055

                     16                     17                     18
                      A                      A                      A
 Frequencies --    521.2527               545.8232               555.8572
 Red. masses --     10.0361                14.5899                15.0205
 Frc consts  --      1.6066                 2.5610                 2.7344
 IR Inten    --    116.4042               158.7470               100.4094

                     19                     20                     21
                      A                      A                      A
 Frequencies --    600.8610               680.4558               782.9091
 Red. masses --     16.9952                12.2090                15.9142
 Frc consts  --      3.6151                 3.3307                 5.7472
 IR Inten    --      8.9674                14.5836               216.0707

                     22                     23                     24
                      A                      A                      A
 Frequencies --    822.0811              1132.1908              1199.4686
 Red. masses --     17.0226                10.5007                 3.3965
 Frc consts  --      6.7781                 7.9306                 2.8791
 IR Inten    --    202.4481                74.3243               284.3775

                     25                     26                     27
                      A                      A                      A
 Frequencies --   1206.4028              1293.2775              1398.2383
 Red. masses --      1.7331                13.0907                13.0498
 Frc consts  --      1.4861                12.9002                15.0319
 IR Inten    --    155.4671               121.8778               198.1513

                     28                     29                     30
                      A                      A                      A
 Frequencies --   1457.8793              1558.8244              3832.7941
 Red. masses --     13.2520                12.5214                 1.0659
 Frc consts  --     16.5949                17.9266                 9.2254
 IR Inten    --    343.0239               703.0958               134.3186

 - Thermochemistry -
 -------------------
 Temperature   298.150 Kelvin.  Pressure   1.00000 Atm.
 Atom     1 has atomic number  6 and mass  12.00000

 Molecular mass:   199.95666 amu.
 Principal axes and moments of inertia in atomic units:
                           1         2         3
     Eigenvalues --  1275.933092106.315282373.52229
           X            0.94336   0.33073   0.02610
           Y           -0.24467   0.74668  -0.61856
           Z           -0.22406   0.57714   0.78531
 This molecule is an asymmetric top.
 Rotational symmetry number  1.
 Warning -- assumption of classical behavior for rotation
           may cause significant error
 Rotational temperatures (Kelvin)      0.06788     0.04112     0.03649
 Rotational constants (GHZ):           1.41445     0.85682     0.76036
    1 imaginary frequencies ignored.
 Zero-point vibrational energy     127684.2 (Joules/Mol)
                                   30.51725 (Kcal/Mol)
 Warning -- explicit consideration of  18 degrees of freedom as
           vibrations may cause significant error
 Vibrational temperatures:     49.62   111.04   243.69   274.75   285.15
          (Kelvin)            308.37   347.80   399.84   436.62   473.55
                              532.51   610.73   631.02   703.41   749.97
                              785.32   799.75   864.50   979.02  1126.43
                             1182.79  1628.97  1725.77  1735.74  1860.74
                             2011.75  2097.56  2242.80  5514.54

 Zero-point correction=                           0.048632 (Hartree/Particle)
 Thermal correction to Energy=                    0.059386
 Thermal correction to Enthalpy=                  0.060330
 Thermal correction to Gibbs Free Energy=         0.011434
 Sum of electronic and zero-point Energies=          -1199.625895
 Sum of electronic and thermal Energies=             -1199.615141
 Sum of electronic and thermal Enthalpies=           -1199.614197
 Sum of electronic and thermal Free Energies=        -1199.663093

                     E (Thermal)             CV                S
                      KCal/Mol        Cal/Mol-Kelvin    Cal/Mol-Kelvin
 Total                   37.265             37.424            102.910
 Electronic               0.000              0.000              0.000
 Translational            0.889              2.981             41.783
 Rotational               0.889              2.981             30.235
 Vibrational             35.488             31.463             30.892
 Vibration     1          0.594              1.983              5.553
 Vibration     2          0.599              1.964              3.962
 Vibration     3          0.625              1.880              2.442
 Vibration     4          0.634              1.852              2.219
 Vibration     5          0.637              1.842              2.150
 Vibration     6          0.644              1.819              2.007
 Vibration     7          0.658              1.776              1.790
 Vibration     8          0.679              1.714              1.547
 Vibration     9          0.695              1.667              1.398
 Vibration    10          0.712              1.617              1.264
 Vibration    11          0.742              1.534              1.079
 Vibration    12          0.786              1.417              0.877
 Vibration    13          0.799              1.386              0.831
 Vibration    14          0.845              1.275              0.686
 Vibration    15          0.876              1.203              0.607
 Vibration    16          0.901              1.149              0.553
 Vibration    17          0.911              1.127              0.532
 Vibration    18          0.959              1.030              0.448

 Normal termination of Gaussian 16 at Fri May 23 05:03:19 2025.
