 Gaussian 16, Revision C.01,
 Gaussian 16:  ES64L-G16RevC.01  3-Jul-2019

 ------------------------------------------
 #P am1 Symm(None) scf(xqc) pop(None) force
 ------------------------------------------

 ------------------------------
 Gaussian input prepared by ASE
 ------------------------------
 Symbolic Z-matrix:
 Charge =  0 Multiplicity = 1

                          Input orientation:
 ---------------------------------------------------------------------
 Center     Atomic      Atomic             Coordinates (Angstroms)
 Number     Number       Type             X           Y           Z
 ---------------------------------------------------------------------
      1          6           0        1.855986   -0.802280   -1.115412
      2          6           0        1.910284    0.009202    0.148156
      3          9           0       -0.557314    1.067486   -0.689572
      4          9           0        2.151628   -0.704996    1.244906
      5         16           0        1.822122    1.666752    0.274263
      6          8           0        0.316505    1.902801    0.527869
      7          8           0        2.621857    2.410880    1.188229
      8          8           0        1.932334    2.296377   -1.158631
      9          9           0        1.636619   -0.059994   -2.207388
     10          9           0        2.984156   -1.472183   -1.379577
     11          9           0        0.894502   -1.724214   -1.135344
     12          1           0        1.358072    2.042888   -1.899860
 ---------------------------------------------------------------------

 SCF Done:  E(RAM1) =  0.658133016198     A.U. after   33 cycles
 SCF Done:  E(RAM1) =  0.658133016193     a.u. after    1 cycles
 Normal termination of Gaussian 16 at Fri May 23 05:16:05 2025.
