 Gaussian 16, Revision C.01,
 Gaussian 16:  ES64L-G16RevC.01  3-Jul-2019

 ----------------------------------------------------------------------
 #P wb97xd/6-311++G(d,p) Symm(None) scf(xqc) pop(None) opt(NoFreeze,TS,
 CalcAll,NoEigentest,MaxCycle=999)
 ----------------------------------------------------------------------

 ------------------------------
 Gaussian input prepared by ASE
 ------------------------------
 Symbolic Z-matrix:
 Charge =  0 Multiplicity = 1

 SCF Done:  E(RwB97XD) =  -1199.60808053     A.U. after   20 cycles
 SCF Done:  E(RwB97XD) =  -1199.63092839     A.U. after   18 cycles
 SCF Done:  E(RwB97XD) =  -1199.65498987     A.U. after   18 cycles
 SCF Done:  E(RwB97XD) =  -1199.66159975     A.U. after   17 cycles
 SCF Done:  E(RwB97XD) =  -1199.66350887     A.U. after   15 cycles
 SCF Done:  E(RwB97XD) =  -1199.66366806     A.U. after   14 cycles
 SCF Done:  E(RwB97XD) =  -1199.66366996     A.U. after   11 cycles

 Isotropic polarizability for W=    0.000000       72.61 Bohr**3.
 End of Minotr F.D. properties file   721 does not exist.

 Optimization completed.
    -- Stationary point found.

                          Input orientation:
 ---------------------------------------------------------------------
 Center     Atomic      Atomic             Coordinates (Angstroms)
 Number     Number       Type             X           Y           Z
 ---------------------------------------------------------------------
      1          6           0       -0.187215   -1.255514    0.036400
      2          6           0        0.215289    0.082683    0.026525
      3          9           0       -0.023390    0.766499   -1.084011
      4          9           0        0.009151    0.784429    1.121980
      5         16           0        2.593451   -0.258052    0.043857
      6          8           0        2.918550   -0.474673    1.420526
      7          8           0        3.378788   -0.458184   -1.147361
      8          8           0        2.383226    1.386137    0.008757
      9          9           0       -0.378558   -1.884971    1.126570
     10          9           0        1.787343   -1.947930   -0.164980
     11          9           0       -0.531082   -1.871594   -1.025406
     12          1           0        2.549515    1.686593   -0.893917
 ---------------------------------------------------------------------

 ******    1 imaginary frequencies (negative Signs) ******

                      1                      2                      3
                      A                      A                      A
 Frequencies --   -574.9136                32.5532                61.8387
 Red. masses --     12.7182                15.2334                12.1383
 Frc consts  --      2.4767                 0.0095                 0.0273
 IR Inten    --    194.2437                 1.7940                 2.7032

                      4                      5                      6
                      A                      A                      A
 Frequencies --    160.3254               170.1761               202.8952
 Red. masses --     18.7647                17.0850                17.4228
 Frc consts  --      0.2842                 0.2915                 0.4226
 IR Inten    --     17.8477                10.5427                 0.1700

                      7                      8                      9
                      A                      A                      A
 Frequencies --    210.9849               240.2442               274.1510
 Red. masses --     17.4385                15.6678                10.9801
 Frc consts  --      0.4574                 0.5328                 0.4862
 IR Inten    --      1.9572                 3.2379                 8.1645

                     10                     11                     12
                      A                      A                      A
 Frequencies --    317.7595               367.9752               388.4817
 Red. masses --      7.7167                 1.8340                14.0898
 Frc consts  --      0.4591                 0.1463                 1.2528
 IR Inten    --      9.1975                29.3487                17.4964

                     13                     14                     15
                      A                      A                      A
 Frequencies --    406.8455               443.5558               481.0820
 Red. masses --     15.6662                 5.5678                 3.7962
 Frc consts  --      1.5278                 0.6454                 0.5177
 IR Inten    --     26.7045               228.2551                 3.5204

                     16                     17                     18
                      A                      A                      A
 Frequencies --    512.2385               548.2941               560.2538
 Red. masses --     10.5089                16.7543                14.3741
 Frc consts  --      1.6246                 2.9676                 2.6583
 IR Inten    --    240.5129                 1.3459               138.8124

                     19                     20                     21
                      A                      A                      A
 Frequencies --    594.4342               645.8386               717.9966
 Red. masses --     16.5605                13.2766                16.7651
 Frc consts  --      3.4477                 3.2628                 5.0922
 IR Inten    --      4.3209                 8.6771               183.6443

                     22                     23                     24
                      A                      A                      A
 Frequencies --    812.8833              1117.1606              1148.3429
 Red. masses --     17.7515                 9.7682                 1.2698
 Frc consts  --      6.9110                 7.1828                 0.9866
 IR Inten    --     59.4121               227.7745               100.4856

                     25                     26                     27
                      A                      A                      A
 Frequencies --   1209.7124              1305.7587              1424.6170
 Red. masses --     13.7625                13.1136                12.4945
 Frc consts  --     11.8662                13.1734                14.9405
 IR Inten    --    321.9236               155.9303               187.1281

                     28                     29                     30
                      A                      A                      A
 Frequencies --   1479.0073              1606.0921              3836.6940
 Red. masses --     13.2369                12.4009                 1.0664
 Frc consts  --     17.0599                18.8470                 9.2485
 IR Inten    --    341.4901               812.6367               165.8877

 - Thermochemistry -
 -------------------
 Temperature   298.150 Kelvin.  Pressure   1.00000 Atm.
 Atom     1 has atomic number  6 and mass  12.00000

 Molecular mass:   199.95666 amu.
 Principal axes and moments of inertia in atomic units:
                           1         2         3
     Eigenvalues --  1312.269002074.100942351.77988
           X            0.93827  -0.34547   0.01711
           Y            0.34578   0.93807  -0.02121
           Z           -0.00872   0.02582   0.99963
 This molecule is an asymmetric top.
 Rotational symmetry number  1.
 Warning -- assumption of classical behavior for rotation
           may cause significant error
 Rotational temperatures (Kelvin)      0.06600     0.04176     0.03683
 Rotational constants (GHZ):           1.37528     0.87013     0.76739
    1 imaginary frequencies ignored.
 Zero-point vibrational energy     127271.9 (Joules/Mol)
                                   30.41870 (Kcal/Mol)
 Warning -- explicit consideration of  18 degrees of freedom as
           vibrations may cause significant error
 Vibrational temperatures:     46.84    88.97   230.67   244.85   291.92
          (Kelvin)            303.56   345.66   394.44   457.18   529.43
                              558.94   585.36   638.18   692.17   737.00
                              788.87   806.08   855.26   929.22  1033.04
                             1169.56  1607.34  1652.21  1740.51  1878.70
                             2049.71  2127.96  2310.81  5520.15

 Zero-point correction=                           0.048475 (Hartree/Particle)
 Thermal correction to Energy=                    0.059305
 Thermal correction to Enthalpy=                  0.060249
 Thermal correction to Gibbs Free Energy=         0.010985
 Sum of electronic and zero-point Energies=          -1199.615195
 Sum of electronic and thermal Energies=             -1199.604365
 Sum of electronic and thermal Enthalpies=           -1199.603421
 Sum of electronic and thermal Free Energies=        -1199.652685

                     E (Thermal)             CV                S
                      KCal/Mol        Cal/Mol-Kelvin    Cal/Mol-Kelvin
 Total                   37.215             37.611            103.686
 Electronic               0.000              0.000              0.000
 Translational            0.889              2.981             41.783
 Rotational               0.889              2.981             30.238
 Vibrational             35.437             31.649             31.664
 Vibration     1          0.594              1.983              5.667
 Vibration     2          0.597              1.973              4.398
 Vibration     3          0.622              1.891              2.546
 Vibration     4          0.625              1.879              2.434
 Vibration     5          0.639              1.836              2.107
 Vibration     6          0.643              1.824              2.035
 Vibration     7          0.657              1.779              1.801
 Vibration     8          0.676              1.721              1.570
 Vibration     9          0.704              1.640              1.322
 Vibration    10          0.741              1.538              1.088
 Vibration    11          0.757              1.495              1.006
 Vibration    12          0.772              1.455              0.938
 Vibration    13          0.803              1.375              0.816
 Vibration    14          0.837              1.292              0.707
 Vibration    15          0.867              1.223              0.628
 Vibration    16          0.904              1.143              0.548
 Vibration    17          0.916              1.117              0.523
 Vibration    18          0.952              1.044              0.459

 Normal termination of Gaussian 16 at Fri May 23 05:05:50 2025.
