 Gaussian 16, Revision C.01,
 Gaussian 16:  ES64L-G16RevC.01  3-Jul-2019

 ----------------------------------------------------------------------
 #P wb97xd/6-311++G(d,p) Symm(None) scf(xqc) pop(None) freq opt(CalcFC,
  Tight)
 ----------------------------------------------------------------------

 ------------------------------
 Gaussian input prepared by ASE
 ------------------------------
 Symbolic Z-matrix:
 Charge =  0 Multiplicity = 1

 SCF Done:  E(RwB97XD) =  -1199.72593809     A.U. after   16 cycles
 SCF Done:  E(RwB97XD) =  -1199.73460691     A.U. after   15 cycles
 SCF Done:  E(RwB97XD) =  -1199.71333891     A.U. after   16 cycles
 SCF Done:  E(RwB97XD) =  -1199.73579516     A.U. after   14 cycles
 SCF Done:  E(RwB97XD) =  -1199.73610991     A.U. after   13 cycles
 SCF Done:  E(RwB97XD) =  -1199.73641131     A.U. after   13 cycles
 SCF Done:  E(RwB97XD) =  -1199.73659760     A.U. after   13 cycles
 SCF Done:  E(RwB97XD) =  -1199.73677027     A.U. after   13 cycles
 SCF Done:  E(RwB97XD) =  -1199.73681039     A.U. after   12 cycles
 SCF Done:  E(RwB97XD) =  -1199.73681423     A.U. after   12 cycles
 SCF Done:  E(RwB97XD) =  -1199.73682821     A.U. after   11 cycles
 SCF Done:  E(RwB97XD) =  -1199.73682945     A.U. after    9 cycles
 SCF Done:  E(RwB97XD) =  -1199.73682973     A.U. after   10 cycles
 SCF Done:  E(RwB97XD) =  -1199.73682983     A.U. after    9 cycles
 SCF Done:  E(RwB97XD) =  -1199.73682985     A.U. after    7 cycles
 SCF Done:  E(RwB97XD) =  -1199.73682985     A.U. after    6 cycles
 Optimization completed.
    -- Stationary point found.
 Normal termination of Gaussian 16 at Fri May 23 05:21:26 2025.

 ----------------------------------------------------------------------
 #P Geom=AllCheck Guess=TCheck SCRF=Check GenChk RwB97XD/6-311++G(d,p)
 Freq
 ----------------------------------------------------------------------

 Structure from the checkpoint file:  "/tmp/Gau-254909.chk"
 ------------------------------
 Gaussian input prepared by ASE
 ------------------------------
 Charge =  0 Multiplicity = 1

                          Input orientation:
 ---------------------------------------------------------------------
 Center     Atomic      Atomic             Coordinates (Angstroms)
 Number     Number       Type             X           Y           Z
 ---------------------------------------------------------------------
      1          6           0       -0.800762    2.698593    1.760800
      2          6           0        0.129034    1.679736    2.463959
      3          9           0        0.287767    2.074490    3.738833
      4          9           0       -0.427552    0.473765    2.448063
      5         16           0        1.925519    1.605144    1.783328
      6          8           0        0.879142    0.349844   -0.230611
      7          8           0        2.405331    0.322194    2.280032
      8          8           0        1.555480    1.543597    0.148732
      9          9           0       -0.159463    3.852432    1.594040
     10          9           0       -1.180806    2.243752    0.560644
     11          9           0       -1.890909    2.911904    2.483430
     12          1           0        0.008837    0.699254   -0.464300
 ---------------------------------------------------------------------

 SCF Done:  E(RwB97XD) =  -1199.73682985     A.U. after    1 cycles

 Isotropic polarizability for W=    0.000000       60.30 Bohr**3.
 End of Minotr F.D. properties file   721 does not exist.

                      1                      2                      3
                      A                      A                      A
 Frequencies --     54.8341                70.7160               132.0018
 Red. masses --     15.0412                15.7609                11.8799
 Frc consts  --      0.0266                 0.0464                 0.1220
 IR Inten    --      0.6844                 0.9511                 0.5564

                      4                      5                      6
                      A                      A                      A
 Frequencies --    140.9748               187.2469               218.5591
 Red. masses --      7.7407                 6.4734                12.1734
 Frc consts  --      0.0906                 0.1337                 0.3426
 IR Inten    --     12.2799                16.0778                 9.4229

                      7                      8                      9
                      A                      A                      A
 Frequencies --    230.6517               256.7297               270.1243
 Red. masses --     17.5058                 7.8435                17.0056
 Frc consts  --      0.5487                 0.3046                 0.7311
 IR Inten    --      0.3601                19.7452                 1.3222

                     10                     11                     12
                      A                      A                      A
 Frequencies --    307.7948               341.7539               379.7074
 Red. masses --      2.9338                 3.2139                 6.6880
 Frc consts  --      0.1638                 0.2212                 0.5681
 IR Inten    --     49.7116                32.9747                14.5413

                     13                     14                     15
                      A                      A                      A
 Frequencies --    422.9749               458.1172               540.3983
 Red. masses --     10.5364                13.5232                18.0764
 Frc consts  --      1.1106                 1.6722                 3.1102
 IR Inten    --     19.4345                62.1728                 2.5233

                     16                     17                     18
                      A                      A                      A
 Frequencies --    572.3636               613.6636               635.2046
 Red. masses --     18.3107                18.2881                15.9510
 Frc consts  --      3.5343                 4.0577                 3.7920
 IR Inten    --     14.0313                25.8836                38.9483

                     19                     20                     21
                      A                      A                      A
 Frequencies --    654.3690               757.4592               959.2941
 Red. masses --     17.3241                17.2737                14.7550
 Frc consts  --      4.3707                 5.8392                 8.0000
 IR Inten    --     25.5230                15.1569                 2.1892

                     22                     23                     24
                      A                      A                      A
 Frequencies --    968.4596              1145.7996              1207.4593
 Red. masses --     13.3994                13.6229                12.3916
 Frc consts  --      7.4046                10.5375                10.6444
 IR Inten    --     80.0845               170.4144                49.4546

                     25                     26                     27
                      A                      A                      A
 Frequencies --   1223.1630              1237.7642              1243.4582
 Red. masses --     13.0827                13.0109                18.3287
 Frc consts  --     11.5323                11.7445                16.6972
 IR Inten    --    401.5872               189.7270               250.8974

                     28                     29                     30
                      A                      A                      A
 Frequencies --   1351.7276              1429.8672              3815.9006
 Red. masses --     12.7485                 1.1142                 1.0680
 Frc consts  --     13.7242                 1.3421                 9.1623
 IR Inten    --    126.7545                47.6975                77.0569

 - Thermochemistry -
 -------------------
 Temperature   298.150 Kelvin.  Pressure   1.00000 Atm.
 Atom     1 has atomic number  6 and mass  12.00000

 Molecular mass:   199.95666 amu.
 Principal axes and moments of inertia in atomic units:
                           1         2         3
     Eigenvalues --  1267.973682080.812732457.25835
           X            0.80825   0.22265   0.54512
           Y           -0.54432  -0.07059   0.83590
           Z           -0.22459   0.97234  -0.06414
 This molecule is an asymmetric top.
 Rotational symmetry number  1.
 Warning -- assumption of classical behavior for rotation
           may cause significant error
 Rotational temperatures (Kelvin)      0.06831     0.04163     0.03525
 Rotational constants (GHZ):           1.42333     0.86733     0.73445
 Zero-point vibrational energy     130563.7 (Joules/Mol)
                                   31.20546 (Kcal/Mol)
 Warning -- explicit consideration of  17 degrees of freedom as
           vibrations may cause significant error
 Vibrational temperatures:     78.89   101.74   189.92   202.83   269.41
          (Kelvin)            314.46   331.86   369.38   388.65   442.85
                              491.71   546.31   608.57   659.13   777.51
                              823.50   882.93   913.92   941.49  1089.81
                             1380.21  1393.40  1648.55  1737.26  1759.86
                             1780.87  1789.06  1944.83  2057.26  5490.23

 Zero-point correction=                           0.049729 (Hartree/Particle)
 Thermal correction to Energy=                    0.060803
 Thermal correction to Enthalpy=                  0.061747
 Thermal correction to Gibbs Free Energy=         0.012282
 Sum of electronic and zero-point Energies=          -1199.687101
 Sum of electronic and thermal Energies=             -1199.676027
 Sum of electronic and thermal Enthalpies=           -1199.675083
 Sum of electronic and thermal Free Energies=        -1199.724548

                     E (Thermal)             CV                S
                      KCal/Mol        Cal/Mol-Kelvin    Cal/Mol-Kelvin
 Total                   38.154             38.116            104.108
 Electronic               0.000              0.000              0.000
 Translational            0.889              2.981             41.783
 Rotational               0.889              2.981             30.251
 Vibrational             36.377             32.154             32.074
 Vibration     1          0.596              1.976              4.635
 Vibration     2          0.598              1.968              4.133
 Vibration     3          0.612              1.921              2.917
 Vibration     4          0.615              1.912              2.791
 Vibration     5          0.632              1.857              2.255
 Vibration     6          0.646              1.813              1.971
 Vibration     7          0.652              1.794              1.874
 Vibration     8          0.666              1.751              1.684
 Vibration     9          0.674              1.728              1.595
 Vibration    10          0.698              1.659              1.374
 Vibration    11          0.721              1.592              1.204
 Vibration    12          0.750              1.513              1.040
 Vibration    13          0.785              1.420              0.882
 Vibration    14          0.816              1.343              0.772
 Vibration    15          0.895              1.161              0.564
 Vibration    16          0.929              1.091              0.500
 Vibration    17          0.973              1.003              0.427

 Optimization completed.
    -- Stationary point found.
 Normal termination of Gaussian 16 at Fri May 23 05:22:48 2025.
