 Gaussian 16, Revision C.01,
 Gaussian 16:  ES64L-G16RevC.01  3-Jul-2019

 ----------------------------------------------------------------------
 #P wb97xd/6-311++G(d,p) Symm(None) scf(xqc) pop(None) freq opt(CalcFC,
  Tight)
 ----------------------------------------------------------------------

 ------------------------------
 Gaussian input prepared by ASE
 ------------------------------
 Symbolic Z-matrix:
 Charge =  0 Multiplicity = 1

 SCF Done:  E(RwB97XD) =  -1199.82453498     A.U. after   14 cycles
 SCF Done:  E(RwB97XD) =  -1199.82587426     A.U. after   13 cycles
 SCF Done:  E(RwB97XD) =  -1199.82597442     A.U. after   12 cycles
 SCF Done:  E(RwB97XD) =  -1199.82598349     A.U. after   11 cycles
 SCF Done:  E(RwB97XD) =  -1199.82598391     A.U. after    9 cycles
 SCF Done:  E(RwB97XD) =  -1199.82598397     A.U. after    8 cycles
 SCF Done:  E(RwB97XD) =  -1199.82598397     A.U. after    5 cycles
 Optimization completed.
    -- Stationary point found.
 Normal termination of Gaussian 16 at Fri May 23 01:56:11 2025.

 ----------------------------------------------------------------------
 #P Geom=AllCheck Guess=TCheck SCRF=Check GenChk RwB97XD/6-311++G(d,p)
 Freq
 ----------------------------------------------------------------------

 Structure from the checkpoint file:  "/tmp/Gau-2943.chk"
 ------------------------------
 Gaussian input prepared by ASE
 ------------------------------
 Charge =  0 Multiplicity = 1

                          Input orientation:
 ---------------------------------------------------------------------
 Center     Atomic      Atomic             Coordinates (Angstroms)
 Number     Number       Type             X           Y           Z
 ---------------------------------------------------------------------
      1          6           0       -0.644587    0.296837    1.372670
      2          6           0        0.013484    0.008390   -0.006806
      3          9           0       -0.415323   -1.170276   -0.453351
      4          9           0       -0.346354    0.966745   -0.871200
      5         16           0        1.889196   -0.058078   -0.006728
      6          8           0        2.319313   -0.680221    1.204397
      7          8           0        2.260131   -0.513000   -1.316755
      8          8           0        2.224651    1.502512    0.122012
      9          9           0       -0.461581   -0.721414    2.196587
     10          9           0       -0.135023    1.399253    1.908906
     11          9           0       -1.951039    0.474027    1.191012
     12          1           0        2.259832    1.911833   -0.752543
 ---------------------------------------------------------------------

 SCF Done:  E(RwB97XD) =  -1199.82598397     A.U. after    1 cycles

 Isotropic polarizability for W=    0.000000       55.76 Bohr**3.
 End of Minotr F.D. properties file   721 does not exist.

                      1                      2                      3
                      A                      A                      A
 Frequencies --     45.3614                67.4121               131.5031
 Red. masses --     13.2002                16.1148                16.5368
 Frc consts  --      0.0160                 0.0431                 0.1685
 IR Inten    --      2.0045                 0.4272                 0.7862

                      4                      5                      6
                      A                      A                      A
 Frequencies --    189.8592               223.4792               239.3235
 Red. masses --      5.4679                17.2636                14.6527
 Frc consts  --      0.1161                 0.5080                 0.4945
 IR Inten    --     14.6226                 1.3285                 7.5742

                      7                      8                      9
                      A                      A                      A
 Frequencies --    276.0096               310.9425               316.7204
 Red. masses --     11.9408                15.8967                 5.3152
 Frc consts  --      0.5360                 0.9056                 0.3141
 IR Inten    --      0.7922                 0.5423                13.1828

                     10                     11                     12
                      A                      A                      A
 Frequencies --    342.9135               373.7809               436.2280
 Red. masses --      2.0016                 7.9266                11.8464
 Frc consts  --      0.1387                 0.6525                 1.3282
 IR Inten    --     54.5628                 7.3381                16.5757

                     13                     14                     15
                      A                      A                      A
 Frequencies --    457.2953               510.2853               537.8479
 Red. masses --      4.4828                14.2722                17.9965
 Frc consts  --      0.5523                 2.1896                 3.0673
 IR Inten    --     35.0126                13.2695                23.4883

                     16                     17                     18
                      A                      A                      A
 Frequencies --    600.6450               609.2091               654.1917
 Red. masses --     17.4282                20.2475                17.1097
 Frc consts  --      3.7046                 4.4275                 4.3142
 IR Inten    --      4.1412               119.7930                25.2962

                     19                     20                     21
                      A                      A                      A
 Frequencies --    764.8977               833.8815              1005.9817
 Red. masses --     17.1699                17.4455                13.5034
 Frc consts  --      5.9187                 7.1473                 8.0514
 IR Inten    --     20.4501               195.8372               112.9740

                     22                     23                     24
                      A                      A                      A
 Frequencies --   1131.2522              1153.1267              1206.3305
 Red. masses --      1.1909                14.0435                13.8243
 Frc consts  --      0.8979                11.0022                11.8529
 IR Inten    --     90.2866               133.8255                47.1359

                     25                     26                     27
                      A                      A                      A
 Frequencies --   1224.6239              1235.1529              1260.7312
 Red. masses --     14.0033                13.3985                13.2912
 Frc consts  --     12.3733                12.0434                12.4469
 IR Inten    --    197.4707               215.1390               395.7769

                     28                     29                     30
                      A                      A                      A
 Frequencies --   1345.2966              1444.3316              3834.3801
 Red. masses --     12.6786                14.1709                 1.0663
 Frc consts  --     13.5194                17.4173                 9.2365
 IR Inten    --     96.5563               293.4722               163.6582

 - Thermochemistry -
 -------------------
 Temperature   298.150 Kelvin.  Pressure   1.00000 Atm.
 Atom     1 has atomic number  6 and mass  12.00000

 Molecular mass:   199.95666 amu.
 Principal axes and moments of inertia in atomic units:
                           1         2         3
     Eigenvalues --  1146.456432162.197792301.86893
           X            0.88403   0.46666  -0.02679
           Y           -0.07255   0.19361   0.97839
           Z           -0.46177   0.86298  -0.20501
 This molecule is an asymmetric top.
 Rotational symmetry number  1.
 Warning -- assumption of classical behavior for rotation
           may cause significant error
 Rotational temperatures (Kelvin)      0.07555     0.04006     0.03763
 Rotational constants (GHZ):           1.57419     0.83468     0.78403
 Zero-point vibrational energy     136152.9 (Joules/Mol)
                                   32.54133 (Kcal/Mol)
 Warning -- explicit consideration of  17 degrees of freedom as
           vibrations may cause significant error
 Vibrational temperatures:     65.26    96.99   189.20   273.16   321.54
          (Kelvin)            344.33   397.12   447.38   455.69   493.38
                              537.79   627.63   657.95   734.19   773.84
                              864.19   876.52   941.24  1100.52  1199.77
                             1447.38  1627.62  1659.09  1735.64  1761.96
                             1777.11  1813.91  1935.58  2078.07  5516.82

 Zero-point correction=                           0.051858 (Hartree/Particle)
 Thermal correction to Energy=                    0.062282
 Thermal correction to Enthalpy=                  0.063226
 Thermal correction to Gibbs Free Energy=         0.015045
 Sum of electronic and zero-point Energies=          -1199.774126
 Sum of electronic and thermal Energies=             -1199.763702
 Sum of electronic and thermal Enthalpies=           -1199.762758
 Sum of electronic and thermal Free Energies=        -1199.810939

                     E (Thermal)             CV                S
                      KCal/Mol        Cal/Mol-Kelvin    Cal/Mol-Kelvin
 Total                   39.082             36.621            101.404
 Electronic               0.000              0.000              0.000
 Translational            0.889              2.981             41.783
 Rotational               0.889              2.981             30.124
 Vibrational             37.305             30.659             29.497
 Vibration     1          0.595              1.979              5.010
 Vibration     2          0.598              1.970              4.228
 Vibration     3          0.612              1.922              2.924
 Vibration     4          0.633              1.854              2.229
 Vibration     5          0.649              1.805              1.931
 Vibration     6          0.657              1.780              1.808
 Vibration     7          0.678              1.718              1.558
 Vibration     8          0.700              1.653              1.357
 Vibration     9          0.704              1.642              1.327
 Vibration    10          0.722              1.590              1.199
 Vibration    11          0.745              1.526              1.064
 Vibration    12          0.797              1.391              0.839
 Vibration    13          0.815              1.345              0.774
 Vibration    14          0.865              1.227              0.633
 Vibration    15          0.893              1.166              0.570
 Vibration    16          0.959              1.030              0.449
 Vibration    17          0.968              1.012              0.434

 Optimization completed.
    -- Stationary point found.
 Normal termination of Gaussian 16 at Fri May 23 01:57:34 2025.
