 Gaussian 16, Revision C.01,
 Gaussian 16:  ES64L-G16RevC.01  3-Jul-2019

 ----------------------------------------------------------------------
 #P wb97xd/6-311++G(d,p) Symm(None) scf(xqc) pop(None) opt(NoFreeze,TS,
 CalcAll,NoEigentest,MaxCycle=999)
 ----------------------------------------------------------------------

 ------------------------------
 Gaussian input prepared by ASE
 ------------------------------
 Symbolic Z-matrix:
 Charge =  0 Multiplicity = 1

 SCF Done:  E(RwB97XD) =  -1199.66104473     A.U. after   17 cycles
 SCF Done:  E(RwB97XD) =  -1199.67269254     A.U. after   17 cycles
 SCF Done:  E(RwB97XD) =  -1199.67428061     A.U. after   15 cycles
 SCF Done:  E(RwB97XD) =  -1199.67452037     A.U. after   14 cycles
 SCF Done:  E(RwB97XD) =  -1199.67453269     A.U. after   12 cycles
 SCF Done:  E(RwB97XD) =  -1199.67453280     A.U. after   10 cycles

 Isotropic polarizability for W=    0.000000       70.57 Bohr**3.
 End of Minotr F.D. properties file   721 does not exist.

 Optimization completed.
    -- Stationary point found.

                          Input orientation:
 ---------------------------------------------------------------------
 Center     Atomic      Atomic             Coordinates (Angstroms)
 Number     Number       Type             X           Y           Z
 ---------------------------------------------------------------------
      1          6           0       -0.237737    1.305458    0.488607
      2          6           0        0.007108    0.015894   -0.041104
      3          9           0       -0.369608   -1.007841    0.712549
      4          9           0       -0.333471   -0.139950   -1.309832
      5         16           0        2.306146   -0.014483    0.066619
      6          8           0        2.276616   -0.572656    1.393080
      7          8           0        2.267999   -0.731777   -1.179982
      8          8           0        3.705012    0.762366   -0.094216
      9          9           0        1.662866    1.833013    0.363876
     10          9           0       -0.620692    2.286136   -0.236635
     11          9           0       -0.356442    1.484096    1.746770
     12          1           0        3.762583    1.457650    0.574130
 ---------------------------------------------------------------------

 ******    1 imaginary frequencies (negative Signs) ******

                      1                      2                      3
                      A                      A                      A
 Frequencies --   -643.8381                34.5401                75.1198
 Red. masses --     14.0609                14.0311                 8.2253
 Frc consts  --      3.4341                 0.0099                 0.0273
 IR Inten    --    189.8116                 0.9780                 8.9896

                      4                      5                      6
                      A                      A                      A
 Frequencies --    169.9789               190.2549               197.1868
 Red. masses --     12.2540                11.3870                12.3787
 Frc consts  --      0.2086                 0.2428                 0.2836
 IR Inten    --     17.8528                 5.4536                 3.8919

                      7                      8                      9
                      A                      A                      A
 Frequencies --    214.5478               238.1598               276.3405
 Red. masses --     18.0321                 3.8604                 7.7658
 Frc consts  --      0.4890                 0.1290                 0.3494
 IR Inten    --      4.9973                15.4803                 6.7752

                     10                     11                     12
                      A                      A                      A
 Frequencies --    302.9395               329.0335               370.1066
 Red. masses --     13.7464                14.0058                11.0274
 Frc consts  --      0.7433                 0.8934                 0.8900
 IR Inten    --     11.8931                13.6003                64.8318

                     13                     14                     15
                      A                      A                      A
 Frequencies --    422.9810               437.5057               488.1195
 Red. masses --      3.5418                 4.6145                 6.7876
 Frc consts  --      0.3734                 0.5204                 0.9528
 IR Inten    --    148.5853                85.2417                35.8330

                     16                     17                     18
                      A                      A                      A
 Frequencies --    521.0430               545.8533               555.9343
 Red. masses --     10.2146                14.6927                15.0204
 Frc consts  --      1.6339                 2.5793                 2.7351
 IR Inten    --    115.7001               159.2981               101.2914

                     19                     20                     21
                      A                      A                      A
 Frequencies --    600.8533               680.6435               781.8190
 Red. masses --     17.0001                12.2660                15.9194
 Frc consts  --      3.6161                 3.3481                 5.7331
 IR Inten    --      8.9462                14.5521               225.6352

                     22                     23                     24
                      A                      A                      A
 Frequencies --    821.6186              1133.1113              1198.2591
 Red. masses --     17.0407                10.1219                 2.2179
 Frc consts  --      6.7776                 7.6570                 1.8762
 IR Inten    --    193.2365                74.6057               223.5325

                     25                     26                     27
                      A                      A                      A
 Frequencies --   1204.5819              1293.5529              1399.3729
 Red. masses --      2.3991                13.1121                13.2038
 Frc consts  --      2.0510                12.9268                15.2341
 IR Inten    --    214.2780               122.4604               196.9467

                     28                     29                     30
                      A                      A                      A
 Frequencies --   1458.0669              1558.5927              3831.7732
 Red. masses --     13.2538                12.5223                 1.0659
 Frc consts  --     16.6014                17.9226                 9.2204
 IR Inten    --    343.6808               703.1719               134.4006

 - Thermochemistry -
 -------------------
 Temperature   298.150 Kelvin.  Pressure   1.00000 Atm.
 Atom     1 has atomic number  6 and mass  12.00000

 Molecular mass:   199.95666 amu.
 Principal axes and moments of inertia in atomic units:
                           1         2         3
     Eigenvalues --  1275.744932105.649012372.84253
           X            0.94536   0.32528  -0.02210
           Y           -0.30865   0.87104  -0.38214
           Z           -0.10505   0.36808   0.92384
 This molecule is an asymmetric top.
 Rotational symmetry number  1.
 Warning -- assumption of classical behavior for rotation
           may cause significant error
 Rotational temperatures (Kelvin)      0.06789     0.04113     0.03650
 Rotational constants (GHZ):           1.41466     0.85709     0.76058
    1 imaginary frequencies ignored.
 Zero-point vibrational energy     127593.0 (Joules/Mol)
                                   30.49547 (Kcal/Mol)
 Warning -- explicit consideration of  18 degrees of freedom as
           vibrations may cause significant error
 Vibrational temperatures:     49.70   108.08   244.56   273.73   283.71
          (Kelvin)            308.69   342.66   397.59   435.86   473.41
                              532.50   608.58   629.47   702.30   749.66
                              785.36   799.87   864.49   979.29  1124.86
                             1182.13  1630.29  1724.03  1733.12  1861.13
                             2013.39  2097.83  2242.47  5513.07

 Zero-point correction=                           0.048598 (Hartree/Particle)
 Thermal correction to Energy=                    0.059368
 Thermal correction to Enthalpy=                  0.060312
 Thermal correction to Gibbs Free Energy=         0.011365
 Sum of electronic and zero-point Energies=          -1199.625935
 Sum of electronic and thermal Energies=             -1199.615165
 Sum of electronic and thermal Enthalpies=           -1199.614221
 Sum of electronic and thermal Free Energies=        -1199.663168

                     E (Thermal)             CV                S
                      KCal/Mol        Cal/Mol-Kelvin    Cal/Mol-Kelvin
 Total                   37.254             37.447            103.019
 Electronic               0.000              0.000              0.000
 Translational            0.889              2.981             41.783
 Rotational               0.889              2.981             30.234
 Vibrational             35.477             31.485             31.001
 Vibration     1          0.594              1.983              5.550
 Vibration     2          0.599              1.966              4.015
 Vibration     3          0.625              1.879              2.436
 Vibration     4          0.634              1.853              2.225
 Vibration     5          0.637              1.844              2.159
 Vibration     6          0.644              1.819              2.005
 Vibration     7          0.656              1.782              1.817
 Vibration     8          0.678              1.717              1.556
 Vibration     9          0.694              1.668              1.401
 Vibration    10          0.712              1.617              1.265
 Vibration    11          0.742              1.534              1.079
 Vibration    12          0.785              1.420              0.882
 Vibration    13          0.798              1.388              0.834
 Vibration    14          0.844              1.276              0.689
 Vibration    15          0.876              1.203              0.608
 Vibration    16          0.901              1.149              0.553
 Vibration    17          0.911              1.127              0.532
 Vibration    18          0.959              1.030              0.448

 Normal termination of Gaussian 16 at Fri May 23 05:10:55 2025.
