 Gaussian 16, Revision C.01,
 Gaussian 16:  ES64L-G16RevC.01  3-Jul-2019

 ----------------------------------------------------------------------
 #P wb97xd/6-311++G(d,p) Symm(None) scf(xqc) pop(None) freq opt(CalcFC,
  Tight)
 ----------------------------------------------------------------------

 ------------------------------
 Gaussian input prepared by ASE
 ------------------------------
 Symbolic Z-matrix:
 Charge =  0 Multiplicity = 1

 SCF Done:  E(RwB97XD) =  -1199.57421492     A.U. after   21 cycles
 SCF Done:  E(RwB97XD) =  -1199.59087818     A.U. after   20 cycles
 SCF Done:  E(RwB97XD) =  -1199.58142706     A.U. after   19 cycles
 SCF Done:  E(RwB97XD) =  -1199.59166581     A.U. after   16 cycles
 SCF Done:  E(RwB97XD) =  -1199.59274466     A.U. after   18 cycles
 SCF Done:  E(RwB97XD) =  -1199.59283479     A.U. after   18 cycles
 SCF Done:  E(RwB97XD) =  -1199.59292328     A.U. after   15 cycles
 SCF Done:  E(RwB97XD) =  -1199.59302006     A.U. after   17 cycles
 SCF Done:  E(RwB97XD) =  -1199.59314923     A.U. after   18 cycles
 SCF Done:  E(RwB97XD) =  -1199.59330490     A.U. after   18 cycles
 SCF Done:  E(RwB97XD) =  -1199.59363545     A.U. after   17 cycles
 SCF Done:  E(RwB97XD) =  -1199.59364702     A.U. after   17 cycles
 SCF Done:  E(RwB97XD) =  -1199.59367326     A.U. after   17 cycles
 SCF Done:  E(RwB97XD) =  -1199.59368475     A.U. after   17 cycles
 SCF Done:  E(RwB97XD) =  -1199.59369082     A.U. after   18 cycles
 SCF Done:  E(RwB97XD) =  -1199.59369559     A.U. after   14 cycles
 SCF Done:  E(RwB97XD) =  -1199.59369572     A.U. after   10 cycles
 SCF Done:  E(RwB97XD) =  -1199.59369574     A.U. after   10 cycles
 SCF Done:  E(RwB97XD) =  -1199.59369574     A.U. after    9 cycles
 Optimization completed.
    -- Stationary point found.
 Normal termination of Gaussian 16 at Fri May 23 07:42:34 2025.

 ----------------------------------------------------------------------
 #P Geom=AllCheck Guess=TCheck SCRF=Check GenChk RwB97XD/6-311++G(d,p)
 Freq
 ----------------------------------------------------------------------

 Structure from the checkpoint file:  "/tmp/Gau-21937.chk"
 ------------------------------
 Gaussian input prepared by ASE
 ------------------------------
 Charge =  0 Multiplicity = 1

                          Input orientation:
 ---------------------------------------------------------------------
 Center     Atomic      Atomic             Coordinates (Angstroms)
 Number     Number       Type             X           Y           Z
 ---------------------------------------------------------------------
      1          6           0       -0.607442    1.062507    0.892888
      2          6           0        0.046396    0.048615   -0.087167
      3          9           0       -0.347744   -1.175370    0.262328
      4          9           0       -0.449395    0.214757   -1.372363
      5         16           0        1.955753   -0.086058   -0.110679
      6          8           0        0.024959    1.660195   -2.136584
      7          8           0        2.271212   -0.591143   -1.438458
      8          8           0        2.169644    1.544181   -0.017761
      9          9           0       -0.058557    0.838226    2.095367
     10          9           0       -0.428766    2.318388    0.564925
     11          9           0       -1.911434    0.812282    0.970451
     12          1           0        3.012843    1.716895    0.415868
 ---------------------------------------------------------------------

 SCF Done:  E(RwB97XD) =  -1199.59369574     A.U. after    1 cycles

 Isotropic polarizability for W=    0.000000       61.30 Bohr**3.
 End of Minotr F.D. properties file   721 does not exist.

                      1                      2                      3
                      A                      A                      A
 Frequencies --     36.2089                64.0318                80.4167
 Red. masses --     16.0409                10.2843                16.5801
 Frc consts  --      0.0124                 0.0248                 0.0632
 IR Inten    --      2.4144                 4.3284                 0.7263

                      4                      5                      6
                      A                      A                      A
 Frequencies --    127.5871               151.3843               183.3922
 Red. masses --     13.9261                 8.4468                 3.5959
 Frc consts  --      0.1336                 0.1141                 0.0713
 IR Inten    --      2.5948                11.4059                37.4066

                      7                      8                      9
                      A                      A                      A
 Frequencies --    211.1022               212.9412               268.6565
 Red. masses --      7.3219                17.9762                 2.4197
 Frc consts  --      0.1922                 0.4803                 0.1029
 IR Inten    --     14.7843                 0.5571                37.0638

                     10                     11                     12
                      A                      A                      A
 Frequencies --    270.1224               315.9436               328.0272
 Red. masses --     13.1343                16.9501                 4.9849
 Frc consts  --      0.5646                 0.9969                 0.3160
 IR Inten    --      6.2387                17.1195                10.2784

                     13                     14                     15
                      A                      A                      A
 Frequencies --    395.5451               414.7011               449.8891
 Red. masses --     11.8849                16.1924                15.2583
 Frc consts  --      1.0956                 1.6407                 1.8196
 IR Inten    --     21.8346                 3.3563                30.2466

                     16                     17                     18
                      A                      A                      A
 Frequencies --    521.6305               556.9337               595.7581
 Red. masses --     13.7386                17.6920                17.2461
 Frc consts  --      2.2025                 3.2332                 3.6065
 IR Inten    --     28.6571                 5.9276                11.1066

                     19                     20                     21
                      A                      A                      A
 Frequencies --    661.0119               753.6897               763.4655
 Red. masses --     17.0570                16.4683                16.0309
 Frc consts  --      4.3911                 5.5117                 5.5054
 IR Inten    --     31.3624                26.7474               120.0436

                     22                     23                     24
                      A                      A                      A
 Frequencies --    973.7287              1043.7590              1110.2361
 Red. masses --     10.8698                 6.5748                 1.2800
 Frc consts  --      6.0722                 4.2202                 0.9296
 IR Inten    --     78.9068               247.6522               128.2035

                     25                     26                     27
                      A                      A                      A
 Frequencies --   1176.4532              1205.9159              1245.5192
 Red. masses --     11.6591                13.1000                17.1428
 Frc consts  --      9.5075                11.2242                15.6687
 IR Inten    --     90.4771               202.6413               287.0697

                     28                     29                     30
                      A                      A                      A
 Frequencies --   1275.4693              1341.3611              3861.0823
 Red. masses --     13.3739                12.6634                 1.0672
 Frc consts  --     12.8188                13.4244                 9.3737
 IR Inten    --    301.5619               120.5379               155.9524

 - Thermochemistry -
 -------------------
 Temperature   298.150 Kelvin.  Pressure   1.00000 Atm.
 Atom     1 has atomic number  6 and mass  12.00000

 Molecular mass:   199.95666 amu.
 Principal axes and moments of inertia in atomic units:
                           1         2         3
     Eigenvalues --  1347.785422172.395402244.82809
           X            0.81114   0.48547   0.32615
           Y           -0.27196  -0.18062   0.94521
           Z           -0.51778   0.85539   0.01448
 This molecule is an asymmetric top.
 Rotational symmetry number  1.
 Warning -- assumption of classical behavior for rotation
           may cause significant error
 Rotational temperatures (Kelvin)      0.06426     0.03987     0.03858
 Rotational constants (GHZ):           1.33904     0.83076     0.80396
 Zero-point vibrational energy     123191.2 (Joules/Mol)
                                   29.44341 (Kcal/Mol)
 Warning -- explicit consideration of  18 degrees of freedom as
           vibrations may cause significant error
 Vibrational temperatures:     52.10    92.13   115.70   183.57   217.81
          (Kelvin)            263.86   303.73   306.37   386.54   388.65
                              454.57   471.96   569.10   596.66   647.29
                              750.51   801.30   857.16   951.05  1084.39
                             1098.46  1400.98  1501.74  1597.38  1692.65
                             1735.04  1792.02  1835.12  1929.92  5555.24

 Zero-point correction=                           0.046921 (Hartree/Particle)
 Thermal correction to Energy=                    0.058806
 Thermal correction to Enthalpy=                  0.059750
 Thermal correction to Gibbs Free Energy=         0.007944
 Sum of electronic and zero-point Energies=          -1199.546775
 Sum of electronic and thermal Energies=             -1199.534890
 Sum of electronic and thermal Enthalpies=           -1199.533946
 Sum of electronic and thermal Free Energies=        -1199.585752

                     E (Thermal)             CV                S
                      KCal/Mol        Cal/Mol-Kelvin    Cal/Mol-Kelvin
 Total                   36.901             39.827            109.035
 Electronic               0.000              0.000              0.000
 Translational            0.889              2.981             41.783
 Rotational               0.889              2.981             30.264
 Vibrational             35.124             33.865             36.988
 Vibration     1          0.594              1.982              5.456
 Vibration     2          0.597              1.971              4.329
 Vibration     3          0.600              1.962              3.881
 Vibration     4          0.611              1.926              2.982
 Vibration     5          0.619              1.901              2.655
 Vibration     6          0.631              1.862              2.294
 Vibration     7          0.643              1.824              2.034
 Vibration     8          0.644              1.821              2.018
 Vibration     9          0.673              1.731              1.605
 Vibration    10          0.674              1.728              1.595
 Vibration    11          0.703              1.643              1.331
 Vibration    12          0.711              1.619              1.270
 Vibration    13          0.762              1.480              0.979
 Vibration    14          0.778              1.438              0.910
 Vibration    15          0.809              1.361              0.796
 Vibration    16          0.877              1.202              0.606
 Vibration    17          0.912              1.125              0.530
 Vibration    18          0.954              1.041              0.457

                           ! Non-Optimized Parameters !
 Normal termination of Gaussian 16 at Fri May 23 07:43:54 2025.
