 Gaussian 16, Revision C.01,
 Gaussian 16:  ES64L-G16RevC.01  3-Jul-2019

 ------------------------------------------
 #P am1 Symm(None) scf(xqc) pop(None) force
 ------------------------------------------

 ------------------------------
 Gaussian input prepared by ASE
 ------------------------------
 Symbolic Z-matrix:
 Charge =  0 Multiplicity = 1

                          Input orientation:
 ---------------------------------------------------------------------
 Center     Atomic      Atomic             Coordinates (Angstroms)
 Number     Number       Type             X           Y           Z
 ---------------------------------------------------------------------
      1          6           0       -1.133624   -0.121106    1.000938
      2          6           0       -0.376966    0.578643    0.057134
      3          9           0       -0.442678    0.252604   -1.217383
      4          9           0       -0.343484    1.902452    0.122339
      5         16           0        1.900031   -0.020452    0.535169
      6          8           0        2.783232    0.583078    1.500242
      7          8           0        1.993572   -1.222387   -0.235749
      8          8           0        1.885060    1.206765   -0.579489
      9          9           0       -1.467050    0.330371    2.145588
     10          9           0        0.712429   -0.657179    1.851897
     11          9           0       -1.468111   -1.345542    0.900279
     12          1           0        2.008010    2.110786   -0.262666
 ---------------------------------------------------------------------

 SCF Done:  E(RAM1) =  0.305112051414     A.U. after   16 cycles
 Normal termination of Gaussian 16 at Fri May 23 04:50:52 2025.
