 Gaussian 16, Revision C.01,
 Gaussian 16:  ES64L-G16RevC.01  3-Jul-2019

 ----------------------------------------------------------------------
 #P wb97xd/6-311++G(d,p) Symm(None) scf(xqc) pop(None) opt(NoFreeze,TS,
 CalcAll,NoEigentest,MaxCycle=999)
 ----------------------------------------------------------------------

 ------------------------------
 Gaussian input prepared by ASE
 ------------------------------
 Symbolic Z-matrix:
 Charge =  0 Multiplicity = 1

 SCF Done:  E(RwB97XD) =  -1199.57941430     A.U. after   31 cycles
 SCF Done:  E(RwB97XD) =  -1199.58575841     A.U. after   25 cycles
 SCF Done:  E(RwB97XD) =  -1199.58631612     A.U. after   26 cycles
 SCF Done:  E(RwB97XD) =  -1199.59083920     A.U. after   23 cycles
 SCF Done:  E(RwB97XD) =  -1199.59587593     A.U. after   23 cycles
 SCF Done:  E(RwB97XD) =  -1199.59645767     A.U. after   22 cycles
 SCF Done:  E(RwB97XD) =  -1199.59651111     A.U. after   20 cycles
 SCF Done:  E(RwB97XD) =  -1199.59651126     A.U. after   18 cycles

 Isotropic polarizability for W=    0.000000       74.37 Bohr**3.
 End of Minotr F.D. properties file   721 does not exist.

 Optimization completed.
    -- Stationary point found.

                          Input orientation:
 ---------------------------------------------------------------------
 Center     Atomic      Atomic             Coordinates (Angstroms)
 Number     Number       Type             X           Y           Z
 ---------------------------------------------------------------------
      1          6           0       -0.604034   -1.360604   -0.282245
      2          6           0        0.079501    0.011557   -0.098197
      3          9           0       -0.417778    0.906051   -0.935695
      4          9           0       -0.096945    0.432848    1.168618
      5         16           0        2.002252   -0.080427   -0.206814
      6          8           0        1.671495    1.047293    2.199347
      7          8           0        2.363455   -0.679810   -1.480046
      8          8           0        2.206941    1.515754   -0.322406
      9          9           0       -0.555393   -1.725584   -1.552603
     10          9           0        0.030229   -2.266321    0.461680
     11          9           0       -1.873674   -1.300299    0.103756
     12          1           0        2.221313    1.823079    0.611769
 ---------------------------------------------------------------------

 ******    1 imaginary frequencies (negative Signs) ******

                      1                      2                      3
                      A                      A                      A
 Frequencies --   -297.1605                50.7955                61.1992
 Red. masses --     17.0902                16.4046                16.5916
 Frc consts  --      0.8892                 0.0249                 0.0366
 IR Inten    --     57.1569                 0.3436                 0.0421

                      4                      5                      6
                      A                      A                      A
 Frequencies --    121.6578               155.5937               195.5621
 Red. masses --     16.3665                10.3159                14.6050
 Frc consts  --      0.1427                 0.1471                 0.3291
 IR Inten    --      0.6209                 7.4535                 9.9987

                      7                      8                      9
                      A                      A                      A
 Frequencies --    226.9099               236.1537               270.6731
 Red. masses --     17.5150                14.4726                15.2902
 Frc consts  --      0.5313                 0.4755                 0.6600
 IR Inten    --      2.9248                 2.5675                 5.3002

                     10                     11                     12
                      A                      A                      A
 Frequencies --    285.8094               343.3138               375.9060
 Red. masses --     11.7527                17.6856                18.3385
 Frc consts  --      0.5656                 1.2282                 1.5268
 IR Inten    --      6.6586                 1.1903                 1.1197

                     13                     14                     15
                      A                      A                      A
 Frequencies --    408.7622               437.4447               505.9900
 Red. masses --     15.3883                11.7856                16.3918
 Frc consts  --      1.5149                 1.3288                 2.4726
 IR Inten    --     15.8307                19.3902                34.6659

                     16                     17                     18
                      A                      A                      A
 Frequencies --    544.5330               601.1090               633.8298
 Red. masses --     17.9044                17.6240                 8.0025
 Frc consts  --      3.1279                 3.7520                 1.8942
 IR Inten    --      2.0096                 6.1344                38.0616

                     19                     20                     21
                      A                      A                      A
 Frequencies --    643.7440               759.4385               784.9841
 Red. masses --      1.1676                16.5152                 9.4898
 Frc consts  --      0.2851                 5.6120                 3.4453
 IR Inten    --     96.5958                32.8570                89.7025

                     22                     23                     24
                      A                      A                      A
 Frequencies --    937.8184              1094.5221              1180.2909
 Red. masses --     13.1481                12.7164                 1.4520
 Frc consts  --      6.8132                 8.9756                 1.1918
 IR Inten    --     99.8752                33.5041               198.9984

                     25                     26                     27
                      A                      A                      A
 Frequencies --   1223.9316              1229.9234              1248.4706
 Red. masses --     12.4851                10.3749                10.4570
 Frc consts  --     11.0194                 9.2468                 9.6032
 IR Inten    --    313.8018                70.3662               138.0822

                     28                     29                     30
                      A                      A                      A
 Frequencies --   1279.3632              1350.9929              3499.1183
 Red. masses --      6.6063                12.2481                 1.0647
 Frc consts  --      6.3708                13.1712                 7.6803
 IR Inten    --    265.9147               218.4758                 5.3963

 - Thermochemistry -
 -------------------
 Temperature   298.150 Kelvin.  Pressure   1.00000 Atm.
 Atom     1 has atomic number  6 and mass  12.00000

 Molecular mass:   199.95666 amu.
 Principal axes and moments of inertia in atomic units:
                           1         2         3
     Eigenvalues --  1293.576122212.810422582.77880
           X            0.78065  -0.45797  -0.42526
           Y            0.60140   0.36537   0.71051
           Z            0.17002   0.81041  -0.56065
 This molecule is an asymmetric top.
 Rotational symmetry number  1.
 Warning -- assumption of classical behavior for rotation
           may cause significant error
 Rotational temperatures (Kelvin)      0.06696     0.03914     0.03354
 Rotational constants (GHZ):           1.39516     0.81559     0.69876
    1 imaginary frequencies ignored.
 Zero-point vibrational energy     123740.8 (Joules/Mol)
                                   29.57475 (Kcal/Mol)
 Warning -- explicit consideration of  16 degrees of freedom as
           vibrations may cause significant error
 Vibrational temperatures:     73.08    88.05   175.04   223.86   281.37
          (Kelvin)            326.47   339.77   389.44   411.22   493.95
                              540.84   588.12   629.39   728.01   783.46
                              864.86   911.94   926.20  1092.66  1129.42
                             1349.31  1574.77  1698.18  1760.96  1769.59
                             1796.27  1840.72  1943.78  5034.45

 Zero-point correction=                           0.047130 (Hartree/Particle)
 Thermal correction to Energy=                    0.057885
 Thermal correction to Enthalpy=                  0.058829
 Thermal correction to Gibbs Free Energy=         0.009730
 Sum of electronic and zero-point Energies=          -1199.549381
 Sum of electronic and thermal Energies=             -1199.538627
 Sum of electronic and thermal Enthalpies=           -1199.537683
 Sum of electronic and thermal Free Energies=        -1199.586781

                     E (Thermal)             CV                S
                      KCal/Mol        Cal/Mol-Kelvin    Cal/Mol-Kelvin
 Total                   36.323             37.051            103.337
 Electronic               0.000              0.000              0.000
 Translational            0.889              2.981             41.783
 Rotational               0.889              2.981             30.381
 Vibrational             34.546             31.089             31.172
 Vibration     1          0.595              1.977              4.786
 Vibration     2          0.597              1.973              4.418
 Vibration     3          0.609              1.931              3.074
 Vibration     4          0.620              1.896              2.603
 Vibration     5          0.636              1.846              2.174
 Vibration     6          0.651              1.800              1.903
 Vibration     7          0.655              1.785              1.832
 Vibration     8          0.674              1.727              1.592
 Vibration     9          0.684              1.700              1.499
 Vibration    10          0.722              1.589              1.197
 Vibration    11          0.747              1.521              1.056
 Vibration    12          0.773              1.451              0.931
 Vibration    13          0.798              1.389              0.835
 Vibration    14          0.861              1.237              0.643
 Vibration    15          0.900              1.152              0.556
 Vibration    16          0.959              1.029              0.448

 Normal termination of Gaussian 16 at Fri May 23 07:44:00 2025.
