 Gaussian 16, Revision C.01,
 Gaussian 16:  ES64L-G16RevC.01  3-Jul-2019

 ----------------------------------------------------------------------
 #P wb97xd/6-311++G(d,p) Symm(None) scf(xqc) pop(None) freq opt(CalcFC,
  Tight)
 ----------------------------------------------------------------------

 ------------------------------
 Gaussian input prepared by ASE
 ------------------------------
 Symbolic Z-matrix:
 Charge =  0 Multiplicity = 1

 SCF Done:  E(RwB97XD) =  -1199.71453934     A.U. after   16 cycles
 SCF Done:  E(RwB97XD) =  -1199.72146068     A.U. after   15 cycles
 SCF Done:  E(RwB97XD) =  -1199.71844240     A.U. after   15 cycles
 SCF Done:  E(RwB97XD) =  -1199.72656728     A.U. after   15 cycles
 SCF Done:  E(RwB97XD) =  -1199.73017120     A.U. after   16 cycles
 SCF Done:  E(RwB97XD) =  -1199.67826729     A.U. after   16 cycles
 SCF Done:  E(RwB97XD) =  -1199.73190651     A.U. after   14 cycles
 SCF Done:  E(RwB97XD) =  -1199.73227073     A.U. after   13 cycles
 SCF Done:  E(RwB97XD) =  -1199.73242500     A.U. after   12 cycles
 SCF Done:  E(RwB97XD) =  -1199.73265135     A.U. after   13 cycles
 SCF Done:  E(RwB97XD) =  -1199.73613621     A.U. after   12 cycles
 SCF Done:  E(RwB97XD) =  -1199.73613270     A.U. after   12 cycles
 SCF Done:  E(RwB97XD) =  -1199.73616724     A.U. after   12 cycles
 SCF Done:  E(RwB97XD) =  -1199.73617988     A.U. after   11 cycles
 SCF Done:  E(RwB97XD) =  -1199.73619236     A.U. after   12 cycles
 SCF Done:  E(RwB97XD) =  -1199.73619923     A.U. after   11 cycles
 SCF Done:  E(RwB97XD) =  -1199.73619981     A.U. after   10 cycles
 SCF Done:  E(RwB97XD) =  -1199.73619982     A.U. after    8 cycles
 SCF Done:  E(RwB97XD) =  -1199.73619982     A.U. after    5 cycles
 Optimization completed.
    -- Stationary point found.
 Normal termination of Gaussian 16 at Fri May 23 05:28:22 2025.

 ----------------------------------------------------------------------
 #P Geom=AllCheck Guess=TCheck SCRF=Check GenChk RwB97XD/6-311++G(d,p)
 Freq
 ----------------------------------------------------------------------

 Structure from the checkpoint file:  "/tmp/Gau-283892.chk"
 ------------------------------
 Gaussian input prepared by ASE
 ------------------------------
 Charge =  0 Multiplicity = 1

                          Input orientation:
 ---------------------------------------------------------------------
 Center     Atomic      Atomic             Coordinates (Angstroms)
 Number     Number       Type             X           Y           Z
 ---------------------------------------------------------------------
      1          6           0        4.084086    0.311243    2.923972
      2          6           0        3.159090   -0.053814    1.733278
      3          9           0        3.868275   -0.043895    0.607834
      4          9           0        2.651880   -1.273190    1.944509
      5         16           0        1.679909    1.159041    1.625640
      6          8           0       -0.074235    0.723132   -0.101459
      7          8           0        2.240456    2.480541    1.354292
      8          8           0        1.279121    0.383912    0.170697
      9          9           0        4.750980    1.428045    2.682367
     10          9           0        3.340061    0.478269    4.021735
     11          9           0        4.950806   -0.671145    3.142232
     12          1           0        0.029048    1.317182   -0.855752
 ---------------------------------------------------------------------

 SCF Done:  E(RwB97XD) =  -1199.73619982     A.U. after    1 cycles

 Isotropic polarizability for W=    0.000000       61.07 Bohr**3.
 End of Minotr F.D. properties file   721 does not exist.

                      1                      2                      3
                      A                      A                      A
 Frequencies --     35.6104                55.5545                77.4866
 Red. masses --     13.7060                12.6161                11.4915
 Frc consts  --      0.0102                 0.0229                 0.0407
 IR Inten    --      0.5240                 1.0810                 4.8907

                      4                      5                      6
                      A                      A                      A
 Frequencies --    115.2476               183.7789               199.3705
 Red. masses --     12.1058                10.0169                14.8827
 Frc consts  --      0.0947                 0.1993                 0.3485
 IR Inten    --      0.8001                 0.9167                 8.7170

                      7                      8                      9
                      A                      A                      A
 Frequencies --    225.7462               274.8207               296.5999
 Red. masses --     18.3288                17.3199                 5.8122
 Frc consts  --      0.5503                 0.7707                 0.3013
 IR Inten    --      1.5256                 1.2226                 8.7508

                     10                     11                     12
                      A                      A                      A
 Frequencies --    312.4693               338.9982               369.8311
 Red. masses --     15.6419                 1.5235                18.0378
 Frc consts  --      0.8998                 0.1032                 1.4536
 IR Inten    --      3.6532               112.2952                 0.3016

                     13                     14                     15
                      A                      A                      A
 Frequencies --    415.1530               450.8341               512.8111
 Red. masses --     13.3876                 6.2367                18.7216
 Frc consts  --      1.3595                 0.7469                 2.9007
 IR Inten    --     11.8803                22.9885                34.8333

                     16                     17                     18
                      A                      A                      A
 Frequencies --    552.4828               601.6374               629.3781
 Red. masses --     18.5949                18.0238                16.6422
 Frc consts  --      3.3441                 3.8438                 3.8840
 IR Inten    --      6.6600                 7.9335                43.3284

                     19                     20                     21
                      A                      A                      A
 Frequencies --    707.8973               759.6576               961.6030
 Red. masses --     17.1728                17.2485                13.6534
 Frc consts  --      5.0703                 5.8646                 7.4385
 IR Inten    --     59.1204                21.4489               106.5669

                     22                     23                     24
                      A                      A                      A
 Frequencies --   1001.3913              1157.6739              1216.2021
 Red. masses --     14.6930                13.5768                14.5606
 Frc consts  --      8.6810                10.7207                12.6894
 IR Inten    --     19.2339               193.5967                28.0613

                     25                     26                     27
                      A                      A                      A
 Frequencies --   1225.3118              1232.1086              1261.8732
 Red. masses --     13.2920                14.6444                14.2188
 Frc consts  --     11.7580                13.0984                13.3397
 IR Inten    --    277.3490                60.5515               474.5288

                     28                     29                     30
                      A                      A                      A
 Frequencies --   1348.7950              1429.8609              3823.8337
 Red. masses --     12.2632                 1.1132                 1.0686
 Frc consts  --     13.1446                 1.3409                 9.2062
 IR Inten    --    137.6433                61.8799                87.7835

 - Thermochemistry -
 -------------------
 Temperature   298.150 Kelvin.  Pressure   1.00000 Atm.
 Atom     1 has atomic number  6 and mass  12.00000

 Molecular mass:   199.95666 amu.
 Principal axes and moments of inertia in atomic units:
                           1         2         3
     Eigenvalues --  1011.100382632.936012911.45925
           X            0.78544  -0.01590  -0.61874
           Y           -0.17893   0.95115  -0.25158
           Z            0.59252   0.30830   0.74423
 This molecule is an asymmetric top.
 Rotational symmetry number  1.
 Warning -- assumption of classical behavior for rotation
           may cause significant error
 Rotational temperatures (Kelvin)      0.08566     0.03290     0.02975
 Rotational constants (GHZ):           1.78493     0.68545     0.61988
 Zero-point vibrational energy     130237.6 (Joules/Mol)
                                   31.12752 (Kcal/Mol)
 Warning -- explicit consideration of  17 degrees of freedom as
           vibrations may cause significant error
 Vibrational temperatures:     51.24    79.93   111.49   165.82   264.42
          (Kelvin)            286.85   324.80   395.41   426.74   449.57
                              487.74   532.10   597.31   648.65   737.82
                              794.90   865.62   905.53  1018.51  1092.98
                             1383.53  1440.78  1665.63  1749.84  1762.95
                             1772.73  1815.55  1940.62  2057.25  5501.64

 Zero-point correction=                           0.049605 (Hartree/Particle)
 Thermal correction to Energy=                    0.060914
 Thermal correction to Enthalpy=                  0.061858
 Thermal correction to Gibbs Free Energy=         0.010961
 Sum of electronic and zero-point Energies=          -1199.686595
 Sum of electronic and thermal Energies=             -1199.675286
 Sum of electronic and thermal Enthalpies=           -1199.674342
 Sum of electronic and thermal Free Energies=        -1199.725238

                     E (Thermal)             CV                S
                      KCal/Mol        Cal/Mol-Kelvin    Cal/Mol-Kelvin
 Total                   38.224             38.179            107.122
 Electronic               0.000              0.000              0.000
 Translational            0.889              2.981             41.783
 Rotational               0.889              2.981             30.428
 Vibrational             36.447             32.218             34.910
 Vibration     1          0.594              1.982              5.489
 Vibration     2          0.596              1.975              4.609
 Vibration     3          0.599              1.964              3.954
 Vibration     4          0.608              1.937              3.179
 Vibration     5          0.631              1.862              2.290
 Vibration     6          0.637              1.841              2.139
 Vibration     7          0.650              1.802              1.913
 Vibration     8          0.677              1.720              1.566
 Vibration     9          0.690              1.680              1.436
 Vibration    10          0.701              1.650              1.349
 Vibration    11          0.719              1.598              1.217
 Vibration    12          0.742              1.534              1.080
 Vibration    13          0.779              1.437              0.909
 Vibration    14          0.810              1.359              0.793
 Vibration    15          0.868              1.222              0.627
 Vibration    16          0.908              1.134              0.539
 Vibration    17          0.960              1.028              0.447

                           ! Non-Optimized Parameters !
 Normal termination of Gaussian 16 at Fri May 23 05:29:32 2025.
