 Gaussian 16, Revision C.01,
 Gaussian 16:  ES64L-G16RevC.01  3-Jul-2019

 ------------------------------------------
 #P am1 Symm(None) scf(xqc) pop(None) force
 ------------------------------------------

 ------------------------------
 Gaussian input prepared by ASE
 ------------------------------
 Symbolic Z-matrix:
 Charge =  0 Multiplicity = 1

                          Input orientation:
 ---------------------------------------------------------------------
 Center     Atomic      Atomic             Coordinates (Angstroms)
 Number     Number       Type             X           Y           Z
 ---------------------------------------------------------------------
      1          6           0       -1.129236   -0.084134    1.026388
      2          6           0       -0.363183    0.602247    0.080348
      3          9           0       -0.464241    0.289335   -1.195146
      4          9           0       -0.292725    1.924248    0.152401
      5         16           0        1.908388   -0.028985    0.542581
      6          8           0        2.577266    0.701239    1.589018
      7          8           0        2.221152   -1.216968   -0.191304
      8          8           0        1.918858    1.136990   -0.636036
      9          9           0       -1.383102    0.341853    2.200830
     10          9           0        0.696909   -0.857533    1.723861
     11          9           0       -1.561224   -1.274104    0.889951
     12          1           0        1.921562    2.063843   -0.364593
 ---------------------------------------------------------------------

 SCF Done:  E(RAM1) =  0.313105097880     A.U. after   16 cycles
 Normal termination of Gaussian 16 at Fri May 23 04:51:39 2025.
