 Gaussian 16, Revision C.01,
 Gaussian 16:  ES64L-G16RevC.01  3-Jul-2019

 ----------------------------------------------------------------------
 #P wb97xd/6-311++G(d,p) Symm(None) scf(xqc) pop(None) freq opt(CalcFC,
  Tight)
 ----------------------------------------------------------------------

 ------------------------------
 Gaussian input prepared by ASE
 ------------------------------
 Symbolic Z-matrix:
 Charge =  0 Multiplicity = 1

 SCF Done:  E(RwB97XD) =  -1199.72994905     A.U. after   16 cycles
 SCF Done:  E(RwB97XD) =  -1199.73658836     A.U. after   15 cycles
 SCF Done:  E(RwB97XD) =  -1199.73595068     A.U. after   14 cycles
 SCF Done:  E(RwB97XD) =  -1199.73748779     A.U. after   13 cycles
 SCF Done:  E(RwB97XD) =  -1199.73747207     A.U. after   13 cycles
 SCF Done:  E(RwB97XD) =  -1199.73756308     A.U. after   13 cycles
 SCF Done:  E(RwB97XD) =  -1199.73764424     A.U. after   13 cycles
 SCF Done:  E(RwB97XD) =  -1199.73764540     A.U. after   11 cycles
 SCF Done:  E(RwB97XD) =  -1199.73764597     A.U. after   10 cycles
 SCF Done:  E(RwB97XD) =  -1199.73764612     A.U. after    9 cycles
 SCF Done:  E(RwB97XD) =  -1199.73764617     A.U. after    9 cycles
 SCF Done:  E(RwB97XD) =  -1199.73764617     A.U. after    6 cycles
 SCF Done:  E(RwB97XD) =  -1199.73764617     A.U. after    5 cycles
 Optimization completed.
    -- Stationary point found.
 Normal termination of Gaussian 16 at Fri May 23 05:20:20 2025.

 ----------------------------------------------------------------------
 #P Geom=AllCheck Guess=TCheck SCRF=Check GenChk RwB97XD/6-311++G(d,p)
 Freq
 ----------------------------------------------------------------------

 Structure from the checkpoint file:  "/tmp/Gau-76323.chk"
 ------------------------------
 Gaussian input prepared by ASE
 ------------------------------
 Charge =  0 Multiplicity = 1

                          Input orientation:
 ---------------------------------------------------------------------
 Center     Atomic      Atomic             Coordinates (Angstroms)
 Number     Number       Type             X           Y           Z
 ---------------------------------------------------------------------
      1          6           0        3.719026    3.195714   -0.108946
      2          6           0        2.545652    3.414573    0.884331
      3          9           0        3.007478    4.097845    1.943177
      4          9           0        1.574452    4.112045    0.306197
      5         16           0        1.827154    1.823139    1.669887
      6          8           0        1.098369   -0.076368    0.211058
      7          8           0        0.617677    2.266920    2.355424
      8          8           0        1.452984    1.295749    0.103450
      9          9           0        4.523144    2.241509    0.368741
     10          9           0        3.283034    2.838729   -1.304345
     11          9           0        4.421101    4.318720   -0.230088
     12          1           0        0.146632   -0.037633    0.051972
 ---------------------------------------------------------------------

 SCF Done:  E(RwB97XD) =  -1199.73764617     A.U. after    1 cycles

 Isotropic polarizability for W=    0.000000       61.16 Bohr**3.
 End of Minotr F.D. properties file   721 does not exist.

                      1                      2                      3
                      A                      A                      A
 Frequencies --     35.4855                60.8517                79.9501
 Red. masses --     13.0237                17.9435                10.1159
 Frc consts  --      0.0097                 0.0391                 0.0381
 IR Inten    --      0.2845                 0.0249                 3.7818

                      4                      5                      6
                      A                      A                      A
 Frequencies --    127.4895               164.6221               225.6062
 Red. masses --      9.7826                11.3052                17.8346
 Frc consts  --      0.0937                 0.1805                 0.5348
 IR Inten    --      6.2328                 2.8067                 2.2352

                      7                      8                      9
                      A                      A                      A
 Frequencies --    231.6434               271.1683               289.6162
 Red. masses --     17.6118                12.5146                 6.9488
 Frc consts  --      0.5568                 0.5422                 0.3434
 IR Inten    --      1.3399                 5.7705                 4.2083

                     10                     11                     12
                      A                      A                      A
 Frequencies --    315.6244               345.3620               368.6023
 Red. masses --     16.0570                 1.4715                18.2002
 Frc consts  --      0.9424                 0.1034                 1.4569
 IR Inten    --      3.1976               104.4768                 0.3516

                     13                     14                     15
                      A                      A                      A
 Frequencies --    424.3958               453.8241               505.6682
 Red. masses --     13.8689                 6.3735                18.5971
 Frc consts  --      1.4717                 0.7734                 2.8017
 IR Inten    --      7.5164                22.3688                39.7909

                     16                     17                     18
                      A                      A                      A
 Frequencies --    547.0804               594.1541               655.1608
 Red. masses --     17.9161                17.7629                17.6730
 Frc consts  --      3.1593                 3.6946                 4.4695
 IR Inten    --      0.8680                 1.6732                17.0644

                     19                     20                     21
                      A                      A                      A
 Frequencies --    714.7695               760.0602               970.3082
 Red. masses --     16.9625                17.2460                13.4007
 Frc consts  --      5.1059                 5.8699                 7.4336
 IR Inten    --     88.7296                16.5758               115.7103

                     22                     23                     24
                      A                      A                      A
 Frequencies --    994.9699              1146.1875              1214.9951
 Red. masses --     14.9902                13.7258                13.2968
 Frc consts  --      8.7434                10.6242                11.5650
 IR Inten    --      4.9332               133.4348               286.9274

                     25                     26                     27
                      A                      A                      A
 Frequencies --   1220.5709              1237.0676              1254.4511
 Red. masses --     12.9640                17.5273                13.4141
 Frc consts  --     11.3793                15.8034                12.4371
 IR Inten    --    115.1746               249.7397               319.6262

                     28                     29                     30
                      A                      A                      A
 Frequencies --   1348.1887              1430.7204              3824.0479
 Red. masses --     12.7615                 1.1111                 1.0686
 Frc consts  --     13.6664                 1.3400                 9.2071
 IR Inten    --    131.7522                59.5511                87.1767

 - Thermochemistry -
 -------------------
 Temperature   298.150 Kelvin.  Pressure   1.00000 Atm.
 Atom     1 has atomic number  6 and mass  12.00000

 Molecular mass:   199.95666 amu.
 Principal axes and moments of inertia in atomic units:
                           1         2         3
     Eigenvalues --  1249.579302226.947262736.54967
           X            0.71268  -0.25203   0.65465
           Y            0.63072   0.63869  -0.44075
           Z           -0.30704   0.72702   0.61414
 This molecule is an asymmetric top.
 Rotational symmetry number  1.
 Warning -- assumption of classical behavior for rotation
           may cause significant error
 Rotational temperatures (Kelvin)      0.06931     0.03889     0.03165
 Rotational constants (GHZ):           1.44428     0.81041     0.65950
 Zero-point vibrational energy     130468.6 (Joules/Mol)
                                   31.18274 (Kcal/Mol)
 Warning -- explicit consideration of  17 degrees of freedom as
           vibrations may cause significant error
 Vibrational temperatures:     51.06    87.55   115.03   183.43   236.85
          (Kelvin)            324.60   333.28   390.15   416.69   454.11
                              496.90   530.34   610.61   652.95   727.54
                              787.13   854.86   942.63  1028.39  1093.56
                             1396.06  1431.54  1649.11  1748.11  1756.13
                             1779.86  1804.88  1939.74  2058.49  5501.95

 Zero-point correction=                           0.049693 (Hartree/Particle)
 Thermal correction to Energy=                    0.060938
 Thermal correction to Enthalpy=                  0.061883
 Thermal correction to Gibbs Free Energy=         0.011239
 Sum of electronic and zero-point Energies=          -1199.687953
 Sum of electronic and thermal Energies=             -1199.676708
 Sum of electronic and thermal Enthalpies=           -1199.675764
 Sum of electronic and thermal Free Energies=        -1199.726407

                     E (Thermal)             CV                S
                      KCal/Mol        Cal/Mol-Kelvin    Cal/Mol-Kelvin
 Total                   38.239             38.104            106.589
 Electronic               0.000              0.000              0.000
 Translational            0.889              2.981             41.783
 Rotational               0.889              2.981             30.411
 Vibrational             36.462             32.142             34.395
 Vibration     1          0.594              1.982              5.496
 Vibration     2          0.597              1.973              4.429
 Vibration     3          0.600              1.963              3.892
 Vibration     4          0.611              1.926              2.984
 Vibration     5          0.623              1.886              2.496
 Vibration     6          0.650              1.802              1.914
 Vibration     7          0.653              1.793              1.866
 Vibration     8          0.675              1.726              1.589
 Vibration     9          0.686              1.693              1.476
 Vibration    10          0.703              1.644              1.333
 Vibration    11          0.724              1.585              1.187
 Vibration    12          0.741              1.537              1.086
 Vibration    13          0.786              1.417              0.877
 Vibration    14          0.812              1.352              0.784
 Vibration    15          0.861              1.237              0.644
 Vibration    16          0.902              1.146              0.550
 Vibration    17          0.952              1.044              0.460

 Optimization completed.
    -- Stationary point found.
 Normal termination of Gaussian 16 at Fri May 23 05:21:27 2025.
