 Gaussian 16, Revision C.01,
 Gaussian 16:  ES64L-G16RevC.01  3-Jul-2019

 ----------------------------------------------------------------------
 #P wb97xd/6-311++G(d,p) Symm(None) scf(xqc) pop(None) freq opt(CalcFC,
  Tight)
 ----------------------------------------------------------------------

 ------------------------------
 Gaussian input prepared by ASE
 ------------------------------
 Symbolic Z-matrix:
 Charge =  0 Multiplicity = 1

 SCF Done:  E(RwB97XD) =  -1199.58391351     A.U. after   18 cycles
 SCF Done:  E(RwB97XD) =  -1199.59300820     A.U. after   19 cycles
 SCF Done:  E(RwB97XD) =  -1199.59248798     A.U. after   19 cycles
 SCF Done:  E(RwB97XD) =  -1199.59247452     A.U. after   19 cycles
 SCF Done:  E(RwB97XD) =  -1199.59262096     A.U. after   19 cycles
 SCF Done:  E(RwB97XD) =  -1199.59292920     A.U. after   16 cycles
 SCF Done:  E(RwB97XD) =  -1199.59309166     A.U. after   15 cycles
 SCF Done:  E(RwB97XD) =  -1199.59373354     A.U. after   18 cycles
 SCF Done:  E(RwB97XD) =  -1199.59395228     A.U. after   19 cycles
 SCF Done:  E(RwB97XD) =  -1199.59415356     A.U. after   19 cycles
 SCF Done:  E(RwB97XD) =  -1199.59999952     A.U. after   18 cycles
 SCF Done:  E(RwB97XD) =  -1199.60001081     A.U. after   14 cycles
 SCF Done:  E(RwB97XD) =  -1199.60001323     A.U. after   12 cycles
 SCF Done:  E(RwB97XD) =  -1199.60001379     A.U. after   11 cycles
 SCF Done:  E(RwB97XD) =  -1199.60001384     A.U. after   11 cycles
 SCF Done:  E(RwB97XD) =  -1199.60001385     A.U. after   10 cycles
 SCF Done:  E(RwB97XD) =  -1199.60001385     A.U. after    5 cycles
 SCF Done:  E(RwB97XD) =  -1199.60001385     A.U. after    5 cycles
 SCF Done:  E(RwB97XD) =  -1199.60001385     A.U. after    4 cycles
 Optimization completed.
    -- Stationary point found.
 Normal termination of Gaussian 16 at Fri May 23 07:38:10 2025.

 ----------------------------------------------------------------------
 #P Geom=AllCheck Guess=TCheck SCRF=Check GenChk RwB97XD/6-311++G(d,p)
 Freq
 ----------------------------------------------------------------------

 Structure from the checkpoint file:  "/tmp/Gau-37414.chk"
 ------------------------------
 Gaussian input prepared by ASE
 ------------------------------
 Charge =  0 Multiplicity = 1

                          Input orientation:
 ---------------------------------------------------------------------
 Center     Atomic      Atomic             Coordinates (Angstroms)
 Number     Number       Type             X           Y           Z
 ---------------------------------------------------------------------
      1          6           0       -0.676442    0.892040    0.792756
      2          6           0        0.145645   -0.073284   -0.115108
      3          9           0       -0.214479   -1.325186    0.087438
      4          9           0       -0.040319    0.229835   -1.450897
      5         16           0        2.035410   -0.019894    0.173473
      6          8           0       -1.670482    0.164828   -1.892099
      7          8           0        2.594844   -0.824413   -0.904264
      8          8           0        2.036738    1.583569   -0.239111
      9          9           0       -0.020337    0.973183    1.965947
     10          9           0       -0.758356    2.097172    0.269625
     11          9           0       -1.882692    0.418800    1.034928
     12          1           0        2.823446    2.007405    0.120772
 ---------------------------------------------------------------------

 SCF Done:  E(RwB97XD) =  -1199.60001385     A.U. after    1 cycles

 Isotropic polarizability for W=    0.000000       63.34 Bohr**3.
 End of Minotr F.D. properties file   721 does not exist.

                      1                      2                      3
                      A                      A                      A
 Frequencies --     61.0175                69.9758                92.8229
 Red. masses --      9.0812                16.2049                15.7676
 Frc consts  --      0.0199                 0.0468                 0.0800
 IR Inten    --      4.0238                 1.1589                 1.1775

                      4                      5                      6
                      A                      A                      A
 Frequencies --    135.6833               143.8888               191.7441
 Red. masses --     11.9596                12.6320                 9.8964
 Frc consts  --      0.1297                 0.1541                 0.2144
 IR Inten    --      4.5458                 2.0052                 5.5510

                      7                      8                      9
                      A                      A                      A
 Frequencies --    215.7248               230.1130               255.1003
 Red. masses --      2.9521                 9.5483                 2.7500
 Frc consts  --      0.0809                 0.2979                 0.1054
 IR Inten    --     49.0214                15.2252                42.3765

                     10                     11                     12
                      A                      A                      A
 Frequencies --    271.9854               329.5317               363.6455
 Red. masses --      7.3041                 7.1726                13.5573
 Frc consts  --      0.3184                 0.4589                 1.0563
 IR Inten    --      5.8253                 5.5185                 0.8220

                     13                     14                     15
                      A                      A                      A
 Frequencies --    401.3989               421.0436               458.3614
 Red. masses --     15.6434                16.7842                15.4134
 Frc consts  --      1.4850                 1.7531                 1.9079
 IR Inten    --     13.7177                 4.4096                18.4461

                     16                     17                     18
                      A                      A                      A
 Frequencies --    534.6946               545.3466               593.3943
 Red. masses --     14.4386                18.0093                17.3391
 Frc consts  --      2.4321                 3.1557                 3.5972
 IR Inten    --     90.7500                 8.0088                 9.6411

                     19                     20                     21
                      A                      A                      A
 Frequencies --    636.2445               748.9945               760.5878
 Red. masses --     16.8656                15.7265                17.2191
 Frc consts  --      4.0225                 5.1980                 5.8689
 IR Inten    --     20.6899               107.2488                32.3513

                     22                     23                     24
                      A                      A                      A
 Frequencies --    966.6215              1035.4480              1105.9252
 Red. masses --     10.4054                 6.4395                 1.3063
 Frc consts  --      5.7282                 4.0678                 0.9414
 IR Inten    --     77.0654               221.2558               124.3888

                     25                     26                     27
                      A                      A                      A
 Frequencies --   1174.6751              1228.0088              1249.3140
 Red. masses --     10.1751                14.0619                16.6611
 Frc consts  --      8.2722                12.4939                15.3213
 IR Inten    --    142.9075               113.2186               312.2374

                     28                     29                     30
                      A                      A                      A
 Frequencies --   1282.7336              1345.2829              3868.6696
 Red. masses --     13.1592                12.7827                 1.0673
 Frc consts  --     12.7571                13.6301                 9.4116
 IR Inten    --    281.1635               128.9938               174.2664

 - Thermochemistry -
 -------------------
 Temperature   298.150 Kelvin.  Pressure   1.00000 Atm.
 Atom     1 has atomic number  6 and mass  12.00000

 Molecular mass:   199.95666 amu.
 Principal axes and moments of inertia in atomic units:
                           1         2         3
     Eigenvalues --  1346.668012082.627902454.42233
           X            0.95978   0.26888   0.08073
           Y           -0.21487   0.51850   0.82764
           Z           -0.18068   0.81170  -0.55542
 This molecule is an asymmetric top.
 Rotational symmetry number  1.
 Warning -- assumption of classical behavior for rotation
           may cause significant error
 Rotational temperatures (Kelvin)      0.06432     0.04159     0.03529
 Rotational constants (GHZ):           1.34015     0.86657     0.73530
 Zero-point vibrational energy     123921.0 (Joules/Mol)
                                   29.61784 (Kcal/Mol)
 Warning -- explicit consideration of  18 degrees of freedom as
           vibrations may cause significant error
 Vibrational temperatures:     87.79   100.68   133.55   195.22   207.02
          (Kelvin)            275.88   310.38   331.08   367.03   391.33
                              474.12   523.20   577.52   605.79   659.48
                              769.31   784.63   853.76   915.41  1077.64
                             1094.32  1390.75  1489.78  1591.18  1690.10
                             1766.83  1797.48  1845.57  1935.56  5566.15

 Zero-point correction=                           0.047199 (Hartree/Particle)
 Thermal correction to Energy=                    0.058904
 Thermal correction to Enthalpy=                  0.059848
 Thermal correction to Gibbs Free Energy=         0.008947
 Sum of electronic and zero-point Energies=          -1199.552815
 Sum of electronic and thermal Energies=             -1199.541110
 Sum of electronic and thermal Enthalpies=           -1199.540166
 Sum of electronic and thermal Free Energies=        -1199.591067

                     E (Thermal)             CV                S
                      KCal/Mol        Cal/Mol-Kelvin    Cal/Mol-Kelvin
 Total                   36.963             39.704            107.130
 Electronic               0.000              0.000              0.000
 Translational            0.889              2.981             41.783
 Rotational               0.889              2.981             30.310
 Vibrational             35.185             33.742             35.036
 Vibration     1          0.597              1.973              4.424
 Vibration     2          0.598              1.968              4.154
 Vibration     3          0.602              1.954              3.600
 Vibration     4          0.614              1.918              2.864
 Vibration     5          0.616              1.909              2.752
 Vibration     6          0.634              1.851              2.211
 Vibration     7          0.645              1.817              1.995
 Vibration     8          0.652              1.795              1.878
 Vibration     9          0.665              1.754              1.695
 Vibration    10          0.675              1.725              1.584
 Vibration    11          0.712              1.617              1.262
 Vibration    12          0.737              1.547              1.106
 Vibration    13          0.767              1.467              0.958
 Vibration    14          0.784              1.424              0.888
 Vibration    15          0.816              1.342              0.771
 Vibration    16          0.890              1.173              0.577
 Vibration    17          0.901              1.150              0.554
 Vibration    18          0.951              1.046              0.461

 Optimization completed.
    -- Stationary point found.
 Normal termination of Gaussian 16 at Fri May 23 07:39:33 2025.
