 Gaussian 16, Revision C.01,
 Gaussian 16:  ES64L-G16RevC.01  3-Jul-2019

 ----------------------------------------------------------------------
 #P wb97xd/6-311++G(d,p) Symm(None) scf(xqc) pop(None) opt(NoFreeze,TS,
 CalcAll,NoEigentest,MaxCycle=999)
 ----------------------------------------------------------------------

 ------------------------------
 Gaussian input prepared by ASE
 ------------------------------
 Symbolic Z-matrix:
 Charge =  0 Multiplicity = 1

 SCF Done:  E(RwB97XD) =  -1199.59471463     A.U. after   22 cycles
 SCF Done:  E(RwB97XD) =  -1199.61772174     A.U. after   19 cycles
 SCF Done:  E(RwB97XD) =  -1199.64387250     A.U. after   17 cycles
 SCF Done:  E(RwB97XD) =  -1199.65894920     A.U. after   16 cycles
 SCF Done:  E(RwB97XD) =  -1199.66091217     A.U. after   17 cycles
 SCF Done:  E(RwB97XD) =  -1199.66326431     A.U. after   16 cycles
 SCF Done:  E(RwB97XD) =  -1199.66346460     A.U. after   16 cycles
 SCF Done:  E(RwB97XD) =  -1199.66365606     A.U. after   14 cycles
 SCF Done:  E(RwB97XD) =  -1199.66366946     A.U. after   14 cycles
 SCF Done:  E(RwB97XD) =  -1199.66367111     A.U. after   11 cycles

 Isotropic polarizability for W=    0.000000       72.62 Bohr**3.
 End of Minotr F.D. properties file   721 does not exist.

 Optimization completed.
    -- Stationary point found.

                          Input orientation:
 ---------------------------------------------------------------------
 Center     Atomic      Atomic             Coordinates (Angstroms)
 Number     Number       Type             X           Y           Z
 ---------------------------------------------------------------------
      1          6           0       -0.231136   -1.189911    0.114932
      2          6           0        0.211720    0.134737    0.070384
      3          9           0       -0.001916    0.794715   -1.059522
      4          9           0        0.022901    0.872231    1.145285
      5         16           0        2.578571   -0.276872    0.107059
      6          8           0        2.893848   -0.464406    1.490252
      7          8           0        3.359756   -0.533907   -1.075923
      8          8           0        2.418303    1.371270    0.025614
      9          9           0       -0.446373   -1.782992    1.220924
     10          9           0        1.722483   -1.947085   -0.056305
     11          9           0       -0.588690   -1.824410   -0.931397
     12          1           0        2.595286    1.641313   -0.884610
 ---------------------------------------------------------------------

 ******    1 imaginary frequencies (negative Signs) ******

                      1                      2                      3
                      A                      A                      A
 Frequencies --   -573.7645                32.7779                61.5700
 Red. masses --     12.7259                15.2932                12.1225
 Frc consts  --      2.4683                 0.0097                 0.0271
 IR Inten    --    194.7302                 1.7856                 2.6582

                      4                      5                      6
                      A                      A                      A
 Frequencies --    161.1868               170.5471               202.9722
 Red. masses --     18.8049                17.0500                17.4543
 Frc consts  --      0.2879                 0.2922                 0.4237
 IR Inten    --     15.7017                12.0612                 0.1767

                      7                      8                      9
                      A                      A                      A
 Frequencies --    211.0365               240.3036               274.2903
 Red. masses --     17.4421                15.7953                11.0328
 Frc consts  --      0.4577                 0.5374                 0.4891
 IR Inten    --      1.9659                 3.2189                 8.1154

                     10                     11                     12
                      A                      A                      A
 Frequencies --    318.7379               368.7424               388.5394
 Red. masses --      7.7751                 1.8440                13.9563
 Frc consts  --      0.4654                 0.1477                 1.2413
 IR Inten    --      9.5219                29.5386                17.2403

                     13                     14                     15
                      A                      A                      A
 Frequencies --    407.0605               443.6723               481.5631
 Red. masses --     15.7108                 5.5891                 3.7471
 Frc consts  --      1.5338                 0.6482                 0.5120
 IR Inten    --     26.4478               227.3522                 3.6261

                     16                     17                     18
                      A                      A                      A
 Frequencies --    512.5892               548.2744               560.2404
 Red. masses --     10.3354                16.7526                14.3736
 Frc consts  --      1.6000                 2.9671                 2.6581
 IR Inten    --    241.1906                 1.3492               140.0300

                     19                     20                     21
                      A                      A                      A
 Frequencies --    594.4864               646.5009               717.9217
 Red. masses --     16.5554                13.2662                16.7432
 Frc consts  --      3.4472                 3.2669                 5.0844
 IR Inten    --      4.2780                 9.4099               182.7903

                     22                     23                     24
                      A                      A                      A
 Frequencies --    812.9659              1117.1784              1148.8179
 Red. masses --     17.7537                 9.8219                 1.2686
 Frc consts  --      6.9133                 7.2226                 0.9865
 IR Inten    --     59.3920               227.8710               100.3720

                     25                     26                     27
                      A                      A                      A
 Frequencies --   1209.7183              1306.0172              1425.0467
 Red. masses --     13.7576                13.1143                12.5023
 Frc consts  --     11.8621                13.1793                14.9588
 IR Inten    --    321.8070               155.9249               186.5599

                     28                     29                     30
                      A                      A                      A
 Frequencies --   1479.0738              1606.4104              3836.5039
 Red. masses --     13.2369                12.4011                 1.0664
 Frc consts  --     17.0615                18.8548                 9.2476
 IR Inten    --    341.9430               812.5882               165.7909

 - Thermochemistry -
 -------------------
 Temperature   298.150 Kelvin.  Pressure   1.00000 Atm.
 Atom     1 has atomic number  6 and mass  12.00000

 Molecular mass:   199.95666 amu.
 Principal axes and moments of inertia in atomic units:
                           1         2         3
     Eigenvalues --  1312.374282074.168512351.80837
           X            0.94831  -0.31707   0.01293
           Y            0.31702   0.94840   0.00609
           Z           -0.01420  -0.00168   0.99990
 This molecule is an asymmetric top.
 Rotational symmetry number  1.
 Warning -- assumption of classical behavior for rotation
           may cause significant error
 Rotational temperatures (Kelvin)      0.06600     0.04176     0.03683
 Rotational constants (GHZ):           1.37517     0.87010     0.76738
    1 imaginary frequencies ignored.
 Zero-point vibrational energy     127311.0 (Joules/Mol)
                                   30.42807 (Kcal/Mol)
 Warning -- explicit consideration of  18 degrees of freedom as
           vibrations may cause significant error
 Vibrational temperatures:     47.16    88.59   231.91   245.38   292.03
          (Kelvin)            303.63   345.74   394.64   458.59   530.54
                              559.02   585.67   638.35   692.86   737.50
                              788.84   806.06   855.33   930.17  1032.93
                             1169.68  1607.37  1652.89  1740.51  1879.07
                             2050.32  2128.06  2311.27  5519.87

 Zero-point correction=                           0.048490 (Hartree/Particle)
 Thermal correction to Energy=                    0.059314
 Thermal correction to Enthalpy=                  0.060258
 Thermal correction to Gibbs Free Energy=         0.011010
 Sum of electronic and zero-point Energies=          -1199.615181
 Sum of electronic and thermal Energies=             -1199.604357
 Sum of electronic and thermal Enthalpies=           -1199.603413
 Sum of electronic and thermal Free Energies=        -1199.652661

                     E (Thermal)             CV                S
                      KCal/Mol        Cal/Mol-Kelvin    Cal/Mol-Kelvin
 Total                   37.220             37.600            103.651
 Electronic               0.000              0.000              0.000
 Translational            0.889              2.981             41.783
 Rotational               0.889              2.981             30.238
 Vibrational             35.443             31.639             31.630
 Vibration     1          0.594              1.983              5.654
 Vibration     2          0.597              1.973              4.406
 Vibration     3          0.622              1.890              2.536
 Vibration     4          0.626              1.879              2.429
 Vibration     5          0.639              1.836              2.106
 Vibration     6          0.643              1.824              2.035
 Vibration     7          0.657              1.779              1.801
 Vibration     8          0.677              1.721              1.569
 Vibration     9          0.705              1.638              1.317
 Vibration    10          0.741              1.536              1.085
 Vibration    11          0.757              1.495              1.006
 Vibration    12          0.772              1.455              0.937
 Vibration    13          0.803              1.375              0.815
 Vibration    14          0.838              1.291              0.706
 Vibration    15          0.868              1.222              0.627
 Vibration    16          0.904              1.143              0.548
 Vibration    17          0.916              1.117              0.523
 Vibration    18          0.952              1.044              0.459

 Normal termination of Gaussian 16 at Fri May 23 05:09:02 2025.
