 Gaussian 16, Revision C.01,
 Gaussian 16:  ES64L-G16RevC.01  3-Jul-2019

 ----------------------------------------------------------------------
 #P wb97xd/6-311++G(d,p) Symm(None) scf(xqc) pop(None) opt(NoFreeze,TS,
 CalcAll,NoEigentest,MaxCycle=999)
 ----------------------------------------------------------------------

 ------------------------------
 Gaussian input prepared by ASE
 ------------------------------
 Symbolic Z-matrix:
 Charge =  0 Multiplicity = 1

 SCF Done:  E(RwB97XD) =  -1199.58051381     A.U. after   28 cycles
 SCF Done:  E(RwB97XD) =  -1199.59011298     A.U. after   23 cycles
 SCF Done:  E(RwB97XD) =  -1199.59503872     A.U. after   23 cycles
 SCF Done:  E(RwB97XD) =  -1199.59636312     A.U. after   20 cycles
 SCF Done:  E(RwB97XD) =  -1199.59648968     A.U. after   21 cycles
 SCF Done:  E(RwB97XD) =  -1199.59649601     A.U. after   20 cycles
 SCF Done:  E(RwB97XD) =  -1199.59649636     A.U. after   19 cycles

 Isotropic polarizability for W=    0.000000       74.37 Bohr**3.
 End of Minotr F.D. properties file   721 does not exist.

 Optimization completed.
    -- Stationary point found.

                          Input orientation:
 ---------------------------------------------------------------------
 Center     Atomic      Atomic             Coordinates (Angstroms)
 Number     Number       Type             X           Y           Z
 ---------------------------------------------------------------------
      1          6           0       -0.598843   -1.411221   -0.320570
      2          6           0       -0.041507   -0.003598   -0.017524
      3          9           0       -0.569815    0.900346   -0.825360
      4          9           0       -0.313738    0.320272    1.260995
      5         16           0        1.884993    0.063948   -0.028174
      6          8           0        1.345353    1.008988    2.418645
      7          8           0        2.355622   -0.426866   -1.312278
      8          8           0        1.963788    1.675497   -0.043281
      9          9           0       -0.456415   -1.688786   -1.605904
     10          9           0        0.070482   -2.309315    0.401577
     11          9           0       -1.886799   -1.477379   -0.002225
     12          1           0        1.909838    1.927166    0.905420
 ---------------------------------------------------------------------

 ******    1 imaginary frequencies (negative Signs) ******

                      1                      2                      3
                      A                      A                      A
 Frequencies --   -296.8580                41.8901                58.7464
 Red. masses --     17.1120                15.0770                17.3622
 Frc consts  --      0.8885                 0.0156                 0.0353
 IR Inten    --     57.9311                 0.4719                 0.0390

                      4                      5                      6
                      A                      A                      A
 Frequencies --    119.6093               153.7881               193.5393
 Red. masses --     16.0311                10.3056                14.5871
 Frc consts  --      0.1351                 0.1436                 0.3219
 IR Inten    --      0.6993                 7.8929                10.9648

                      7                      8                      9
                      A                      A                      A
 Frequencies --    226.7174               236.1284               264.6681
 Red. masses --     17.3473                14.2048                12.8246
 Frc consts  --      0.5254                 0.4666                 0.5293
 IR Inten    --      3.1294                 2.7544                 7.7845

                     10                     11                     12
                      A                      A                      A
 Frequencies --    281.5779               342.3685               375.8990
 Red. masses --     13.4272                17.7390                18.3459
 Frc consts  --      0.6272                 1.2251                 1.5273
 IR Inten    --      3.0178                 1.1750                 1.1983

                     13                     14                     15
                      A                      A                      A
 Frequencies --    408.6079               434.6444               505.9371
 Red. masses --     15.1290                12.1390                16.3626
 Frc consts  --      1.4882                 1.3511                 2.4677
 IR Inten    --     15.6939                17.5006                33.4588

                     16                     17                     18
                      A                      A                      A
 Frequencies --    544.3088               601.3107               623.7383
 Red. masses --     17.4742                17.5235                 1.1189
 Frc consts  --      3.0503                 3.7331                 0.2565
 IR Inten    --      1.9882                 5.6730               128.4451

                     19                     20                     21
                      A                      A                      A
 Frequencies --    635.1179               759.4223               783.6348
 Red. masses --     11.8835                16.5394                10.0233
 Frc consts  --      2.8242                 5.6200                 3.6265
 IR Inten    --     10.6124                33.0635                86.3304

                     22                     23                     24
                      A                      A                      A
 Frequencies --    938.3662              1094.7112              1178.8017
 Red. masses --     13.1808                12.6883                 1.4587
 Frc consts  --      6.8381                 8.9589                 1.1943
 IR Inten    --    100.9795                32.7805               201.4081

                     25                     26                     27
                      A                      A                      A
 Frequencies --   1223.9223              1229.7698              1247.6838
 Red. masses --     12.4109                10.2081                10.0067
 Frc consts  --     10.9537                 9.0958                 9.1780
 IR Inten    --    313.4281                66.7261               128.0437

                     28                     29                     30
                      A                      A                      A
 Frequencies --   1276.0021              1350.8686              3486.0211
 Red. masses --      6.6291                12.2926                 1.0662
 Frc consts  --      6.3592                13.2166                 7.6338
 IR Inten    --    278.8615               217.9101                 6.9789

 - Thermochemistry -
 -------------------
 Temperature   298.150 Kelvin.  Pressure   1.00000 Atm.
 Atom     1 has atomic number  6 and mass  12.00000

 Molecular mass:   199.95666 amu.
 Principal axes and moments of inertia in atomic units:
                           1         2         3
     Eigenvalues --  1293.903742212.039462582.11000
           X            0.71881  -0.52644  -0.45407
           Y            0.64970   0.27627   0.70821
           Z            0.24738   0.80408  -0.54061
 This molecule is an asymmetric top.
 Rotational symmetry number  1.
 Warning -- assumption of classical behavior for rotation
           may cause significant error
 Rotational temperatures (Kelvin)      0.06694     0.03916     0.03354
 Rotational constants (GHZ):           1.39480     0.81587     0.69894
    1 imaginary frequencies ignored.
 Zero-point vibrational energy     123321.8 (Joules/Mol)
                                   29.47463 (Kcal/Mol)
 Warning -- explicit consideration of  16 degrees of freedom as
           vibrations may cause significant error
 Vibrational temperatures:     60.27    84.52   172.09   221.27   278.46
          (Kelvin)            326.20   339.74   380.80   405.13   492.59
                              540.83   587.90   625.36   727.93   783.14
                              865.15   897.42   913.79  1092.64  1127.48
                             1350.10  1575.05  1696.03  1760.95  1769.36
                             1795.14  1835.88  1943.60  5015.61

 Zero-point correction=                           0.046971 (Hartree/Particle)
 Thermal correction to Energy=                    0.057787
 Thermal correction to Enthalpy=                  0.058731
 Thermal correction to Gibbs Free Energy=         0.009325
 Sum of electronic and zero-point Energies=          -1199.549526
 Sum of electronic and thermal Energies=             -1199.538710
 Sum of electronic and thermal Enthalpies=           -1199.537766
 Sum of electronic and thermal Free Energies=        -1199.587171

                     E (Thermal)             CV                S
                      KCal/Mol        Cal/Mol-Kelvin    Cal/Mol-Kelvin
 Total                   36.262             37.132            103.983
 Electronic               0.000              0.000              0.000
 Translational            0.889              2.981             41.783
 Rotational               0.889              2.981             30.381
 Vibrational             34.484             31.171             31.818
 Vibration     1          0.595              1.980              5.168
 Vibration     2          0.596              1.974              4.499
 Vibration     3          0.609              1.933              3.107
 Vibration     4          0.619              1.898              2.625
 Vibration     5          0.635              1.849              2.194
 Vibration     6          0.650              1.800              1.905
 Vibration     7          0.655              1.785              1.832
 Vibration     8          0.671              1.738              1.631
 Vibration     9          0.681              1.708              1.524
 Vibration    10          0.721              1.591              1.201
 Vibration    11          0.747              1.521              1.056
 Vibration    12          0.773              1.452              0.932
 Vibration    13          0.795              1.395              0.844
 Vibration    14          0.861              1.237              0.643
 Vibration    15          0.899              1.152              0.556
 Vibration    16          0.960              1.029              0.447

 Normal termination of Gaussian 16 at Fri May 23 07:41:33 2025.
