 Gaussian 16, Revision C.01,
 Gaussian 16:  ES64L-G16RevC.01  3-Jul-2019

 ----------------------------------------------------------------------
 #P wb97xd/6-311++G(d,p) Symm(None) scf(xqc) pop(None) opt(CalcAll, Tig
 ht,Cartesian)
 ----------------------------------------------------------------------

 ------------------------------
 Gaussian input prepared by ASE
 ------------------------------
 Symbolic Z-matrix:
 Charge =  0 Multiplicity = 1

 SCF Done:  E(RwB97XD) =  -1199.60086686     A.U. after   20 cycles
 SCF Done:  E(RwB97XD) =  -1199.60115243     A.U. after   17 cycles
 SCF Done:  E(RwB97XD) =  -1199.60128324     A.U. after   19 cycles
 SCF Done:  E(RwB97XD) =  -1199.60217972     A.U. after   17 cycles
 SCF Done:  E(RwB97XD) =  -1199.60224249     A.U. after   19 cycles
 SCF Done:  E(RwB97XD) =  -1199.60288487     A.U. after   17 cycles
 SCF Done:  E(RwB97XD) =  -1199.60289145     A.U. after   16 cycles
 SCF Done:  E(RwB97XD) =  -1199.60311465     A.U. after   14 cycles
 SCF Done:  E(RwB97XD) =  -1199.60323690     A.U. after   15 cycles
 SCF Done:  E(RwB97XD) =  -1199.60337629     A.U. after   18 cycles
 SCF Done:  E(RwB97XD) =  -1199.60357140     A.U. after   13 cycles
 SCF Done:  E(RwB97XD) =  -1199.60357192     A.U. after   12 cycles
 SCF Done:  E(RwB97XD) =  -1199.60357194     A.U. after   11 cycles
 SCF Done:  E(RwB97XD) =  -1199.60357194     A.U. after    5 cycles
 SCF Done:  E(RwB97XD) =  -1199.60357194     A.U. after    3 cycles
 SCF Done:  E(RwB97XD) =  -1199.60357194     A.U. after    8 cycles
 SCF Done:  E(RwB97XD) =  -1199.60357194     A.U. after    8 cycles
 SCF Done:  E(RwB97XD) =  -1199.60357194     A.U. after    4 cycles
 SCF Done:  E(RwB97XD) =  -1199.60357194     A.U. after    5 cycles
 SCF Done:  E(RwB97XD) =  -1199.60357194     A.U. after    5 cycles

 Isotropic polarizability for W=    0.000000       61.98 Bohr**3.
 End of Minotr F.D. properties file   721 does not exist.

 Optimization completed.
    -- Stationary point found.

                          Input orientation:
 ---------------------------------------------------------------------
 Center     Atomic      Atomic             Coordinates (Angstroms)
 Number     Number       Type             X           Y           Z
 ---------------------------------------------------------------------
      1          6           0       -0.868936    0.810343   -1.323359
      2          6           0       -0.280000   -0.002174   -0.129384
      3          9           0       -0.740743    0.466297    1.012188
      4          9           0       -0.791339   -1.304890   -0.294415
      5         16           0        1.612444   -0.243138    0.006550
      6          8           0       -0.070655   -2.294422    0.822803
      7          8           0        2.032412   -0.955984   -1.188661
      8          8           0        1.770217    1.399529   -0.246968
      9          9           0       -0.763803    2.105310   -1.080373
     10          9           0       -0.242210    0.510516   -2.447464
     11          9           0       -2.161271    0.509268   -1.455556
     12          1           0        2.573434    1.712605    0.181161
 ---------------------------------------------------------------------

                      1                      2                      3
                      A                      A                      A
 Frequencies --     40.0437                84.0676               103.7161
 Red. masses --     13.1953                11.5993                16.3670
 Frc consts  --      0.0125                 0.0483                 0.1037
 IR Inten    --      1.4197                 3.3810                 1.8242

                      4                      5                      6
                      A                      A                      A
 Frequencies --    142.1356               156.3729               192.3992
 Red. masses --     14.5947                12.2701                12.9323
 Frc consts  --      0.1737                 0.1768                 0.2821
 IR Inten    --      0.2319                 6.2652                 7.6980

                      7                      8                      9
                      A                      A                      A
 Frequencies --    209.2101               233.4496               252.9574
 Red. masses --      2.4521                 5.8216                 3.2335
 Frc consts  --      0.0632                 0.1869                 0.1219
 IR Inten    --     56.0332                27.7759                25.2418

                     10                     11                     12
                      A                      A                      A
 Frequencies --    286.5604               321.7020               358.1931
 Red. masses --     16.8287                 7.7683                11.9460
 Frc consts  --      0.8142                 0.4737                 0.9030
 IR Inten    --      1.2385                10.9646                 1.3443

                     13                     14                     15
                      A                      A                      A
 Frequencies --    408.2303               431.3597               477.0775
 Red. masses --      9.6450                14.1124                14.4561
 Frc consts  --      0.9470                 1.5471                 1.9386
 IR Inten    --     26.5399                13.9663                12.2544

                     16                     17                     18
                      A                      A                      A
 Frequencies --    533.5357               557.9609               596.4662
 Red. masses --     17.9032                17.3638                17.5498
 Frc consts  --      3.0027                 3.1849                 3.6787
 IR Inten    --     11.3584                35.1826                23.7773

                     19                     20                     21
                      A                      A                      A
 Frequencies --    630.5388               721.9299               757.3715
 Red. masses --     16.6265                15.0923                16.6392
 Frc consts  --      3.8947                 4.6344                 5.6234
 IR Inten    --      3.8848               128.9465                50.2372

                     22                     23                     24
                      A                      A                      A
 Frequencies --    974.4363               995.5819              1101.4422
 Red. masses --      9.2898                 9.1410                 1.2363
 Frc consts  --      5.1972                 5.3382                 0.8837
 IR Inten    --    223.4799                67.3072                74.0130

                     25                     26                     27
                      A                      A                      A
 Frequencies --   1213.4864              1224.9139              1246.2417
 Red. masses --     12.6868                13.0222                15.8972
 Frc consts  --     11.0071                11.5119                14.5470
 IR Inten    --    149.9328               224.6466                77.0144

                     28                     29                     30
                      A                      A                      A
 Frequencies --   1276.5002              1327.4269              3878.5672
 Red. masses --     14.2853                12.5627                 1.0674
 Frc consts  --     13.7145                13.0423                 9.4603
 IR Inten    --    485.2223               130.3056               163.5994

 - Thermochemistry -
 -------------------
 Temperature   298.150 Kelvin.  Pressure   1.00000 Atm.
 Atom     1 has atomic number  6 and mass  12.00000

 Molecular mass:   199.95666 amu.
 Principal axes and moments of inertia in atomic units:
                           1         2         3
     Eigenvalues --  1443.805131924.809802384.06928
           X            0.73889   0.66667  -0.09801
           Y           -0.53778   0.67106   0.51036
           Z            0.40601  -0.32439   0.85436
 This molecule is an asymmetric top.
 Rotational symmetry number  1.
 Warning -- assumption of classical behavior for rotation
           may cause significant error
 Rotational temperatures (Kelvin)      0.05999     0.04500     0.03633
 Rotational constants (GHZ):           1.24999     0.93762     0.75700
 Zero-point vibrational energy     124016.1 (Joules/Mol)
                                   29.64056 (Kcal/Mol)
 Warning -- explicit consideration of  18 degrees of freedom as
           vibrations may cause significant error
 Vibrational temperatures:     57.61   120.95   149.22   204.50   224.99
          (Kelvin)            276.82   301.01   335.88   363.95   412.30
                              462.86   515.36   587.35   620.63   686.41
                              767.64   802.78   858.18   907.20  1038.70
                             1089.69  1402.00  1432.42  1584.73  1745.94
                             1762.38  1793.06  1836.60  1909.87  5580.39

 Zero-point correction=                           0.047235 (Hartree/Particle)
 Thermal correction to Energy=                    0.058881
 Thermal correction to Enthalpy=                  0.059825
 Thermal correction to Gibbs Free Energy=         0.008976
 Sum of electronic and zero-point Energies=          -1199.556337
 Sum of electronic and thermal Energies=             -1199.544691
 Sum of electronic and thermal Enthalpies=           -1199.543747
 Sum of electronic and thermal Free Energies=        -1199.594596

                     E (Thermal)             CV                S
                      KCal/Mol        Cal/Mol-Kelvin    Cal/Mol-Kelvin
 Total                   36.949             39.665            107.021
 Electronic               0.000              0.000              0.000
 Translational            0.889              2.981             41.783
 Rotational               0.889              2.981             30.272
 Vibrational             35.171             33.703             34.965
 Vibration     1          0.594              1.981              5.257
 Vibration     2          0.601              1.960              3.794
 Vibration     3          0.605              1.946              3.383
 Vibration     4          0.616              1.911              2.775
 Vibration     5          0.620              1.896              2.593
 Vibration     6          0.634              1.850              2.205
 Vibration     7          0.642              1.827              2.051
 Vibration     8          0.654              1.790              1.852
 Vibration     9          0.664              1.758              1.710
 Vibration    10          0.684              1.699              1.494
 Vibration    11          0.707              1.632              1.301
 Vibration    12          0.733              1.558              1.130
 Vibration    13          0.773              1.452              0.933
 Vibration    14          0.792              1.402              0.854
 Vibration    15          0.834              1.301              0.718
 Vibration    16          0.889              1.176              0.579
 Vibration    17          0.914              1.122              0.528
 Vibration    18          0.954              1.039              0.456

 Normal termination of Gaussian 16 at Fri May 23 08:29:46 2025.
