 Gaussian 16, Revision C.01,
 Gaussian 16:  ES64L-G16RevC.01  3-Jul-2019

 ----------------------------------------------------------------------
 #P wb97xd/6-311++G(d,p) Symm(None) scf(xqc) pop(None) freq opt(CalcFC,
  Tight)
 ----------------------------------------------------------------------

 ------------------------------
 Gaussian input prepared by ASE
 ------------------------------
 Symbolic Z-matrix:
 Charge =  0 Multiplicity = 1

 SCF Done:  E(RwB97XD) =  -1199.59701850     A.U. after   16 cycles
 SCF Done:  E(RwB97XD) =  -1199.60619535     A.U. after   16 cycles
 SCF Done:  E(RwB97XD) =  -1199.60154215     A.U. after   17 cycles
 SCF Done:  E(RwB97XD) =  -1199.60658910     A.U. after   14 cycles
 SCF Done:  E(RwB97XD) =  -1199.60664090     A.U. after   13 cycles
 SCF Done:  E(RwB97XD) =  -1199.60667387     A.U. after   12 cycles
 SCF Done:  E(RwB97XD) =  -1199.60670061     A.U. after   12 cycles
 SCF Done:  E(RwB97XD) =  -1199.60672651     A.U. after   11 cycles
 SCF Done:  E(RwB97XD) =  -1199.60678120     A.U. after   12 cycles
 SCF Done:  E(RwB97XD) =  -1199.60683741     A.U. after   12 cycles
 SCF Done:  E(RwB97XD) =  -1199.60749247     A.U. after   13 cycles
 SCF Done:  E(RwB97XD) =  -1199.60749906     A.U. after   12 cycles
 SCF Done:  E(RwB97XD) =  -1199.60750000     A.U. after   11 cycles
 SCF Done:  E(RwB97XD) =  -1199.60750006     A.U. after   10 cycles
 SCF Done:  E(RwB97XD) =  -1199.60750007     A.U. after    8 cycles
 SCF Done:  E(RwB97XD) =  -1199.60750007     A.U. after    5 cycles
 SCF Done:  E(RwB97XD) =  -1199.60750007     A.U. after    5 cycles
 SCF Done:  E(RwB97XD) =  -1199.60750007     A.U. after    4 cycles
 SCF Done:  E(RwB97XD) =  -1199.60750007     A.U. after    5 cycles
 Optimization completed.
    -- Stationary point found.
 Normal termination of Gaussian 16 at Fri May 23 05:21:13 2025.

 ----------------------------------------------------------------------
 #P Geom=AllCheck Guess=TCheck SCRF=Check GenChk RwB97XD/6-311++G(d,p)
 Freq
 ----------------------------------------------------------------------

 Structure from the checkpoint file:  "/tmp/Gau-195541.chk"
 ------------------------------
 Gaussian input prepared by ASE
 ------------------------------
 Charge =  0 Multiplicity = 1

                          Input orientation:
 ---------------------------------------------------------------------
 Center     Atomic      Atomic             Coordinates (Angstroms)
 Number     Number       Type             X           Y           Z
 ---------------------------------------------------------------------
      1          6           0        2.495288   -0.001338   -2.556436
      2          6           0        2.694244   -0.498635   -1.164930
      3          9           0       -0.375480   -1.222437   -0.520059
      4          9           0        3.108199   -1.778445   -1.093088
      5         16           0        1.727392   -0.015313    0.075687
      6          8           0        0.014644    0.085380   -0.183325
      7          8           0        1.958583   -0.657508    1.328020
      8          8           0        1.773640    1.558144    0.193678
      9          9           0        2.046485    1.288492   -2.521188
     10          9           0        3.639247   -0.012655   -3.233749
     11          9           0        1.605627   -0.696061   -3.271484
     12          1           0        1.847323    1.987495   -0.674137
 ---------------------------------------------------------------------

 SCF Done:  E(RwB97XD) =  -1199.60750007     A.U. after    1 cycles

 Isotropic polarizability for W=    0.000000       62.27 Bohr**3.
 End of Minotr F.D. properties file   721 does not exist.

                      1                      2                      3
                      A                      A                      A
 Frequencies --     42.2952                61.0691                93.3885
 Red. masses --     17.4662                17.7281                10.7812
 Frc consts  --      0.0184                 0.0390                 0.0554
 IR Inten    --      0.5961                 0.6326                 3.8368

                      4                      5                      6
                      A                      A                      A
 Frequencies --    145.5070               182.2821               191.9830
 Red. masses --     12.9641                10.2080                 8.4519
 Frc consts  --      0.1617                 0.1998                 0.1835
 IR Inten    --      1.5692                 2.5278                13.1167

                      7                      8                      9
                      A                      A                      A
 Frequencies --    251.9251               283.6970               313.1615
 Red. masses --     13.5693                 2.4177                 2.3690
 Frc consts  --      0.5074                 0.1146                 0.1369
 IR Inten    --      3.4383                38.3384                36.6172

                     10                     11                     12
                      A                      A                      A
 Frequencies --    325.5778               344.1269               376.3702
 Red. masses --     11.7435                 9.5732                14.0683
 Frc consts  --      0.7334                 0.6679                 1.1741
 IR Inten    --      1.0829                 4.4666                 4.1304

                     13                     14                     15
                      A                      A                      A
 Frequencies --    435.4368               468.4676               481.6252
 Red. masses --     14.4073                14.4187                11.5160
 Frc consts  --      1.6095                 1.8644                 1.5739
 IR Inten    --      1.8251                 9.0126                35.0180

                     16                     17                     18
                      A                      A                      A
 Frequencies --    538.2353               585.2841               598.2719
 Red. masses --     16.8000                15.4648                16.3498
 Frc consts  --      2.8675                 3.1212                 3.4480
 IR Inten    --     19.1337                 8.3086                 0.7394

                     19                     20                     21
                      A                      A                      A
 Frequencies --    670.1116               752.7578               871.0726
 Red. masses --     18.7207                17.1475                15.8667
 Frc consts  --      4.9530                 5.7248                 7.0932
 IR Inten    --    286.2203                42.1753               141.0002

                     22                     23                     24
                      A                      A                      A
 Frequencies --    992.3013              1060.9974              1090.6295
 Red. masses --     17.0692                 3.6172                 3.0740
 Frc consts  --      9.9026                 2.3991                 2.1543
 IR Inten    --     17.3648               122.1970               444.5873

                     25                     26                     27
                      A                      A                      A
 Frequencies --   1160.1898              1192.5965              1261.8679
 Red. masses --      2.7863                10.2439                12.5290
 Frc consts  --      2.2097                 8.5842                11.7542
 IR Inten    --     53.7290               271.1932                34.3990

                     28                     29                     30
                      A                      A                      A
 Frequencies --   1346.6107              1372.6704              3751.2889
 Red. masses --     11.6486                12.5754                 1.0659
 Frc consts  --     12.4454                13.9606                 8.8373
 IR Inten    --    521.4813               134.7272               233.2575

 - Thermochemistry -
 -------------------
 Temperature   298.150 Kelvin.  Pressure   1.00000 Atm.
 Atom     1 has atomic number  6 and mass  12.00000

 Molecular mass:   199.95666 amu.
 Principal axes and moments of inertia in atomic units:
                           1         2         3
     Eigenvalues --  1277.793772406.757152430.91327
           X           -0.47975   0.87711  -0.02292
           Y           -0.03982   0.00433   0.99920
           Z            0.87650   0.48028   0.03285
 This molecule is an asymmetric top.
 Rotational symmetry number  1.
 Warning -- assumption of classical behavior for rotation
           may cause significant error
 Rotational temperatures (Kelvin)      0.06778     0.03599     0.03563
 Rotational constants (GHZ):           1.41239     0.74986     0.74241
 Zero-point vibrational energy     127054.2 (Joules/Mol)
                                   30.36668 (Kcal/Mol)
 Warning -- explicit consideration of  18 degrees of freedom as
           vibrations may cause significant error
 Vibrational temperatures:     60.85    87.86   134.37   209.35   262.26
          (Kelvin)            276.22   362.46   408.18   450.57   468.43
                              495.12   541.51   626.50   674.02   692.95
                              774.40   842.09   860.78   964.14  1083.05
                             1253.28  1427.70  1526.54  1569.17  1669.25
                             1715.88  1815.55  1937.47  1974.97  5397.27

 Zero-point correction=                           0.048392 (Hartree/Particle)
 Thermal correction to Energy=                    0.059596
 Thermal correction to Enthalpy=                  0.060540
 Thermal correction to Gibbs Free Energy=         0.010358
 Sum of electronic and zero-point Energies=          -1199.559108
 Sum of electronic and thermal Energies=             -1199.547904
 Sum of electronic and thermal Enthalpies=           -1199.546960
 Sum of electronic and thermal Free Energies=        -1199.597142

                     E (Thermal)             CV                S
                      KCal/Mol        Cal/Mol-Kelvin    Cal/Mol-Kelvin
 Total                   37.397             38.605            105.617
 Electronic               0.000              0.000              0.000
 Translational            0.889              2.981             41.783
 Rotational               0.889              2.981             30.392
 Vibrational             35.620             32.643             33.441
 Vibration     1          0.595              1.980              5.149
 Vibration     2          0.597              1.973              4.422
 Vibration     3          0.602              1.954              3.588
 Vibration     4          0.617              1.908              2.730
 Vibration     5          0.630              1.864              2.305
 Vibration     6          0.634              1.851              2.209
 Vibration     7          0.664              1.760              1.717
 Vibration     8          0.682              1.704              1.511
 Vibration     9          0.701              1.649              1.346
 Vibration    10          0.710              1.624              1.282
 Vibration    11          0.723              1.587              1.193
 Vibration    12          0.747              1.520              1.054
 Vibration    13          0.796              1.393              0.841
 Vibration    14          0.826              1.320              0.742
 Vibration    15          0.838              1.291              0.706
 Vibration    16          0.893              1.165              0.569
 Vibration    17          0.942              1.063              0.476
 Vibration    18          0.956              1.035              0.453

 Optimization completed.
    -- Stationary point found.
 Normal termination of Gaussian 16 at Fri May 23 05:22:30 2025.
