 Gaussian 16, Revision C.01,
 Gaussian 16:  ES64L-G16RevC.01  3-Jul-2019

 ----------------------------------------------------------------------
 #P wb97xd/6-311++G(d,p) Symm(None) scf(xqc) pop(None) opt(NoFreeze,TS,
 CalcAll,NoEigentest,MaxCycle=999)
 ----------------------------------------------------------------------

 ------------------------------
 Gaussian input prepared by ASE
 ------------------------------
 Symbolic Z-matrix:
 Charge =  0 Multiplicity = 1

 SCF Done:  E(RwB97XD) =  -1199.58618850     A.U. after   20 cycles
 SCF Done:  E(RwB97XD) =  -1199.61667938     A.U. after   18 cycles
 SCF Done:  E(RwB97XD) =  -1199.64402306     A.U. after   17 cycles
 SCF Done:  E(RwB97XD) =  -1199.65772052     A.U. after   16 cycles
 SCF Done:  E(RwB97XD) =  -1199.66238053     A.U. after   16 cycles
 SCF Done:  E(RwB97XD) =  -1199.66344255     A.U. after   16 cycles
 SCF Done:  E(RwB97XD) =  -1199.66363651     A.U. after   15 cycles
 SCF Done:  E(RwB97XD) =  -1199.66366910     A.U. after   14 cycles
 SCF Done:  E(RwB97XD) =  -1199.66367201     A.U. after   13 cycles
 SCF Done:  E(RwB97XD) =  -1199.66367204     A.U. after   10 cycles

 Isotropic polarizability for W=    0.000000       72.63 Bohr**3.
 End of Minotr F.D. properties file   721 does not exist.

 Optimization completed.
    -- Stationary point found.

                          Input orientation:
 ---------------------------------------------------------------------
 Center     Atomic      Atomic             Coordinates (Angstroms)
 Number     Number       Type             X           Y           Z
 ---------------------------------------------------------------------
      1          6           0       -0.257676   -1.202807    0.250398
      2          6           0        0.152164    0.124174    0.095324
      3          9           0       -0.112278    0.708402   -1.055223
      4          9           0       -0.019061    0.924386    1.138522
      5         16           0        2.523804   -0.244370   -0.019365
      6          8           0        3.375494   -0.326166    1.139759
      7          8           0        2.767455   -0.610217   -1.381187
      8          8           0        2.325323    1.396531   -0.148137
      9          9           0       -0.544599   -1.698924    1.389184
     10          9           0        1.720865   -1.892686    0.414738
     11          9           0       -0.513993   -1.941892   -0.754283
     12          1           0        2.544331    1.789196    0.706620
 ---------------------------------------------------------------------

 ******    1 imaginary frequencies (negative Signs) ******

                      1                      2                      3
                      A                      A                      A
 Frequencies --   -575.2220                31.6060                61.8965
 Red. masses --     12.7027                15.1540                12.1443
 Frc consts  --      2.4764                 0.0089                 0.0274
 IR Inten    --    194.5579                 1.8222                 2.7108

                      4                      5                      6
                      A                      A                      A
 Frequencies --    160.0146               169.9615               202.9451
 Red. masses --     18.7475                17.0768                17.4290
 Frc consts  --      0.2828                 0.2906                 0.4229
 IR Inten    --     18.4613                 9.8931                 0.1761

                      7                      8                      9
                      A                      A                      A
 Frequencies --    210.9963               240.2355               274.1545
 Red. masses --     17.3718                15.4417                10.7152
 Frc consts  --      0.4557                 0.5251                 0.4745
 IR Inten    --      1.9308                 3.2544                 8.4830

                     10                     11                     12
                      A                      A                      A
 Frequencies --    317.6886               366.1111               388.4950
 Red. masses --      7.2168                 1.8312                14.4054
 Frc consts  --      0.4291                 0.1446                 1.2810
 IR Inten    --      8.3386                28.8120                18.0128

                     13                     14                     15
                      A                      A                      A
 Frequencies --    406.8506               443.4078               480.4329
 Red. masses --     15.6279                 5.6315                 3.8968
 Frc consts  --      1.5241                 0.6524                 0.5299
 IR Inten    --     26.2523               232.5454                 3.5424

                     16                     17                     18
                      A                      A                      A
 Frequencies --    512.2219               548.3485               560.2467
 Red. masses --     10.8929                16.7550                14.4178
 Frc consts  --      1.6839                 2.9683                 2.6663
 IR Inten    --    237.4391                 1.3577               139.6322

                     19                     20                     21
                      A                      A                      A
 Frequencies --    594.5294               646.0573               718.1714
 Red. masses --     16.5678                13.2702                16.7469
 Frc consts  --      3.4503                 3.2634                 5.0891
 IR Inten    --      4.1819                 8.7458               183.3088

                     22                     23                     24
                      A                      A                      A
 Frequencies --    813.0070              1117.1700              1148.9331
 Red. masses --     17.7483                 9.6971                 1.2712
 Frc consts  --      6.9119                 7.1307                 0.9887
 IR Inten    --     59.3207               228.2120               101.0637

                     25                     26                     27
                      A                      A                      A
 Frequencies --   1209.8247              1306.0826              1424.4975
 Red. masses --     13.7635                13.1125                12.4736
 Frc consts  --     11.8693                13.1788                14.9130
 IR Inten    --    321.7315               155.7314               186.3796

                     28                     29                     30
                      A                      A                      A
 Frequencies --   1478.7846              1606.1227              3836.8188
 Red. masses --     13.2370                12.4014                 1.0664
 Frc consts  --     17.0549                18.8486                 9.2491
 IR Inten    --    341.9790               812.9626               165.9990

 - Thermochemistry -
 -------------------
 Temperature   298.150 Kelvin.  Pressure   1.00000 Atm.
 Atom     1 has atomic number  6 and mass  12.00000

 Molecular mass:   199.95666 amu.
 Principal axes and moments of inertia in atomic units:
                           1         2         3
     Eigenvalues --  1312.249642074.313492352.03765
           X            0.93924  -0.34092   0.04008
           Y            0.33361   0.93406   0.12743
           Z           -0.08088  -0.10632   0.99104
 This molecule is an asymmetric top.
 Rotational symmetry number  1.
 Warning -- assumption of classical behavior for rotation
           may cause significant error
 Rotational temperatures (Kelvin)      0.06600     0.04176     0.03683
 Rotational constants (GHZ):           1.37530     0.87004     0.76731
    1 imaginary frequencies ignored.
 Zero-point vibrational energy     127256.4 (Joules/Mol)
                                   30.41501 (Kcal/Mol)
 Warning -- explicit consideration of  18 degrees of freedom as
           vibrations may cause significant error
 Vibrational temperatures:     45.47    89.06   230.23   244.54   291.99
          (Kelvin)            303.58   345.65   394.45   457.08   526.75
                              558.96   585.37   637.96   691.24   736.97
                              788.95   806.07   855.40   929.53  1033.29
                             1169.74  1607.36  1653.06  1740.67  1879.16
                             2049.53  2127.64  2310.85  5520.33

 Zero-point correction=                           0.048469 (Hartree/Particle)
 Thermal correction to Energy=                    0.059304
 Thermal correction to Enthalpy=                  0.060249
 Thermal correction to Gibbs Free Energy=         0.010950
 Sum of electronic and zero-point Energies=          -1199.615203
 Sum of electronic and thermal Energies=             -1199.604368
 Sum of electronic and thermal Enthalpies=           -1199.603423
 Sum of electronic and thermal Free Energies=        -1199.652722

                     E (Thermal)             CV                S
                      KCal/Mol        Cal/Mol-Kelvin    Cal/Mol-Kelvin
 Total                   37.214             37.615            103.758
 Electronic               0.000              0.000              0.000
 Translational            0.889              2.981             41.783
 Rotational               0.889              2.981             30.238
 Vibrational             35.437             31.654             31.736
 Vibration     1          0.594              1.983              5.726
 Vibration     2          0.597              1.972              4.396
 Vibration     3          0.622              1.891              2.550
 Vibration     4          0.625              1.879              2.436
 Vibration     5          0.639              1.836              2.106
 Vibration     6          0.643              1.824              2.035
 Vibration     7          0.657              1.779              1.801
 Vibration     8          0.676              1.721              1.570
 Vibration     9          0.704              1.640              1.322
 Vibration    10          0.739              1.542              1.096
 Vibration    11          0.757              1.495              1.006
 Vibration    12          0.772              1.455              0.938
 Vibration    13          0.803              1.375              0.816
 Vibration    14          0.837              1.293              0.709
 Vibration    15          0.867              1.223              0.628
 Vibration    16          0.904              1.143              0.548
 Vibration    17          0.916              1.117              0.523
 Vibration    18          0.952              1.043              0.459

 Normal termination of Gaussian 16 at Fri May 23 05:07:38 2025.
