 Gaussian 16, Revision C.01,
 Gaussian 16:  ES64L-G16RevC.01  3-Jul-2019

 ------------------------------------------
 #P am1 Symm(None) scf(xqc) pop(None) force
 ------------------------------------------

 ------------------------------
 Gaussian input prepared by ASE
 ------------------------------
 Symbolic Z-matrix:
 Charge =  0 Multiplicity = 1

                          Input orientation:
 ---------------------------------------------------------------------
 Center     Atomic      Atomic             Coordinates (Angstroms)
 Number     Number       Type             X           Y           Z
 ---------------------------------------------------------------------
      1          6           0        1.865903   -0.065241   -0.154197
      2          6           0        2.365393    1.218824    0.170386
      3          9           0        3.005733    1.357682    1.323035
      4          9           0        3.108477    1.836332   -0.733242
      5         16           0        0.460406    2.493382    0.383615
      6          8           0        0.670530    2.498405    1.807607
      7          8           0        0.939666    3.275933   -0.724487
      8          8           0       -1.133292    2.675763    0.268761
      9          9           0        0.014678    0.621486   -0.076741
     10          9           0        1.675407   -0.497040   -1.342338
     11          9           0        1.581162   -0.976632    0.692770
     12          1           0       -1.731143    2.220671    0.876114
 ---------------------------------------------------------------------

 SCF Done:  E(RAM1) =  0.382798406036     A.U. after   17 cycles
 Normal termination of Gaussian 16 at Fri May 23 04:57:57 2025.
