 Gaussian 16, Revision C.01,
 Gaussian 16:  ES64L-G16RevC.01  3-Jul-2019

 ------------------------------------------
 #P am1 Symm(None) scf(xqc) pop(None) force
 ------------------------------------------

 ------------------------------
 Gaussian input prepared by ASE
 ------------------------------
 Symbolic Z-matrix:
 Charge =  0 Multiplicity = 1

                          Input orientation:
 ---------------------------------------------------------------------
 Center     Atomic      Atomic             Coordinates (Angstroms)
 Number     Number       Type             X           Y           Z
 ---------------------------------------------------------------------
      1          6           0        1.877541   -0.049025   -0.204862
      2          6           0        2.362800    1.206613    0.232818
      3          9           0        2.931073    1.258019    1.429622
      4          9           0        3.161755    1.882243   -0.576642
      5         16           0        0.449495    2.482614    0.332939
      6          8           0        0.712340    2.696028    1.731973
      7          8           0        0.874716    3.094876   -0.897625
      8          8           0       -1.149972    2.635519    0.264722
      9          9           0        0.022081    0.567192    0.081800
     10          9           0        1.642206   -0.354096   -1.423865
     11          9           0        1.650699   -1.054657    0.547674
     12          1           0       -1.711815    2.294237    0.972728
 ---------------------------------------------------------------------

 SCF Done:  E(RAM1) =  0.357007244419     A.U. after   17 cycles
 Normal termination of Gaussian 16 at Fri May 23 04:58:34 2025.
