 Gaussian 16, Revision C.01,
 Gaussian 16:  ES64L-G16RevC.01  3-Jul-2019

 ----------------------------------------------------------------------
 #P wb97xd/6-311++G(d,p) Symm(None) scf(xqc) pop(None) freq opt(CalcFC,
  Tight)
 ----------------------------------------------------------------------

 ------------------------------
 Gaussian input prepared by ASE
 ------------------------------
 Symbolic Z-matrix:
 Charge =  0 Multiplicity = 1

 SCF Done:  E(RwB97XD) =  -1199.57958895     A.U. after   18 cycles
 SCF Done:  E(RwB97XD) =  -1199.58924065     A.U. after   20 cycles
 SCF Done:  E(RwB97XD) =  -1199.57983549     A.U. after   17 cycles
 SCF Done:  E(RwB97XD) =  -1199.59020477     A.U. after   19 cycles
 SCF Done:  E(RwB97XD) =  -1199.59221399     A.U. after   19 cycles
 SCF Done:  E(RwB97XD) =  -1199.59363254     A.U. after   19 cycles
 SCF Done:  E(RwB97XD) =  -1199.59439652     A.U. after   19 cycles
 SCF Done:  E(RwB97XD) =  -1199.59517272     A.U. after   18 cycles
 SCF Done:  E(RwB97XD) =  -1199.59588793     A.U. after   19 cycles
 SCF Done:  E(RwB97XD) =  -1199.59666171     A.U. after   19 cycles
 SCF Done:  E(RwB97XD) =  -1199.59997748     A.U. after   18 cycles
 SCF Done:  E(RwB97XD) =  -1199.60001197     A.U. after   17 cycles
 SCF Done:  E(RwB97XD) =  -1199.60001782     A.U. after   13 cycles
 SCF Done:  E(RwB97XD) =  -1199.60001924     A.U. after   12 cycles
 SCF Done:  E(RwB97XD) =  -1199.60001960     A.U. after   11 cycles
 SCF Done:  E(RwB97XD) =  -1199.60001965     A.U. after   11 cycles
 SCF Done:  E(RwB97XD) =  -1199.60001966     A.U. after    8 cycles
 SCF Done:  E(RwB97XD) =  -1199.60001966     A.U. after    9 cycles
 SCF Done:  E(RwB97XD) =  -1199.60001966     A.U. after    8 cycles
 Optimization completed.
    -- Stationary point found.
 Normal termination of Gaussian 16 at Fri May 23 07:38:52 2025.

 ----------------------------------------------------------------------
 #P Geom=AllCheck Guess=TCheck SCRF=Check GenChk RwB97XD/6-311++G(d,p)
 Freq
 ----------------------------------------------------------------------

 Structure from the checkpoint file:  "/tmp/Gau-229290.chk"
 ------------------------------
 Gaussian input prepared by ASE
 ------------------------------
 Charge =  0 Multiplicity = 1

                          Input orientation:
 ---------------------------------------------------------------------
 Center     Atomic      Atomic             Coordinates (Angstroms)
 Number     Number       Type             X           Y           Z
 ---------------------------------------------------------------------
      1          6           0       -0.817916    0.811338    0.862902
      2          6           0        0.079751   -0.070752   -0.058064
      3          9           0       -0.232150   -1.345459    0.067807
      4          9           0       -0.069130    0.292063   -1.383618
      5         16           0        1.953127    0.047600    0.307939
      6          8           0       -1.678007    0.184285   -1.889242
      7          8           0        2.588130   -0.676583   -0.784654
      8          8           0        1.899132    1.668561   -0.025149
      9          9           0       -0.210171    0.860809    2.063637
     10          9           0       -0.934226    2.036878    0.396879
     11          9           0       -2.009904    0.275120    1.034015
     12          1           0        2.652624    2.106360    0.385515
 ---------------------------------------------------------------------

 SCF Done:  E(RwB97XD) =  -1199.60001966     A.U. after    1 cycles

 Isotropic polarizability for W=    0.000000       63.31 Bohr**3.
 End of Minotr F.D. properties file   721 does not exist.

                      1                      2                      3
                      A                      A                      A
 Frequencies --     61.1153                73.8726                94.7011
 Red. masses --      9.0091                16.9357                15.9158
 Frc consts  --      0.0198                 0.0545                 0.0841
 IR Inten    --      4.1533                 0.9937                 1.0688

                      4                      5                      6
                      A                      A                      A
 Frequencies --    137.8669               148.4814               195.0854
 Red. masses --     11.6551                12.6766                10.8739
 Frc consts  --      0.1305                 0.1647                 0.2438
 IR Inten    --      4.8837                 2.1959                 3.6606

                      7                      8                      9
                      A                      A                      A
 Frequencies --    217.9624               231.8206               257.3783
 Red. masses --      3.1421                 9.6282                 2.5646
 Frc consts  --      0.0879                 0.3049                 0.1001
 IR Inten    --     45.6602                15.0928                46.7686

                     10                     11                     12
                      A                      A                      A
 Frequencies --    273.8979               329.9814               363.9436
 Red. masses --      7.2669                 6.9832                13.4601
 Frc consts  --      0.3212                 0.4480                 1.0504
 IR Inten    --      5.7840                 5.9671                 0.8681

                     13                     14                     15
                      A                      A                      A
 Frequencies --    401.4845               421.5543               458.6837
 Red. masses --     15.6857                16.8218                15.3784
 Frc consts  --      1.4897                 1.7613                 1.9063
 IR Inten    --     13.9877                 4.5333                18.3771

                     16                     17                     18
                      A                      A                      A
 Frequencies --    534.7241               546.1288               593.6470
 Red. masses --     14.4616                17.9762                17.3604
 Frc consts  --      2.4363                 3.1589                 3.6047
 IR Inten    --     92.3670                 6.5897                 9.4909

                     19                     20                     21
                      A                      A                      A
 Frequencies --    636.4930               747.9584               760.8970
 Red. masses --     16.8722                15.7492                17.2251
 Frc consts  --      4.0273                 5.1911                 5.8758
 IR Inten    --     20.6405               109.0152                30.4279

                     22                     23                     24
                      A                      A                      A
 Frequencies --    967.1095              1035.6218              1106.0730
 Red. masses --     10.3938                 6.4275                 1.3060
 Frc consts  --      5.7276                 4.0616                 0.9414
 IR Inten    --     77.5171               220.3854               123.8811

                     25                     26                     27
                      A                      A                      A
 Frequencies --   1175.6289              1228.4054              1249.4619
 Red. masses --     10.2428                14.1097                16.5994
 Frc consts  --      8.3408                12.5444                15.2683
 IR Inten    --    144.2501               112.9291               311.8473

                     28                     29                     30
                      A                      A                      A
 Frequencies --   1282.7131              1345.9531              3869.3838
 Red. masses --     13.1549                12.7783                 1.0673
 Frc consts  --     12.7525                13.6390                 9.4152
 IR Inten    --    279.8516               129.3870               174.2100

 - Thermochemistry -
 -------------------
 Temperature   298.150 Kelvin.  Pressure   1.00000 Atm.
 Atom     1 has atomic number  6 and mass  12.00000

 Molecular mass:   199.95666 amu.
 Principal axes and moments of inertia in atomic units:
                           1         2         3
     Eigenvalues --  1345.834522083.359202453.98204
           X            0.97444   0.21501   0.06515
           Y           -0.16483   0.48714   0.85763
           Z           -0.15266   0.84644  -0.51013
 This molecule is an asymmetric top.
 Rotational symmetry number  1.
 Warning -- assumption of classical behavior for rotation
           may cause significant error
 Rotational temperatures (Kelvin)      0.06436     0.04157     0.03530
 Rotational constants (GHZ):           1.34098     0.86627     0.73543
 Zero-point vibrational energy     124100.8 (Joules/Mol)
                                   29.66079 (Kcal/Mol)
 Warning -- explicit consideration of  18 degrees of freedom as
           vibrations may cause significant error
 Vibrational temperatures:     87.93   106.29   136.25   198.36   213.63
          (Kelvin)            280.68   313.60   333.54   370.31   394.08
                              474.77   523.63   577.65   606.52   659.94
                              769.35   785.76   854.13   915.77  1076.15
                             1094.76  1391.45  1490.03  1591.39  1691.47
                             1767.40  1797.70  1845.54  1936.53  5567.18

 Zero-point correction=                           0.047267 (Hartree/Particle)
 Thermal correction to Energy=                    0.058929
 Thermal correction to Enthalpy=                  0.059873
 Thermal correction to Gibbs Free Energy=         0.009134
 Sum of electronic and zero-point Energies=          -1199.552752
 Sum of electronic and thermal Energies=             -1199.541091
 Sum of electronic and thermal Enthalpies=           -1199.540146
 Sum of electronic and thermal Free Energies=        -1199.590886

                     E (Thermal)             CV                S
                      KCal/Mol        Cal/Mol-Kelvin    Cal/Mol-Kelvin
 Total                   36.979             39.668            106.790
 Electronic               0.000              0.000              0.000
 Translational            0.889              2.981             41.783
 Rotational               0.889              2.981             30.310
 Vibrational             35.201             33.707             34.697
 Vibration     1          0.597              1.973              4.421
 Vibration     2          0.599              1.966              4.047
 Vibration     3          0.603              1.953              3.561
 Vibration     4          0.614              1.915              2.833
 Vibration     5          0.618              1.904              2.692
 Vibration     6          0.636              1.847              2.179
 Vibration     7          0.646              1.814              1.976
 Vibration     8          0.653              1.792              1.865
 Vibration     9          0.667              1.750              1.679
 Vibration    10          0.676              1.722              1.571
 Vibration    11          0.713              1.616              1.260
 Vibration    12          0.737              1.546              1.105
 Vibration    13          0.767              1.467              0.957
 Vibration    14          0.784              1.423              0.887
 Vibration    15          0.817              1.342              0.770
 Vibration    16          0.890              1.173              0.577
 Vibration    17          0.901              1.148              0.552
 Vibration    18          0.951              1.045              0.461

 Optimization completed.
    -- Stationary point found.
 Normal termination of Gaussian 16 at Fri May 23 07:40:18 2025.
