 Gaussian 16, Revision C.01,
 Gaussian 16:  ES64L-G16RevC.01  3-Jul-2019

 ----------------------------------------------------------------------
 #P wb97xd/6-311++G(d,p) Symm(None) scf(xqc) pop(None) freq opt(CalcFC,
  Tight)
 ----------------------------------------------------------------------

 ------------------------------
 Gaussian input prepared by ASE
 ------------------------------
 Symbolic Z-matrix:
 Charge =  0 Multiplicity = 1

 SCF Done:  E(RwB97XD) =  -1199.73407846     A.U. after   16 cycles
 SCF Done:  E(RwB97XD) =  -1199.73607861     A.U. after   13 cycles
 SCF Done:  E(RwB97XD) =  -1199.73619222     A.U. after   12 cycles
 SCF Done:  E(RwB97XD) =  -1199.73619419     A.U. after   11 cycles
 SCF Done:  E(RwB97XD) =  -1199.73619473     A.U. after   11 cycles
 SCF Done:  E(RwB97XD) =  -1199.73619480     A.U. after    9 cycles
 SCF Done:  E(RwB97XD) =  -1199.73619481     A.U. after    7 cycles
 Optimization completed.
    -- Stationary point found.
 Normal termination of Gaussian 16 at Fri May 23 05:25:18 2025.

 ----------------------------------------------------------------------
 #P Geom=AllCheck Guess=TCheck SCRF=Check GenChk RwB97XD/6-311++G(d,p)
 Freq
 ----------------------------------------------------------------------

 Structure from the checkpoint file:  "/tmp/Gau-262122.chk"
 ------------------------------
 Gaussian input prepared by ASE
 ------------------------------
 Charge =  0 Multiplicity = 1

                          Input orientation:
 ---------------------------------------------------------------------
 Center     Atomic      Atomic             Coordinates (Angstroms)
 Number     Number       Type             X           Y           Z
 ---------------------------------------------------------------------
      1          6           0        3.165023    4.216507    2.154899
      2          6           0        2.590216    3.373350    0.986444
      3          9           0        1.668269    4.085496    0.344141
      4          9           0        3.588862    3.059568    0.153912
      5         16           0        1.860290    1.724475    1.633684
      6          8           0        0.996775    0.082945   -0.042515
      7          8           0        0.748180    2.074752    2.513740
      8          8           0        1.297558    1.468939    0.053683
      9          9           0        2.194960    4.703560    2.911228
     10          9           0        3.955171    3.443264    2.906111
     11          9           0        3.885986    5.223462    1.675128
     12          1           0        0.031980    0.102177   -0.078820
 ---------------------------------------------------------------------

 SCF Done:  E(RwB97XD) =  -1199.73619481     A.U. after    1 cycles

 Isotropic polarizability for W=    0.000000       61.07 Bohr**3.
 End of Minotr F.D. properties file   721 does not exist.

                      1                      2                      3
                      A                      A                      A
 Frequencies --     34.0245                55.2531                77.2327
 Red. masses --     14.0697                12.3902                11.3925
 Frc consts  --      0.0096                 0.0223                 0.0400
 IR Inten    --      0.4604                 1.1485                 4.9683

                      4                      5                      6
                      A                      A                      A
 Frequencies --    116.0265               184.0102               198.8423
 Red. masses --     12.0951                10.0231                14.9606
 Frc consts  --      0.0959                 0.2000                 0.3485
 IR Inten    --      0.7856                 0.9019                 8.7278

                      7                      8                      9
                      A                      A                      A
 Frequencies --    225.5577               274.7655               296.5104
 Red. masses --     18.3304                17.2843                 5.7582
 Frc consts  --      0.5495                 0.7688                 0.2983
 IR Inten    --      1.5873                 1.2713                 8.9449

                     10                     11                     12
                      A                      A                      A
 Frequencies --    312.3066               338.3473               369.7901
 Red. masses --     15.4929                 1.5291                18.1081
 Frc consts  --      0.8903                 0.1031                 1.4589
 IR Inten    --      3.7023               111.9285                 0.2653

                     13                     14                     15
                      A                      A                      A
 Frequencies --    414.9649               450.6402               512.5293
 Red. masses --     13.3063                 6.2522                18.6961
 Frc consts  --      1.3500                 0.7481                 2.8936
 IR Inten    --     12.0184                23.0960                34.8847

                     16                     17                     18
                      A                      A                      A
 Frequencies --    552.4876               601.6650               629.3768
 Red. masses --     18.5804                18.0154                16.6459
 Frc consts  --      3.3416                 3.8424                 3.8849
 IR Inten    --      6.6449                 7.9668                43.0836

                     19                     20                     21
                      A                      A                      A
 Frequencies --    707.6884               759.7353               961.6818
 Red. masses --     17.1770                17.2482                13.6578
 Frc consts  --      5.0685                 5.8657                 7.4421
 IR Inten    --     58.8637                21.5195               106.3165

                     22                     23                     24
                      A                      A                      A
 Frequencies --   1001.3212              1157.8157              1215.0740
 Red. masses --     14.6962                13.5762                14.9905
 Frc consts  --      8.6816                10.7228                13.0399
 IR Inten    --     19.4418               194.5312                23.2991

                     25                     26                     27
                      A                      A                      A
 Frequencies --   1225.3517              1231.2783              1261.6472
 Red. masses --     13.2927                14.4678                14.0017
 Frc consts  --     11.7594                12.9231                13.1312
 IR Inten    --    278.3108                72.2974               465.6979

                     28                     29                     30
                      A                      A                      A
 Frequencies --   1349.1173              1430.6777              3824.0224
 Red. masses --     12.2710                 1.1129                 1.0686
 Frc consts  --     13.1592                 1.3421                 9.2070
 IR Inten    --    138.2681                61.8227                88.0284

 - Thermochemistry -
 -------------------
 Temperature   298.150 Kelvin.  Pressure   1.00000 Atm.
 Atom     1 has atomic number  6 and mass  12.00000

 Molecular mass:   199.95666 amu.
 Principal axes and moments of inertia in atomic units:
                           1         2         3
     Eigenvalues --  1011.057262632.493232911.53656
           X            0.49068  -0.38129   0.78348
           Y            0.79643  -0.16847  -0.58078
           Z            0.35344   0.90898   0.22101
 This molecule is an asymmetric top.
 Rotational symmetry number  1.
 Warning -- assumption of classical behavior for rotation
           may cause significant error
 Rotational temperatures (Kelvin)      0.08567     0.03290     0.02975
 Rotational constants (GHZ):           1.78500     0.68556     0.61986
 Zero-point vibrational energy     130212.0 (Joules/Mol)
                                   31.12141 (Kcal/Mol)
 Warning -- explicit consideration of  17 degrees of freedom as
           vibrations may cause significant error
 Vibrational temperatures:     48.95    79.50   111.12   166.94   264.75
          (Kelvin)            286.09   324.53   395.33   426.61   449.34
                              486.81   532.05   597.04   648.37   737.42
                              794.91   865.66   905.53  1018.21  1093.09
                             1383.65  1440.68  1665.84  1748.22  1763.01
                             1771.53  1815.23  1941.08  2058.43  5501.92

 Zero-point correction=                           0.049595 (Hartree/Particle)
 Thermal correction to Energy=                    0.060910
 Thermal correction to Enthalpy=                  0.061854
 Thermal correction to Gibbs Free Energy=         0.010907
 Sum of electronic and zero-point Energies=          -1199.686600
 Sum of electronic and thermal Energies=             -1199.675285
 Sum of electronic and thermal Enthalpies=           -1199.674341
 Sum of electronic and thermal Free Energies=        -1199.725288

                     E (Thermal)             CV                S
                      KCal/Mol        Cal/Mol-Kelvin    Cal/Mol-Kelvin
 Total                   38.222             38.184            107.227
 Electronic               0.000              0.000              0.000
 Translational            0.889              2.981             41.783
 Rotational               0.889              2.981             30.428
 Vibrational             36.444             32.223             35.015
 Vibration     1          0.594              1.983              5.580
 Vibration     2          0.596              1.975              4.620
 Vibration     3          0.599              1.964              3.960
 Vibration     4          0.608              1.936              3.166
 Vibration     5          0.631              1.862              2.287
 Vibration     6          0.637              1.842              2.144
 Vibration     7          0.650              1.802              1.914
 Vibration     8          0.677              1.720              1.566
 Vibration     9          0.690              1.680              1.437
 Vibration    10          0.701              1.650              1.350
 Vibration    11          0.719              1.599              1.220
 Vibration    12          0.742              1.534              1.081
 Vibration    13          0.778              1.438              0.909
 Vibration    14          0.809              1.359              0.794
 Vibration    15          0.868              1.222              0.628
 Vibration    16          0.908              1.134              0.539
 Vibration    17          0.960              1.028              0.447

 Optimization completed.
    -- Stationary point found.
 Normal termination of Gaussian 16 at Fri May 23 05:26:41 2025.
