 Gaussian 16, Revision C.01,
 Gaussian 16:  ES64L-G16RevC.01  3-Jul-2019

 ------------------------------------------
 #P am1 Symm(None) scf(xqc) pop(None) force
 ------------------------------------------

 ------------------------------
 Gaussian input prepared by ASE
 ------------------------------
 Symbolic Z-matrix:
 Charge =  0 Multiplicity = 1

                          Input orientation:
 ---------------------------------------------------------------------
 Center     Atomic      Atomic             Coordinates (Angstroms)
 Number     Number       Type             X           Y           Z
 ---------------------------------------------------------------------
      1          6           0        1.871855   -0.792640   -1.158841
      2          6           0        1.878100    0.013161    0.109505
      3          9           0       -0.834415    0.755317    0.061901
      4          9           0        2.019718   -0.701989    1.222919
      5         16           0        1.800599    1.673378    0.203433
      6          8           0        0.299530    2.037887    0.174404
      7          8           0        2.479624    2.413051    1.213603
      8          8           0        2.187067    2.276038   -1.192706
      9          9           0        1.676629   -0.044826   -2.251627
     10          9           0        3.007420   -1.459060   -1.399044
     11          9           0        0.913671   -1.717039   -1.205552
     12          1           0        1.626952    2.179443   -1.980357
 ---------------------------------------------------------------------

 SCF Done:  E(RAM1) =  0.615561860504     A.U. after   33 cycles
 SCF Done:  E(RAM1) =  0.615561860501     a.u. after    1 cycles
 Normal termination of Gaussian 16 at Fri May 23 05:16:39 2025.
