 Gaussian 16, Revision C.01,
 Gaussian 16:  ES64L-G16RevC.01  3-Jul-2019

 ----------------------------------------------------------------------
 #P wb97xd/6-311++G(d,p) Symm(None) scf(xqc) pop(None) opt(NoFreeze,TS,
 CalcAll,NoEigentest,MaxCycle=999)
 ----------------------------------------------------------------------

 ------------------------------
 Gaussian input prepared by ASE
 ------------------------------
 Symbolic Z-matrix:
 Charge =  0 Multiplicity = 1

 SCF Done:  E(RwB97XD) =  -1199.57404794     A.U. after   28 cycles
 SCF Done:  E(RwB97XD) =  -1199.58778564     A.U. after   25 cycles
 SCF Done:  E(RwB97XD) =  -1199.58929305     A.U. after   29 cycles
 SCF Done:  E(RwB97XD) =  -1199.59082573     A.U. after   23 cycles
 SCF Done:  E(RwB97XD) =  -1199.59103079     A.U. after   22 cycles
 SCF Done:  E(RwB97XD) =  -1199.59103330     A.U. after   20 cycles
 SCF Done:  E(RwB97XD) =  -1199.59103333     A.U. after   14 cycles

 Isotropic polarizability for W=    0.000000       72.31 Bohr**3.
 End of Minotr F.D. properties file   721 does not exist.

 Optimization completed.
    -- Stationary point found.

                          Input orientation:
 ---------------------------------------------------------------------
 Center     Atomic      Atomic             Coordinates (Angstroms)
 Number     Number       Type             X           Y           Z
 ---------------------------------------------------------------------
      1          6           0       -0.565592   -1.363747   -0.299802
      2          6           0       -0.004785    0.043002    0.007073
      3          9           0       -0.505778    0.933559   -0.852190
      4          9           0       -0.337427    0.393187    1.259205
      5         16           0        1.908340    0.124320    0.017756
      6          8           0        1.363365    0.512554    2.664534
      7          8           0        2.358775   -0.505991   -1.222123
      8          8           0        1.970369    1.741125   -0.121225
      9          9           0       -0.412566   -1.650843   -1.582783
     10          9           0        0.086197   -2.263115    0.435090
     11          9           0       -1.858527   -1.417849    0.003155
     12          1           0        1.718188    2.024545   -1.013017
 ---------------------------------------------------------------------

 ******    1 imaginary frequencies (negative Signs) ******

                      1                      2                      3
                      A                      A                      A
 Frequencies --   -367.1328                38.7446                59.4359
 Red. masses --     17.0576                15.7498                17.9667
 Frc consts  --      1.3546                 0.0139                 0.0374
 IR Inten    --     82.3857                 0.5504                 0.0610

                      4                      5                      6
                      A                      A                      A
 Frequencies --     81.1008               128.0820               175.0680
 Red. masses --     10.7626                15.7653                12.4663
 Frc consts  --      0.0417                 0.1524                 0.2251
 IR Inten    --      1.6857                 0.4414                 8.7852

                      7                      8                      9
                      A                      A                      A
 Frequencies --    210.0840               226.2489               241.5627
 Red. masses --     12.9595                15.6329                 5.8926
 Frc consts  --      0.3370                 0.4715                 0.2026
 IR Inten    --      2.8360                 4.8969                 9.5671

                     10                     11                     12
                      A                      A                      A
 Frequencies --    280.4637               329.3359               356.4421
 Red. masses --     15.2435                15.0633                 2.0582
 Frc consts  --      0.7065                 0.9626                 0.1541
 IR Inten    --      0.4858                 3.1218                33.0693

                     13                     14                     15
                      A                      A                      A
 Frequencies --    375.1530               410.4658               478.3875
 Red. masses --     14.4389                14.8764                 2.5673
 Frc consts  --      1.1973                 1.4767                 0.3462
 IR Inten    --      2.9670                21.6771               132.0979

                     16                     17                     18
                      A                      A                      A
 Frequencies --    515.8573               544.6749               603.1036
 Red. masses --     12.3462                18.0887                16.7567
 Frc consts  --      1.9357                 3.1618                 3.5910
 IR Inten    --     32.2135                 4.9749                 9.3295

                     19                     20                     21
                      A                      A                      A
 Frequencies --    631.6876               758.7986               778.4878
 Red. masses --     17.1746                17.0709                16.3546
 Frc consts  --      4.0378                 5.7911                 5.8397
 IR Inten    --     14.2236                48.8665               173.1548

                     22                     23                     24
                      A                      A                      A
 Frequencies --    961.0852              1108.8780              1119.9553
 Red. masses --     13.4952                 4.1008                 1.6663
 Frc consts  --      7.3443                 2.9709                 1.2314
 IR Inten    --     82.7654                20.9153                97.3722

                     25                     26                     27
                      A                      A                      A
 Frequencies --   1201.8354              1220.8794              1238.0110
 Red. masses --     12.6502                 8.2963                12.4444
 Frc consts  --     10.7656                 7.2859                11.2376
 IR Inten    --    141.7565                55.1546               224.1510

                     28                     29                     30
                      A                      A                      A
 Frequencies --   1258.3277              1347.2202              3779.1572
 Red. masses --     11.0920                12.6418                 1.0655
 Frc consts  --     10.3478                13.5187                 8.9660
 IR Inten    --    373.4615               170.9342               128.1827

 - Thermochemistry -
 -------------------
 Temperature   298.150 Kelvin.  Pressure   1.00000 Atm.
 Atom     1 has atomic number  6 and mass  12.00000

 Molecular mass:   199.95666 amu.
 Principal axes and moments of inertia in atomic units:
                           1         2         3
     Eigenvalues --  1374.113592188.385842498.90639
           X            0.74879  -0.40948  -0.52119
           Y            0.62327   0.16747   0.76387
           Z            0.22550   0.89682  -0.38062
 This molecule is an asymmetric top.
 Rotational symmetry number  1.
 Warning -- assumption of classical behavior for rotation
           may cause significant error
 Rotational temperatures (Kelvin)      0.06303     0.03958     0.03466
 Rotational constants (GHZ):           1.31339     0.82469     0.72221
    1 imaginary frequencies ignored.
 Zero-point vibrational energy     122369.2 (Joules/Mol)
                                   29.24694 (Kcal/Mol)
 Warning -- explicit consideration of  17 degrees of freedom as
           vibrations may cause significant error
 Vibrational temperatures:     55.74    85.51   116.69   184.28   251.88
          (Kelvin)            302.26   325.52   347.55   403.52   473.84
                              512.84   539.76   590.57   688.29   742.20
                              783.67   867.73   908.86  1091.74  1120.07
                             1382.79  1595.43  1611.37  1729.17  1756.57
                             1781.22  1810.45  1938.35  5437.36

 Zero-point correction=                           0.046608 (Hartree/Particle)
 Thermal correction to Energy=                    0.057834
 Thermal correction to Enthalpy=                  0.058778
 Thermal correction to Gibbs Free Energy=         0.008198
 Sum of electronic and zero-point Energies=          -1199.544425
 Sum of electronic and thermal Energies=             -1199.533200
 Sum of electronic and thermal Enthalpies=           -1199.532255
 Sum of electronic and thermal Free Energies=        -1199.582835

                     E (Thermal)             CV                S
                      KCal/Mol        Cal/Mol-Kelvin    Cal/Mol-Kelvin
 Total                   36.291             37.832            106.454
 Electronic               0.000              0.000              0.000
 Translational            0.889              2.981             41.783
 Rotational               0.889              2.981             30.397
 Vibrational             34.514             31.871             34.273
 Vibration     1          0.594              1.981              5.322
 Vibration     2          0.597              1.974              4.476
 Vibration     3          0.600              1.962              3.864
 Vibration     4          0.611              1.925              2.975
 Vibration     5          0.627              1.873              2.380
 Vibration     6          0.642              1.825              2.043
 Vibration     7          0.650              1.801              1.909
 Vibration     8          0.658              1.777              1.791
 Vibration     9          0.680              1.710              1.531
 Vibration    10          0.712              1.617              1.263
 Vibration    11          0.732              1.562              1.138
 Vibration    12          0.746              1.523              1.059
 Vibration    13          0.775              1.448              0.925
 Vibration    14          0.835              1.298              0.714
 Vibration    15          0.871              1.215              0.620
 Vibration    16          0.900              1.151              0.555
 Vibration    17          0.961              1.025              0.444

 Normal termination of Gaussian 16 at Fri May 23 07:44:21 2025.
