 Gaussian 16, Revision C.01,
 Gaussian 16:  ES64L-G16RevC.01  3-Jul-2019

 ----------------------------------------------------------------------
 #P wb97xd/6-311++G(d,p) Symm(None) scf(xqc) pop(None) freq opt(CalcFC,
  Tight)
 ----------------------------------------------------------------------

 ------------------------------
 Gaussian input prepared by ASE
 ------------------------------
 Symbolic Z-matrix:
 Charge =  0 Multiplicity = 1

 SCF Done:  E(RwB97XD) =  -1199.72661806     A.U. after   16 cycles
 SCF Done:  E(RwB97XD) =  -1199.73651638     A.U. after   16 cycles
 SCF Done:  E(RwB97XD) =  -1199.72380197     A.U. after   14 cycles
 SCF Done:  E(RwB97XD) =  -1199.73777102     A.U. after   14 cycles
 SCF Done:  E(RwB97XD) =  -1199.73817281     A.U. after   14 cycles
 SCF Done:  E(RwB97XD) =  -1199.73906918     A.U. after   14 cycles
 SCF Done:  E(RwB97XD) =  -1199.73916117     A.U. after   13 cycles
 SCF Done:  E(RwB97XD) =  -1199.73924991     A.U. after   13 cycles
 SCF Done:  E(RwB97XD) =  -1199.73924997     A.U. after   12 cycles
 SCF Done:  E(RwB97XD) =  -1199.73926741     A.U. after   12 cycles
 SCF Done:  E(RwB97XD) =  -1199.73926864     A.U. after   10 cycles
 SCF Done:  E(RwB97XD) =  -1199.73926877     A.U. after    8 cycles
 SCF Done:  E(RwB97XD) =  -1199.73926880     A.U. after    8 cycles
 SCF Done:  E(RwB97XD) =  -1199.73926880     A.U. after    7 cycles
 SCF Done:  E(RwB97XD) =  -1199.73926880     A.U. after    5 cycles
 Optimization completed.
    -- Stationary point found.
 Normal termination of Gaussian 16 at Fri May 23 05:20:41 2025.

 ----------------------------------------------------------------------
 #P Geom=AllCheck Guess=TCheck SCRF=Check GenChk RwB97XD/6-311++G(d,p)
 Freq
 ----------------------------------------------------------------------

 Structure from the checkpoint file:  "/tmp/Gau-3267.chk"
 ------------------------------
 Gaussian input prepared by ASE
 ------------------------------
 Charge =  0 Multiplicity = 1

                          Input orientation:
 ---------------------------------------------------------------------
 Center     Atomic      Atomic             Coordinates (Angstroms)
 Number     Number       Type             X           Y           Z
 ---------------------------------------------------------------------
      1          6           0        4.016494    1.803727    1.084226
      2          6           0        3.836552    0.913672   -0.171732
      3          9           0        4.961197    0.996681   -0.907483
      4          9           0        3.639580   -0.349593    0.172998
      5         16           0        2.480576    1.500904   -1.395778
      6          8           0        0.885799    0.578915    0.404615
      7          8           0        2.185661    0.295418   -2.170734
      8          8           0        1.247658    1.764780   -0.286664
      9          9           0        4.004598    3.087132    0.710836
     10          9           0        3.053561    1.599427    1.965713
     11          9           0        5.186151    1.541695    1.660107
     12          1           0        0.249528    0.173292   -0.200060
 ---------------------------------------------------------------------

 SCF Done:  E(RwB97XD) =  -1199.73926880     A.U. after    1 cycles

 Isotropic polarizability for W=    0.000000       60.27 Bohr**3.
 End of Minotr F.D. properties file   721 does not exist.

                      1                      2                      3
                      A                      A                      A
 Frequencies --     49.4110                64.7508               114.0550
 Red. masses --     14.2678                16.7555                10.0932
 Frc consts  --      0.0205                 0.0414                 0.0774
 IR Inten    --      0.2317                 0.1026                 2.2407

                      4                      5                      6
                      A                      A                      A
 Frequencies --    140.1696               189.2664               216.7944
 Red. masses --     12.1503                 4.6631                11.8981
 Frc consts  --      0.1407                 0.0984                 0.3295
 IR Inten    --      2.3736                23.8093                 4.8614

                      7                      8                      9
                      A                      A                      A
 Frequencies --    231.7424               238.5131               273.5899
 Red. masses --      5.6624                 3.7145                16.2516
 Frc consts  --      0.1792                 0.1245                 0.7167
 IR Inten    --     17.6090                30.2955                 2.4161

                     10                     11                     12
                      A                      A                      A
 Frequencies --    299.8073               345.8645               379.2356
 Red. masses --      4.8118                 5.0943                 9.1538
 Frc consts  --      0.2548                 0.3590                 0.7757
 IR Inten    --     25.7445                38.5021                15.9530

                     13                     14                     15
                      A                      A                      A
 Frequencies --    418.5121               473.1371               545.1707
 Red. masses --     17.8945                 9.8916                16.8984
 Frc consts  --      1.8467                 1.3046                 2.9591
 IR Inten    --     10.7860                29.0239                 1.9813

                     16                     17                     18
                      A                      A                      A
 Frequencies --    573.4946               613.6638               638.5621
 Red. masses --     17.5174                19.0188                16.6762
 Frc consts  --      3.3945                 4.2198                 4.0064
 IR Inten    --     10.3240                31.8742                34.0421

                     19                     20                     21
                      A                      A                      A
 Frequencies --    658.5153               759.9466               959.4687
 Red. masses --     17.5974                17.2508                15.4021
 Frc consts  --      4.4961                 5.8698                 8.3540
 IR Inten    --     31.3285                16.9783                 3.8787

                     22                     23                     24
                      A                      A                      A
 Frequencies --    970.6434              1135.9270              1213.6485
 Red. masses --     13.4658                13.6821                13.5016
 Frc consts  --      7.4748                10.4017                11.7172
 IR Inten    --    100.9688               133.1380               275.3265

                     25                     26                     27
                      A                      A                      A
 Frequencies --   1220.2177              1225.6761              1253.9772
 Red. masses --     16.1026                14.0165                13.1273
 Frc consts  --     14.1260                12.4063                12.1620
 IR Inten    --    143.9731               229.5833               288.4434

                     28                     29                     30
                      A                      A                      A
 Frequencies --   1353.5114              1440.0346              3808.2163
 Red. masses --     12.7205                 1.1075                 1.0685
 Frc consts  --     13.7303                 1.3532                 9.1304
 IR Inten    --    125.7510                51.9969                73.5138

 - Thermochemistry -
 -------------------
 Temperature   298.150 Kelvin.  Pressure   1.00000 Atm.
 Atom     1 has atomic number  6 and mass  12.00000

 Molecular mass:   199.95666 amu.
 Principal axes and moments of inertia in atomic units:
                           1         2         3
     Eigenvalues --  1251.371982093.850412448.68832
           X            0.73263  -0.68058   0.00739
           Y            0.24024   0.26874   0.93277
           Z            0.63681   0.68160  -0.36039
 This molecule is an asymmetric top.
 Rotational symmetry number  1.
 Warning -- assumption of classical behavior for rotation
           may cause significant error
 Rotational temperatures (Kelvin)      0.06922     0.04137     0.03537
 Rotational constants (GHZ):           1.44221     0.86192     0.73702
 Zero-point vibrational energy     130426.0 (Joules/Mol)
                                   31.17256 (Kcal/Mol)
 Warning -- explicit consideration of  17 degrees of freedom as
           vibrations may cause significant error
 Vibrational temperatures:     71.09    93.16   164.10   201.67   272.31
          (Kelvin)            311.92   333.43   343.17   393.63   431.36
                              497.62   545.64   602.15   680.74   784.38
                              825.13   882.93   918.75   947.46  1093.39
                             1380.46  1396.54  1634.35  1746.17  1755.62
                             1763.47  1804.19  1947.40  2071.89  5479.17

 Zero-point correction=                           0.049677 (Hartree/Particle)
 Thermal correction to Energy=                    0.060816
 Thermal correction to Enthalpy=                  0.061761
 Thermal correction to Gibbs Free Energy=         0.011949
 Sum of electronic and zero-point Energies=          -1199.689592
 Sum of electronic and thermal Energies=             -1199.678452
 Sum of electronic and thermal Enthalpies=           -1199.677508
 Sum of electronic and thermal Free Energies=        -1199.727320

                     E (Thermal)             CV                S
                      KCal/Mol        Cal/Mol-Kelvin    Cal/Mol-Kelvin
 Total                   38.163             38.112            104.838
 Electronic               0.000              0.000              0.000
 Translational            0.889              2.981             41.783
 Rotational               0.889              2.981             30.240
 Vibrational             36.385             32.151             32.814
 Vibration     1          0.595              1.978              4.841
 Vibration     2          0.597              1.971              4.307
 Vibration     3          0.607              1.938              3.199
 Vibration     4          0.615              1.913              2.802
 Vibration     5          0.633              1.855              2.235
 Vibration     6          0.646              1.815              1.986
 Vibration     7          0.653              1.792              1.865
 Vibration     8          0.656              1.782              1.814
 Vibration     9          0.676              1.722              1.573
 Vibration    10          0.692              1.674              1.418
 Vibration    11          0.724              1.584              1.185
 Vibration    12          0.749              1.514              1.042
 Vibration    13          0.781              1.430              0.897
 Vibration    14          0.830              1.310              0.729
 Vibration    15          0.900              1.150              0.554
 Vibration    16          0.930              1.089              0.498
 Vibration    17          0.973              1.003              0.427

                           ! Non-Optimized Parameters !
 Normal termination of Gaussian 16 at Fri May 23 05:22:04 2025.
