 Gaussian 16, Revision C.01,
 Gaussian 16:  ES64L-G16RevC.01  3-Jul-2019

 ------------------------------------------
 #P am1 Symm(None) scf(xqc) pop(None) force
 ------------------------------------------

 ------------------------------
 Gaussian input prepared by ASE
 ------------------------------
 Symbolic Z-matrix:
 Charge =  0 Multiplicity = 1

                          Input orientation:
 ---------------------------------------------------------------------
 Center     Atomic      Atomic             Coordinates (Angstroms)
 Number     Number       Type             X           Y           Z
 ---------------------------------------------------------------------
      1          6           0        3.976671    2.122201    1.783712
      2          6           0        3.231530    0.842950    1.301643
      3          9           0        4.090887   -0.045887    0.829363
      4          9           0        2.634117    0.237979    2.311693
      5         16           0        1.976282    1.206849   -0.122250
      6          8           0       -0.311916    1.083288    0.169114
      7          8           0        2.437356    2.374308   -0.857680
      8          8           0        1.226732   -0.004280   -0.568560
      9          9           0        4.666661    2.714917    0.825870
     10          9           0        3.144117    3.035070    2.274934
     11          9           0        4.845808    1.861125    2.753142
     12          1           0       -0.671348    1.172242    1.067575
 ---------------------------------------------------------------------

 SCF Done:  E(RAM1) =  0.283261559131     A.U. after   25 cycles
 Normal termination of Gaussian 16 at Fri May 23 05:17:13 2025.
