 Gaussian 16, Revision C.01,
 Gaussian 16:  ES64L-G16RevC.01  3-Jul-2019

 ----------------------------------------------------------------------
 #P wb97xd/6-311++G(d,p) Symm(None) scf(xqc) pop(None) freq opt(CalcFC,
  Tight)
 ----------------------------------------------------------------------

 ------------------------------
 Gaussian input prepared by ASE
 ------------------------------
 Symbolic Z-matrix:
 Charge =  0 Multiplicity = 1

 SCF Done:  E(RwB97XD) =  -1199.82551217     A.U. after   15 cycles
 SCF Done:  E(RwB97XD) =  -1199.82551295     A.U. after   10 cycles
 SCF Done:  E(RwB97XD) =  -1199.82551301     A.U. after    8 cycles
 SCF Done:  E(RwB97XD) =  -1199.82551301     A.U. after    6 cycles
 SCF Done:  E(RwB97XD) =  -1199.82551301     A.U. after    5 cycles
 Optimization completed.
    -- Stationary point found.
 Normal termination of Gaussian 16 at Fri May 23 04:21:11 2025.

 ----------------------------------------------------------------------
 #P Geom=AllCheck Guess=TCheck SCRF=Check GenChk RwB97XD/6-311++G(d,p)
 Freq
 ----------------------------------------------------------------------

 Structure from the checkpoint file:  "/tmp/Gau-251968.chk"
 ------------------------------
 Gaussian input prepared by ASE
 ------------------------------
 Charge =  0 Multiplicity = 1

                          Input orientation:
 ---------------------------------------------------------------------
 Center     Atomic      Atomic             Coordinates (Angstroms)
 Number     Number       Type             X           Y           Z
 ---------------------------------------------------------------------
      1          6           0        0.490328   -2.111364   -1.962682
      2          6           0        1.350180    0.000135    0.001099
      3          9           0       -0.000242   -0.005775    0.003148
      4          9           0        1.776140   -0.671129    1.053511
      5         16           0        1.889152   -0.888537   -1.595650
      6          8           0        3.072408   -1.672398   -1.356151
      7          8           0        1.821411    0.159104   -2.597858
      8          8           0        1.868166    1.225403   -0.003019
      9          9           0        0.919076   -2.911550   -2.920591
     10          9           0        0.230581   -2.814228   -0.872694
     11          9           0       -0.593332   -1.477234   -2.361643
     12          1           0        1.750417    1.630791   -0.873928
 ---------------------------------------------------------------------

 SCF Done:  E(RwB97XD) =  -1199.82551301     A.U. after    1 cycles

 Isotropic polarizability for W=    0.000000       58.33 Bohr**3.
 End of Minotr F.D. properties file   721 does not exist.

                      1                      2                      3
                      A                      A                      A
 Frequencies --     43.5099                61.6190               112.5349
 Red. masses --     14.1453                17.5787                17.1753
 Frc consts  --      0.0158                 0.0393                 0.1282
 IR Inten    --      0.7712                 0.1833                 0.2903

                      4                      5                      6
                      A                      A                      A
 Frequencies --    191.3876               198.4071               237.0627
 Red. masses --     16.8639                14.2043                11.5492
 Frc consts  --      0.3639                 0.3294                 0.3824
 IR Inten    --      6.2433                 1.5168                18.2079

                      7                      8                      9
                      A                      A                      A
 Frequencies --    270.9408               286.7934               307.4444
 Red. masses --      7.5939                 8.3519                17.1839
 Frc consts  --      0.3284                 0.4047                 0.9570
 IR Inten    --     11.4343                20.6591                 0.3137

                     10                     11                     12
                      A                      A                      A
 Frequencies --    328.8734               391.1526               423.6359
 Red. masses --     10.0210                 4.4122                 1.7831
 Frc consts  --      0.6386                 0.3977                 0.1885
 IR Inten    --      3.2167                16.5311                92.9175

                     13                     14                     15
                      A                      A                      A
 Frequencies --    522.3549               531.3403               549.9667
 Red. masses --     18.7918                10.8424                11.3285
 Frc consts  --      3.0210                 1.8035                 2.0188
 IR Inten    --     35.1141                31.5263                 8.5377

                     16                     17                     18
                      A                      A                      A
 Frequencies --    570.2811               593.4119               632.0108
 Red. masses --     12.4946                12.8705                16.6106
 Frc consts  --      2.3942                 2.6703                 3.9092
 IR Inten    --      7.1037                43.3525               130.6861

                     19                     20                     21
                      A                      A                      A
 Frequencies --    767.4274               791.5588              1035.8468
 Red. masses --     14.5964                16.8122                 6.6896
 Frc consts  --      5.0649                 6.2064                 4.2290
 IR Inten    --      9.6564                 1.1219               235.1013

                     22                     23                     24
                      A                      A                      A
 Frequencies --   1110.2799              1142.2624              1221.6883
 Red. masses --     12.7406                 3.3810                10.1528
 Frc consts  --      9.2535                 2.5992                 8.9280
 IR Inten    --    184.2240               171.2717               161.7969

                     25                     26                     27
                      A                      A                      A
 Frequencies --   1244.5801              1261.2651              1308.0431
 Red. masses --     13.1242                13.0559                 5.4041
 Frc consts  --     11.9776                12.2368                 5.4478
 IR Inten    --    275.4102               261.1081               410.2046

                     28                     29                     30
                      A                      A                      A
 Frequencies --   1374.1706              1420.2893              3794.3778
 Red. masses --      5.7625                 3.3863                 1.0656
 Frc consts  --      6.4112                 4.0247                 9.0395
 IR Inten    --    112.1373               288.0715               117.0272

 - Thermochemistry -
 -------------------
 Temperature   298.150 Kelvin.  Pressure   1.00000 Atm.
 Atom     1 has atomic number  6 and mass  12.00000

 Molecular mass:   199.95666 amu.
 Principal axes and moments of inertia in atomic units:
                           1         2         3
     Eigenvalues --  1204.320172140.699232340.67359
           X            0.28525   0.83196  -0.47590
           Y            0.70252   0.15629   0.69429
           Z            0.65200  -0.53238  -0.53988
 This molecule is an asymmetric top.
 Rotational symmetry number  1.
 Warning -- assumption of classical behavior for rotation
           may cause significant error
 Rotational temperatures (Kelvin)      0.07192     0.04046     0.03700
 Rotational constants (GHZ):           1.49856     0.84306     0.77103
 Zero-point vibrational energy     135922.8 (Joules/Mol)
                                   32.48633 (Kcal/Mol)
 Warning -- explicit consideration of  17 degrees of freedom as
           vibrations may cause significant error
 Vibrational temperatures:     62.60    88.66   161.91   275.36   285.46
          (Kelvin)            341.08   389.82   412.63   442.34   473.18
                              562.78   609.52   751.55   764.48   791.28
                              820.51   853.79   909.32  1104.16  1138.88
                             1490.35  1597.45  1643.46  1757.74  1790.67
                             1814.68  1881.98  1977.13  2043.48  5459.26

 Zero-point correction=                           0.051770 (Hartree/Particle)
 Thermal correction to Energy=                    0.062310
 Thermal correction to Enthalpy=                  0.063254
 Thermal correction to Gibbs Free Energy=         0.014611
 Sum of electronic and zero-point Energies=          -1199.773743
 Sum of electronic and thermal Energies=             -1199.763203
 Sum of electronic and thermal Enthalpies=           -1199.762259
 Sum of electronic and thermal Free Energies=        -1199.810902

                     E (Thermal)             CV                S
                      KCal/Mol        Cal/Mol-Kelvin    Cal/Mol-Kelvin
 Total                   39.100             36.691            102.378
 Electronic               0.000              0.000              0.000
 Translational            0.889              2.981             41.783
 Rotational               0.889              2.981             30.180
 Vibrational             37.323             30.729             30.415
 Vibration     1          0.595              1.980              5.093
 Vibration     2          0.597              1.973              4.405
 Vibration     3          0.607              1.939              3.225
 Vibration     4          0.634              1.852              2.214
 Vibration     5          0.637              1.842              2.148
 Vibration     6          0.656              1.784              1.825
 Vibration     7          0.675              1.727              1.590
 Vibration     8          0.684              1.698              1.493
 Vibration     9          0.697              1.660              1.376
 Vibration    10          0.712              1.618              1.266
 Vibration    11          0.759              1.489              0.996
 Vibration    12          0.786              1.419              0.880
 Vibration    13          0.877              1.200              0.605
 Vibration    14          0.886              1.181              0.584
 Vibration    15          0.905              1.140              0.544
 Vibration    16          0.926              1.096              0.504
 Vibration    17          0.951              1.046              0.461

 Optimization completed.
    -- Stationary point found.
 Normal termination of Gaussian 16 at Fri May 23 04:22:29 2025.
