 Gaussian 16, Revision C.01,
 Gaussian 16:  ES64L-G16RevC.01  3-Jul-2019

 ----------------------------------------------------------------------
 #P wb97xd/6-311++G(d,p) Symm(None) scf(xqc) pop(None) freq opt(CalcFC,
  Tight)
 ----------------------------------------------------------------------

 ------------------------------
 Gaussian input prepared by ASE
 ------------------------------
 Symbolic Z-matrix:
 Charge =  0 Multiplicity = 1

 SCF Done:  E(RwB97XD) =  -1199.66224010     A.U. after   16 cycles
 SCF Done:  E(RwB97XD) =  -1199.68508936     A.U. after   16 cycles
 SCF Done:  E(RwB97XD) =  -1199.69960218     A.U. after   16 cycles
 SCF Done:  E(RwB97XD) =  -1199.70229831     A.U. after   15 cycles
 SCF Done:  E(RwB97XD) =  -1199.70968754     A.U. after   15 cycles
 SCF Done:  E(RwB97XD) =  -1199.70322779     A.U. after   15 cycles
 SCF Done:  E(RwB97XD) =  -1199.72108164     A.U. after   14 cycles
 SCF Done:  E(RwB97XD) =  -1199.72839726     A.U. after   15 cycles
 SCF Done:  E(RwB97XD) =  -1199.72973828     A.U. after   14 cycles
 SCF Done:  E(RwB97XD) =  -1199.72688990     A.U. after   14 cycles
 SCF Done:  E(RwB97XD) =  -1199.73413491     A.U. after    8 cycles
 SCF Done:  E(RwB97XD) =  -1199.73413510     A.U. after    9 cycles
 SCF Done:  E(RwB97XD) =  -1199.73413530     A.U. after    9 cycles
 SCF Done:  E(RwB97XD) =  -1199.73413548     A.U. after    9 cycles
 SCF Done:  E(RwB97XD) =  -1199.73413559     A.U. after    9 cycles
 SCF Done:  E(RwB97XD) =  -1199.73413564     A.U. after    8 cycles
 SCF Done:  E(RwB97XD) =  -1199.73413566     A.U. after    6 cycles
 SCF Done:  E(RwB97XD) =  -1199.73413566     A.U. after    5 cycles
 SCF Done:  E(RwB97XD) =  -1199.73413566     A.U. after    5 cycles
 Optimization completed.
    -- Stationary point found.
 Normal termination of Gaussian 16 at Fri May 23 05:29:48 2025.

 ----------------------------------------------------------------------
 #P Geom=AllCheck Guess=TCheck SCRF=Check GenChk RwB97XD/6-311++G(d,p)
 Freq
 ----------------------------------------------------------------------

 Structure from the checkpoint file:  "/tmp/Gau-164189.chk"
 ------------------------------
 Gaussian input prepared by ASE
 ------------------------------
 Charge =  0 Multiplicity = 1

                          Input orientation:
 ---------------------------------------------------------------------
 Center     Atomic      Atomic             Coordinates (Angstroms)
 Number     Number       Type             X           Y           Z
 ---------------------------------------------------------------------
      1          6           0       -0.734877    0.942720    2.345841
      2          6           0       -1.391567    1.156238    0.957263
      3          9           0       -1.700327   -0.045345    0.440101
      4          9           0       -2.510369    1.868907    1.107310
      5         16           0       -0.364980    2.080295   -0.380140
      6          8           0        1.304129    0.184660   -0.516495
      7          8           0       -0.337006    3.475184    0.037701
      8          8           0        1.149500    1.453712    0.101404
      9          9           0        0.208058   -0.006087    2.265575
     10          9           0       -0.186024    2.061062    2.787285
     11          9           0       -1.649985    0.534092    3.218818
     12          1           0        1.263640   -0.403560    0.249389
 ---------------------------------------------------------------------

 SCF Done:  E(RwB97XD) =  -1199.73413566     A.U. after    1 cycles

 Isotropic polarizability for W=    0.000000       60.48 Bohr**3.
 End of Minotr F.D. properties file   721 does not exist.

                      1                      2                      3
                      A                      A                      A
 Frequencies --     46.9495                68.8603               104.6938
 Red. masses --     13.7151                16.8138                 7.7430
 Frc consts  --      0.0178                 0.0470                 0.0500
 IR Inten    --      0.6725                 0.8014                 4.0962

                      4                      5                      6
                      A                      A                      A
 Frequencies --    146.4074               182.7704               219.0197
 Red. masses --     16.7152                11.0442                11.2743
 Frc consts  --      0.2111                 0.2174                 0.3186
 IR Inten    --      2.3731                 4.6405                 5.4591

                      7                      8                      9
                      A                      A                      A
 Frequencies --    228.8735               255.1130               292.6595
 Red. masses --     16.1473                17.0154                17.9729
 Frc consts  --      0.4984                 0.6525                 0.9070
 IR Inten    --      1.3186                 3.7538                 5.5559

                     10                     11                     12
                      A                      A                      A
 Frequencies --    328.7262               363.9536               371.0992
 Red. masses --     18.8666                 8.6344                 2.5897
 Frc consts  --      1.2012                 0.6739                 0.2101
 IR Inten    --      3.9162                17.2551                60.9398

                     13                     14                     15
                      A                      A                      A
 Frequencies --    414.2122               436.7053               484.7765
 Red. masses --      6.2343                 2.4770                18.9695
 Frc consts  --      0.6302                 0.2783                 2.6266
 IR Inten    --     15.1361                79.3953                24.3749

                     16                     17                     18
                      A                      A                      A
 Frequencies --    542.3944               596.9901               637.6088
 Red. masses --     17.5828                17.9886                17.2266
 Frc consts  --      3.0477                 3.7773                 4.1263
 IR Inten    --      3.4958                 2.0092                12.2100

                     19                     20                     21
                      A                      A                      A
 Frequencies --    704.1160               759.2979               984.7386
 Red. masses --     16.8213                17.2435                13.5576
 Frc consts  --      4.9136                 5.8573                 7.7460
 IR Inten    --     63.0634                14.4181                58.7980

                     22                     23                     24
                      A                      A                      A
 Frequencies --    994.9538              1142.8903              1198.3876
 Red. masses --     14.6149                13.4838                13.4927
 Frc consts  --      8.5242                10.3770                11.4168
 IR Inten    --      3.5107               187.5157                47.4889

                     25                     26                     27
                      A                      A                      A
 Frequencies --   1207.5198              1235.9177              1260.3246
 Red. masses --     12.4889                15.6923                14.4299
 Frc consts  --     10.7291                14.1226                13.5045
 IR Inten    --    311.1158                60.4006               460.3198

                     28                     29                     30
                      A                      A                      A
 Frequencies --   1338.5678              1434.1682              3811.3146
 Red. masses --     12.7028                 1.1145                 1.0685
 Frc consts  --     13.4101                 1.3507                 9.1447
 IR Inten    --    155.1616                44.9902                71.5904

 - Thermochemistry -
 -------------------
 Temperature   298.150 Kelvin.  Pressure   1.00000 Atm.
 Atom     1 has atomic number  6 and mass  12.00000

 Molecular mass:   199.95666 amu.
 Principal axes and moments of inertia in atomic units:
                           1         2         3
     Eigenvalues --  1395.416042021.429792319.33394
           X           -0.46405  -0.69571   0.54832
           Y           -0.28033   0.70253   0.65412
           Z            0.84028  -0.14983   0.52104
 This molecule is an asymmetric top.
 Rotational symmetry number  1.
 Warning -- assumption of classical behavior for rotation
           may cause significant error
 Rotational temperatures (Kelvin)      0.06207     0.04285     0.03734
 Rotational constants (GHZ):           1.29334     0.89280     0.77813
 Zero-point vibrational energy     130357.1 (Joules/Mol)
                                   31.15610 (Kcal/Mol)
 Warning -- explicit consideration of  17 degrees of freedom as
           vibrations may cause significant error
 Vibrational temperatures:     67.55    99.07   150.63   210.65   262.97
          (Kelvin)            315.12   329.30   367.05   421.07   472.96
                              523.65   533.93   595.96   628.32   697.49
                              780.38   858.94   917.38  1013.07  1092.46
                             1416.82  1431.52  1644.36  1724.21  1737.35
                             1778.21  1813.33  1925.90  2063.45  5483.63

 Zero-point correction=                           0.049650 (Hartree/Particle)
 Thermal correction to Energy=                    0.060791
 Thermal correction to Enthalpy=                  0.061735
 Thermal correction to Gibbs Free Energy=         0.011922
 Sum of electronic and zero-point Energies=          -1199.684485
 Sum of electronic and thermal Energies=             -1199.673345
 Sum of electronic and thermal Enthalpies=           -1199.672401
 Sum of electronic and thermal Free Energies=        -1199.722213

                     E (Thermal)             CV                S
                      KCal/Mol        Cal/Mol-Kelvin    Cal/Mol-Kelvin
 Total                   38.147             38.178            104.840
 Electronic               0.000              0.000              0.000
 Translational            0.889              2.981             41.783
 Rotational               0.889              2.981             30.260
 Vibrational             36.369             32.216             32.797
 Vibration     1          0.595              1.979              4.942
 Vibration     2          0.598              1.969              4.186
 Vibration     3          0.605              1.945              3.365
 Vibration     4          0.617              1.907              2.718
 Vibration     5          0.630              1.863              2.300
 Vibration     6          0.647              1.812              1.967
 Vibration     7          0.652              1.797              1.888
 Vibration     8          0.665              1.754              1.695
 Vibration     9          0.688              1.687              1.459
 Vibration    10          0.712              1.618              1.266
 Vibration    11          0.737              1.546              1.105
 Vibration    12          0.743              1.532              1.075
 Vibration    13          0.778              1.439              0.912
 Vibration    14          0.797              1.390              0.837
 Vibration    15          0.841              1.284              0.697
 Vibration    16          0.897              1.156              0.560
 Vibration    17          0.955              1.038              0.455

 Optimization completed.
    -- Stationary point found.
 Normal termination of Gaussian 16 at Fri May 23 05:31:12 2025.
