 Gaussian 16, Revision C.01,
 Gaussian 16:  ES64L-G16RevC.01  3-Jul-2019

 ----------------------------------------------------------------------
 #P wb97xd/6-311++G(d,p) Symm(None) scf(xqc) pop(None) freq opt(CalcFC,
  Tight)
 ----------------------------------------------------------------------

 ------------------------------
 Gaussian input prepared by ASE
 ------------------------------
 Symbolic Z-matrix:
 Charge =  0 Multiplicity = 1

 SCF Done:  E(RwB97XD) =  -1199.68339044     A.U. after   16 cycles
 SCF Done:  E(RwB97XD) =  -1199.70708965     A.U. after   16 cycles
 SCF Done:  E(RwB97XD) =  -1199.69939806     A.U. after   15 cycles
 SCF Done:  E(RwB97XD) =  -1199.69906129     A.U. after   15 cycles
 SCF Done:  E(RwB97XD) =  -1199.69492612     A.U. after   15 cycles
 SCF Done:  E(RwB97XD) =  -1199.70675927     A.U. after   13 cycles
 SCF Done:  E(RwB97XD) =  -1199.71091315     A.U. after   12 cycles
 SCF Done:  E(RwB97XD) =  -1199.72642180     A.U. after   14 cycles
 SCF Done:  E(RwB97XD) =  -1199.72009385     A.U. after   15 cycles
 SCF Done:  E(RwB97XD) =  -1199.72336238     A.U. after   14 cycles
 SCF Done:  E(RwB97XD) =  -1199.73406846     A.U. after    9 cycles
 SCF Done:  E(RwB97XD) =  -1199.73406880     A.U. after   10 cycles
 SCF Done:  E(RwB97XD) =  -1199.73406898     A.U. after    9 cycles
 SCF Done:  E(RwB97XD) =  -1199.73406908     A.U. after    9 cycles
 SCF Done:  E(RwB97XD) =  -1199.73406911     A.U. after    7 cycles
 SCF Done:  E(RwB97XD) =  -1199.73406911     A.U. after    7 cycles
 SCF Done:  E(RwB97XD) =  -1199.73406912     A.U. after    6 cycles
 SCF Done:  E(RwB97XD) =  -1199.73406912     A.U. after    7 cycles
 SCF Done:  E(RwB97XD) =  -1199.73406912     A.U. after    7 cycles
 Optimization completed.
    -- Stationary point found.
 Normal termination of Gaussian 16 at Fri May 23 05:29:32 2025.

 ----------------------------------------------------------------------
 #P Geom=AllCheck Guess=TCheck SCRF=Check GenChk RwB97XD/6-311++G(d,p)
 Freq
 ----------------------------------------------------------------------

 Structure from the checkpoint file:  "/tmp/Gau-70007.chk"
 ------------------------------
 Gaussian input prepared by ASE
 ------------------------------
 Charge =  0 Multiplicity = 1

                          Input orientation:
 ---------------------------------------------------------------------
 Center     Atomic      Atomic             Coordinates (Angstroms)
 Number     Number       Type             X           Y           Z
 ---------------------------------------------------------------------
      1          6           0       -0.743221    0.333291    2.260776
      2          6           0        0.106871    1.622070    2.382215
      3          9           0       -0.609400    2.653428    1.912044
      4          9           0        0.370444    1.826492    3.681152
      5         16           0        1.830282    1.762745    1.546946
      6          8           0        1.200766    0.118424   -0.353058
      7          8           0        2.632116    0.662575    2.064311
      8          8           0        1.373243    1.495973   -0.050690
      9          9           0       -1.236090    0.221915    1.017048
     10          9           0       -0.028070   -0.741824    2.537331
     11          9           0       -1.773203    0.398669    3.097119
     12          1           0        0.250017    0.081026   -0.519522
 ---------------------------------------------------------------------

 SCF Done:  E(RwB97XD) =  -1199.73406912     A.U. after    1 cycles

 Isotropic polarizability for W=    0.000000       60.39 Bohr**3.
 End of Minotr F.D. properties file   721 does not exist.

                      1                      2                      3
                      A                      A                      A
 Frequencies --     36.8875                60.2110               118.3078
 Red. masses --     13.5107                12.7023                10.7425
 Frc consts  --      0.0108                 0.0271                 0.0886
 IR Inten    --      1.0563                 3.2287                 7.1850

                      4                      5                      6
                      A                      A                      A
 Frequencies --    164.2613               174.4419               224.7071
 Red. masses --     10.7574                11.3333                15.9695
 Frc consts  --      0.1710                 0.2032                 0.4751
 IR Inten    --      3.5783                10.8930                 4.4003

                      7                      8                      9
                      A                      A                      A
 Frequencies --    230.1552               248.3612               301.4962
 Red. masses --     17.1515                11.1690                17.1017
 Frc consts  --      0.5353                 0.4059                 0.9159
 IR Inten    --      3.1156                 6.6080                 3.7922

                     10                     11                     12
                      A                      A                      A
 Frequencies --    321.0448               353.3933               367.5217
 Red. masses --      3.5888                 3.7649                 3.3532
 Frc consts  --      0.2179                 0.2770                 0.2669
 IR Inten    --     48.6370                35.4189                40.7311

                     13                     14                     15
                      A                      A                      A
 Frequencies --    439.0292               461.4525               540.0333
 Red. masses --      5.7549                14.3076                18.5924
 Frc consts  --      0.6535                 1.7950                 3.1947
 IR Inten    --    100.4932                19.1642                 5.6693

                     16                     17                     18
                      A                      A                      A
 Frequencies --    549.9242               597.1643               626.5098
 Red. masses --     14.9072                17.8775                16.4994
 Frc consts  --      2.6562                 3.7562                 3.8157
 IR Inten    --     33.9657                 1.2113                56.1824

                     19                     20                     21
                      A                      A                      A
 Frequencies --    652.0102               758.0889               966.3918
 Red. masses --     17.5156                17.3335                14.6312
 Frc consts  --      4.3872                 5.8692                 8.0508
 IR Inten    --      3.6627                12.9496                 3.0765

                     22                     23                     24
                      A                      A                      A
 Frequencies --    988.4732              1139.5480              1189.9069
 Red. masses --     13.6116                13.5880                13.2110
 Frc consts  --      7.8359                10.3961                11.0208
 IR Inten    --     54.0283               188.7952                43.0903

                     25                     26                     27
                      A                      A                      A
 Frequencies --   1207.9610              1236.1453              1263.1477
 Red. masses --     12.3412                15.7957                14.4792
 Frc consts  --     10.6100                14.2209                13.6115
 IR Inten    --    288.0044                37.3934               464.4561

                     28                     29                     30
                      A                      A                      A
 Frequencies --   1338.5030              1428.8943              3827.2696
 Red. masses --     12.8804                 1.1093                 1.0679
 Frc consts  --     13.5962                 1.3344                 9.2161
 IR Inten    --    153.3665                45.3762                81.9870

 - Thermochemistry -
 -------------------
 Temperature   298.150 Kelvin.  Pressure   1.00000 Atm.
 Atom     1 has atomic number  6 and mass  12.00000

 Molecular mass:   199.95666 amu.
 Principal axes and moments of inertia in atomic units:
                           1         2         3
     Eigenvalues --  1346.144632037.334132361.48418
           X            0.83556   0.31093  -0.45296
           Y            0.16474   0.64472   0.74646
           Z           -0.52412   0.69833  -0.48748
 This molecule is an asymmetric top.
 Rotational symmetry number  1.
 Warning -- assumption of classical behavior for rotation
           may cause significant error
 Rotational temperatures (Kelvin)      0.06434     0.04251     0.03668
 Rotational constants (GHZ):           1.34067     0.88583     0.76424
 Zero-point vibrational energy     130460.2 (Joules/Mol)
                                   31.18074 (Kcal/Mol)
 Warning -- explicit consideration of  17 degrees of freedom as
           vibrations may cause significant error
 Vibrational temperatures:     53.07    86.63   170.22   236.34   250.98
          (Kelvin)            323.30   331.14   357.34   433.79   461.91
                              508.45   528.78   631.67   663.93   776.99
                              791.22   859.19   901.41   938.10  1090.72
                             1390.42  1422.19  1639.56  1712.01  1737.99
                             1778.54  1817.39  1925.81  2055.86  5506.59

 Zero-point correction=                           0.049690 (Hartree/Particle)
 Thermal correction to Energy=                    0.060784
 Thermal correction to Enthalpy=                  0.061728
 Thermal correction to Gibbs Free Energy=         0.011822
 Sum of electronic and zero-point Energies=          -1199.684379
 Sum of electronic and thermal Energies=             -1199.673285
 Sum of electronic and thermal Enthalpies=           -1199.672341
 Sum of electronic and thermal Free Energies=        -1199.722247

                     E (Thermal)             CV                S
                      KCal/Mol        Cal/Mol-Kelvin    Cal/Mol-Kelvin
 Total                   38.142             38.109            105.036
 Electronic               0.000              0.000              0.000
 Translational            0.889              2.981             41.783
 Rotational               0.889              2.981             30.250
 Vibrational             36.365             32.147             33.002
 Vibration     1          0.594              1.982              5.420
 Vibration     2          0.597              1.973              4.450
 Vibration     3          0.608              1.934              3.128
 Vibration     4          0.623              1.886              2.500
 Vibration     5          0.627              1.874              2.387
 Vibration     6          0.649              1.803              1.921
 Vibration     7          0.652              1.795              1.878
 Vibration     8          0.662              1.765              1.742
 Vibration     9          0.693              1.671              1.409
 Vibration    10          0.707              1.633              1.305
 Vibration    11          0.730              1.568              1.151
 Vibration    12          0.740              1.539              1.090
 Vibration    13          0.799              1.385              0.830
 Vibration    14          0.819              1.336              0.762
 Vibration    15          0.895              1.162              0.565
 Vibration    16          0.905              1.140              0.544
 Vibration    17          0.955              1.038              0.455

                           ! Non-Optimized Parameters !
 Normal termination of Gaussian 16 at Fri May 23 05:31:06 2025.
