 Gaussian 16, Revision C.01,
 Gaussian 16:  ES64L-G16RevC.01  3-Jul-2019

 ----------------------------------------------------------------------
 #P wb97xd/6-311++G(d,p) Symm(None) scf(xqc) pop(None) freq opt(CalcFC,
  Tight)
 ----------------------------------------------------------------------

 ------------------------------
 Gaussian input prepared by ASE
 ------------------------------
 Symbolic Z-matrix:
 Charge =  0 Multiplicity = 1

 SCF Done:  E(RwB97XD) =  -1199.81450070     A.U. after   15 cycles
 SCF Done:  E(RwB97XD) =  -1199.82118595     A.U. after   13 cycles
 SCF Done:  E(RwB97XD) =  -1199.82150986     A.U. after   13 cycles
 SCF Done:  E(RwB97XD) =  -1199.81674123     A.U. after   15 cycles
 SCF Done:  E(RwB97XD) =  -1199.82392704     A.U. after   13 cycles
 SCF Done:  E(RwB97XD) =  -1199.82388862     A.U. after   13 cycles
 SCF Done:  E(RwB97XD) =  -1199.82393274     A.U. after   12 cycles
 SCF Done:  E(RwB97XD) =  -1199.82447414     A.U. after   12 cycles
 SCF Done:  E(RwB97XD) =  -1199.82449131     A.U. after   11 cycles
 SCF Done:  E(RwB97XD) =  -1199.82450364     A.U. after   10 cycles
 SCF Done:  E(RwB97XD) =  -1199.82550668     A.U. after   10 cycles
 SCF Done:  E(RwB97XD) =  -1199.82551006     A.U. after   10 cycles
 SCF Done:  E(RwB97XD) =  -1199.82551096     A.U. after    9 cycles
 SCF Done:  E(RwB97XD) =  -1199.82551119     A.U. after    9 cycles
 SCF Done:  E(RwB97XD) =  -1199.82551130     A.U. after   10 cycles
 SCF Done:  E(RwB97XD) =  -1199.82551156     A.U. after    9 cycles
 SCF Done:  E(RwB97XD) =  -1199.82551162     A.U. after    8 cycles
 SCF Done:  E(RwB97XD) =  -1199.82551162     A.U. after    7 cycles
 SCF Done:  E(RwB97XD) =  -1199.82551162     A.U. after    6 cycles
 Optimization completed.
    -- Stationary point found.
 Normal termination of Gaussian 16 at Fri May 23 04:25:24 2025.

 ----------------------------------------------------------------------
 #P Geom=AllCheck Guess=TCheck SCRF=Check GenChk RwB97XD/6-311++G(d,p)
 Freq
 ----------------------------------------------------------------------

 Structure from the checkpoint file:  "/tmp/Gau-210040.chk"
 ------------------------------
 Gaussian input prepared by ASE
 ------------------------------
 Charge =  0 Multiplicity = 1

                          Input orientation:
 ---------------------------------------------------------------------
 Center     Atomic      Atomic             Coordinates (Angstroms)
 Number     Number       Type             X           Y           Z
 ---------------------------------------------------------------------
      1          6           0        3.432886   -1.984728   -1.107826
      2          6           0        1.485742   -0.037463    0.102450
      3          9           0        0.466519   -0.782093    0.484941
      4          9           0        2.488300   -0.186399    0.994815
      5         16           0        2.154953   -0.664632   -1.567269
      6          8           0        2.881992    0.479095   -2.086265
      7          8           0        1.113747   -1.333981   -2.301943
      8          8           0        1.100079    1.227238   -0.045048
      9          9           0        3.752610   -2.616594   -2.221466
     10          9           0        4.507829   -1.433184   -0.582480
     11          9           0        2.891460   -2.833025   -0.249372
     12          1           0        1.772858    1.723561   -0.532282
 ---------------------------------------------------------------------

 SCF Done:  E(RwB97XD) =  -1199.82551162     A.U. after    1 cycles

 Isotropic polarizability for W=    0.000000       58.33 Bohr**3.
 End of Minotr F.D. properties file   721 does not exist.

                      1                      2                      3
                      A                      A                      A
 Frequencies --     32.7598                57.1324               108.1012
 Red. masses --     13.4968                17.9306                16.2817
 Frc consts  --      0.0085                 0.0345                 0.1121
 IR Inten    --      1.6405                 0.2814                 0.4190

                      4                      5                      6
                      A                      A                      A
 Frequencies --    185.3296               193.2293               229.9735
 Red. masses --      8.9674                14.3631                 7.5699
 Frc consts  --      0.1815                 0.3160                 0.2359
 IR Inten    --     16.6876                 2.6498                31.0473

                      7                      8                      9
                      A                      A                      A
 Frequencies --    261.1615               282.1618               306.7878
 Red. masses --      6.3273                12.3589                17.0695
 Frc consts  --      0.2543                 0.5797                 0.9466
 IR Inten    --     16.0068                 8.6430                 0.1045

                     10                     11                     12
                      A                      A                      A
 Frequencies --    327.7982               387.9887               414.0353
 Red. masses --      9.8754                 3.2501                 2.4996
 Frc consts  --      0.6252                 0.2883                 0.2525
 IR Inten    --      2.9401                26.7309                72.7297

                     13                     14                     15
                      A                      A                      A
 Frequencies --    522.1401               530.8434               548.3902
 Red. masses --     18.7873                11.2833                10.6651
 Frc consts  --      3.0178                 1.8734                 1.8897
 IR Inten    --     34.3589                31.2838                 8.0410

                     16                     17                     18
                      A                      A                      A
 Frequencies --    569.3573               593.0026               631.7823
 Red. masses --     12.6848                13.3717                17.1991
 Frc consts  --      2.4227                 2.7705                 4.0447
 IR Inten    --      6.0057                41.3470               132.9910

                     19                     20                     21
                      A                      A                      A
 Frequencies --    767.2463               791.5889              1035.1065
 Red. masses --     14.5219                16.7640                 6.2681
 Frc consts  --      5.0367                 6.1891                 3.9569
 IR Inten    --     10.0550                 1.1686               234.7520

                     22                     23                     24
                      A                      A                      A
 Frequencies --   1110.4390              1136.5820              1221.2032
 Red. masses --     12.0453                 3.2816                10.2231
 Frc consts  --      8.7510                 2.4977                 8.9827
 IR Inten    --    182.9617               168.7116               173.8617

                     25                     26                     27
                      A                      A                      A
 Frequencies --   1245.6378              1261.3466              1305.6219
 Red. masses --     13.1438                13.0411                 5.3531
 Frc consts  --     12.0159                12.2246                 5.3764
 IR Inten    --    274.9242               258.7059               399.2266

                     28                     29                     30
                      A                      A                      A
 Frequencies --   1372.5705              1416.5290              3796.3421
 Red. masses --      5.6593                 3.8584                 1.0657
 Frc consts  --      6.2817                 4.5615                 9.0496
 IR Inten    --     92.8756               309.1060               118.0658

 - Thermochemistry -
 -------------------
 Temperature   298.150 Kelvin.  Pressure   1.00000 Atm.
 Atom     1 has atomic number  6 and mass  12.00000

 Molecular mass:   199.95666 amu.
 Principal axes and moments of inertia in atomic units:
                           1         2         3
     Eigenvalues --  1204.521822140.003812340.11245
           X           -0.64648   0.25851   0.71780
           Y            0.64820  -0.31008   0.69547
           Z            0.40236   0.91489   0.03290
 This molecule is an asymmetric top.
 Rotational symmetry number  1.
 Warning -- assumption of classical behavior for rotation
           may cause significant error
 Rotational temperatures (Kelvin)      0.07191     0.04047     0.03701
 Rotational constants (GHZ):           1.49831     0.84334     0.77122
 Zero-point vibrational energy     135430.4 (Joules/Mol)
                                   32.36863 (Kcal/Mol)
 Warning -- explicit consideration of  17 degrees of freedom as
           vibrations may cause significant error
 Vibrational temperatures:     47.13    82.20   155.53   266.65   278.01
          (Kelvin)            330.88   375.75   405.97   441.40   471.63
                              558.23   595.70   751.24   763.77   789.01
                              819.18   853.20   908.99  1103.90  1138.92
                             1489.29  1597.67  1635.29  1757.04  1792.20
                             1814.80  1878.50  1974.82  2038.07  5462.09

 Zero-point correction=                           0.051583 (Hartree/Particle)
 Thermal correction to Energy=                    0.062228
 Thermal correction to Enthalpy=                  0.063172
 Thermal correction to Gibbs Free Energy=         0.014003
 Sum of electronic and zero-point Energies=          -1199.773929
 Sum of electronic and thermal Energies=             -1199.763284
 Sum of electronic and thermal Enthalpies=           -1199.762340
 Sum of electronic and thermal Free Energies=        -1199.811509

                     E (Thermal)             CV                S
                      KCal/Mol        Cal/Mol-Kelvin    Cal/Mol-Kelvin
 Total                   39.048             36.799            103.485
 Electronic               0.000              0.000              0.000
 Translational            0.889              2.981             41.783
 Rotational               0.889              2.981             30.179
 Vibrational             37.271             30.837             31.522
 Vibration     1          0.594              1.983              5.655
 Vibration     2          0.596              1.975              4.554
 Vibration     3          0.606              1.943              3.303
 Vibration     4          0.631              1.860              2.274
 Vibration     5          0.635              1.849              2.197
 Vibration     6          0.652              1.795              1.879
 Vibration     7          0.669              1.744              1.654
 Vibration     8          0.681              1.707              1.521
 Vibration     9          0.697              1.661              1.380
 Vibration    10          0.711              1.620              1.271
 Vibration    11          0.756              1.496              1.008
 Vibration    12          0.778              1.440              0.912
 Vibration    13          0.877              1.201              0.605
 Vibration    14          0.886              1.182              0.585
 Vibration    15          0.904              1.143              0.548
 Vibration    16          0.925              1.098              0.505
 Vibration    17          0.951              1.047              0.462

 Optimization completed.
    -- Stationary point found.
 Normal termination of Gaussian 16 at Fri May 23 04:26:34 2025.
