 Gaussian 16, Revision C.01,
 Gaussian 16:  ES64L-G16RevC.01  3-Jul-2019

 ----------------------------------------------------------------------
 #P wb97xd/6-311++G(d,p) Symm(None) scf(xqc) pop(None) opt(NoFreeze,TS,
 CalcAll,NoEigentest,MaxCycle=999)
 ----------------------------------------------------------------------

 ------------------------------
 Gaussian input prepared by ASE
 ------------------------------
 Symbolic Z-matrix:
 Charge =  0 Multiplicity = 1

 SCF Done:  E(RwB97XD) =  -1199.59649929     A.U. after   27 cycles
 SCF Done:  E(RwB97XD) =  -1199.59649974     A.U. after   19 cycles

 Isotropic polarizability for W=    0.000000       74.37 Bohr**3.
 End of Minotr F.D. properties file   721 does not exist.

 Optimization completed.
    -- Stationary point found.

                          Input orientation:
 ---------------------------------------------------------------------
 Center     Atomic      Atomic             Coordinates (Angstroms)
 Number     Number       Type             X           Y           Z
 ---------------------------------------------------------------------
      1          6           0       -0.604759   -1.382863   -0.325536
      2          6           0       -0.000320    0.000607   -0.002121
      3          9           0       -0.491959    0.932283   -0.801551
      4          9           0       -0.268471    0.318227    1.278778
      5         16           0        1.927323    0.000520   -0.001470
      6          8           0        1.406919    0.935181    2.453750
      7          8           0        2.387913   -0.491560   -1.288725
      8          8           0        2.062941    1.608354    0.003028
      9          9           0       -0.466023   -1.648944   -1.613686
     10          9           0        0.029562   -2.312750    0.387936
     11          9           0       -1.895720   -1.408197   -0.013544
     12          1           0        2.013724    1.850644    0.954378
 ---------------------------------------------------------------------

 ******    1 imaginary frequencies (negative Signs) ******

                      1                      2                      3
                      A                      A                      A
 Frequencies --   -297.1618                43.3685                58.7862
 Red. masses --     17.1222                15.3357                17.2771
 Frc consts  --      0.8908                 0.0170                 0.0352
 IR Inten    --     57.9180                 0.4376                 0.0377

                      4                      5                      6
                      A                      A                      A
 Frequencies --    120.2946               154.3982               194.1813
 Red. masses --     16.1623                10.3669                14.5688
 Frc consts  --      0.1378                 0.1456                 0.3237
 IR Inten    --      0.6032                 7.7445                10.6650

                      7                      8                      9
                      A                      A                      A
 Frequencies --    226.8855               236.5572               267.1560
 Red. masses --     17.4097                14.4314                13.4754
 Frc consts  --      0.5280                 0.4758                 0.5667
 IR Inten    --      3.0571                 2.5872                 7.2085

                     10                     11                     12
                      A                      A                      A
 Frequencies --    282.5100               342.6685               375.9280
 Red. masses --     12.8670                17.7314                18.3525
 Frc consts  --      0.6051                 1.2267                 1.5281
 IR Inten    --      3.9417                 1.1736                 1.1786

                     13                     14                     15
                      A                      A                      A
 Frequencies --    408.7185               435.7995               505.9415
 Red. masses --     15.1595                12.1536                16.3898
 Frc consts  --      1.4921                 1.3600                 2.4719
 IR Inten    --     15.8560                18.3452                33.9979

                     16                     17                     18
                      A                      A                      A
 Frequencies --    544.3667               601.3610               630.4453
 Red. masses --     17.6780                17.6005                 1.3325
 Frc consts  --      3.0865                 3.7501                 0.3120
 IR Inten    --      1.9927                 6.1041               120.2777

                     19                     20                     21
                      A                      A                      A
 Frequencies --    636.0003               759.4621               783.5743
 Red. masses --      4.3270                16.5273                 9.9135
 Frc consts  --      1.0312                 5.6165                 3.5862
 IR Inten    --     16.6495                33.3090                86.9236

                     22                     23                     24
                      A                      A                      A
 Frequencies --    938.4382              1094.7593              1178.2676
 Red. masses --     13.1682                12.6778                 1.4537
 Frc consts  --      6.8326                 8.9522                 1.1891
 IR Inten    --    100.7548                32.6043               201.6329

                     25                     26                     27
                      A                      A                      A
 Frequencies --   1223.8370              1229.6348              1247.6997
 Red. masses --     12.4717                10.2194                10.0968
 Frc consts  --     11.0058                 9.1039                 9.2609
 IR Inten    --    310.8892                68.0834               128.8351

                     28                     29                     30
                      A                      A                      A
 Frequencies --   1276.1145              1350.8192              3492.7752
 Red. masses --      6.6899                12.2978                 1.0658
 Frc consts  --      6.4187                13.2212                 7.6606
 IR Inten    --    278.5382               218.3050                 6.9188

 - Thermochemistry -
 -------------------
 Temperature   298.150 Kelvin.  Pressure   1.00000 Atm.
 Atom     1 has atomic number  6 and mass  12.00000

 Molecular mass:   199.95666 amu.
 Principal axes and moments of inertia in atomic units:
                           1         2         3
     Eigenvalues --  1293.914382212.062362582.17481
           X            0.73960  -0.52133  -0.42569
           Y            0.62109   0.28498   0.73009
           Z            0.25931   0.80437  -0.53456
 This molecule is an asymmetric top.
 Rotational symmetry number  1.
 Warning -- assumption of classical behavior for rotation
           may cause significant error
 Rotational temperatures (Kelvin)      0.06694     0.03916     0.03354
 Rotational constants (GHZ):           1.39479     0.81586     0.69892
    1 imaginary frequencies ignored.
 Zero-point vibrational energy     123459.1 (Joules/Mol)
                                   29.50743 (Kcal/Mol)
 Warning -- explicit consideration of  16 degrees of freedom as
           vibrations may cause significant error
 Vibrational temperatures:     62.40    84.58   173.08   222.14   279.38
          (Kelvin)            326.44   340.35   384.38   406.47   493.02
                              540.88   588.05   627.02   727.94   783.22
                              865.22   907.07   915.06  1092.70  1127.39
                             1350.20  1575.11  1695.26  1760.83  1769.17
                             1795.16  1836.04  1943.53  5025.32

 Zero-point correction=                           0.047023 (Hartree/Particle)
 Thermal correction to Energy=                    0.057821
 Thermal correction to Enthalpy=                  0.058766
 Thermal correction to Gibbs Free Energy=         0.009426
 Sum of electronic and zero-point Energies=          -1199.549477
 Sum of electronic and thermal Energies=             -1199.538678
 Sum of electronic and thermal Enthalpies=           -1199.537734
 Sum of electronic and thermal Free Energies=        -1199.587074

                     E (Thermal)             CV                S
                      KCal/Mol        Cal/Mol-Kelvin    Cal/Mol-Kelvin
 Total                   36.283             37.104            103.844
 Electronic               0.000              0.000              0.000
 Translational            0.889              2.981             41.783
 Rotational               0.889              2.981             30.381
 Vibrational             34.506             31.142             31.680
 Vibration     1          0.595              1.980              5.099
 Vibration     2          0.596              1.974              4.498
 Vibration     3          0.609              1.932              3.096
 Vibration     4          0.620              1.898              2.617
 Vibration     5          0.635              1.848              2.188
 Vibration     6          0.651              1.800              1.903
 Vibration     7          0.655              1.785              1.829
 Vibration     8          0.672              1.733              1.615
 Vibration     9          0.682              1.706              1.518
 Vibration    10          0.722              1.590              1.200
 Vibration    11          0.747              1.521              1.056
 Vibration    12          0.773              1.451              0.931
 Vibration    13          0.796              1.392              0.840
 Vibration    14          0.861              1.237              0.643
 Vibration    15          0.900              1.152              0.556
 Vibration    16          0.960              1.029              0.447

 Normal termination of Gaussian 16 at Fri May 23 07:35:12 2025.
