 Gaussian 16, Revision C.01,
 Gaussian 16:  ES64L-G16RevC.01  3-Jul-2019

 ----------------------------------------------------------------------
 #P wb97xd/6-311++G(d,p) Symm(None) scf(xqc) pop(None) opt(NoFreeze,TS,
 CalcAll,NoEigentest,MaxCycle=999)
 ----------------------------------------------------------------------

 ------------------------------
 Gaussian input prepared by ASE
 ------------------------------
 Symbolic Z-matrix:
 Charge =  0 Multiplicity = 1

 SCF Done:  E(RwB97XD) =  -1199.63460620     A.U. after   21 cycles
 SCF Done:  E(RwB97XD) =  -1199.64109993     A.U. after   19 cycles
 SCF Done:  E(RwB97XD) =  -1199.64181406     A.U. after   16 cycles
 SCF Done:  E(RwB97XD) =  -1199.64184362     A.U. after   13 cycles
 SCF Done:  E(RwB97XD) =  -1199.64184370     A.U. after   13 cycles

 Isotropic polarizability for W=    0.000000       69.58 Bohr**3.
 End of Minotr F.D. properties file   721 does not exist.

 Optimization completed.
    -- Stationary point found.

                          Input orientation:
 ---------------------------------------------------------------------
 Center     Atomic      Atomic             Coordinates (Angstroms)
 Number     Number       Type             X           Y           Z
 ---------------------------------------------------------------------
      1          6           0       -0.736376    0.750230   -1.032836
      2          6           0       -0.059379    0.014679    0.154504
      3          9           0       -0.510254    0.540945    1.293660
      4          9           0       -0.400045   -1.280658    0.083578
      5         16           0        1.982613    0.016853   -0.069395
      6          8           0        2.005185   -0.612957    1.340941
      7          8           0        3.520341   -0.262383    0.361541
      8          8           0        1.971643    1.634637    0.062401
      9          9           0       -0.645795    2.065534   -0.902152
     10          9           0       -0.150987    0.389595   -2.179483
     11          9           0       -2.025164    0.420465   -1.099201
     12          1           0        2.851908    1.941422    0.312601
 ---------------------------------------------------------------------

 ******    1 imaginary frequencies (negative Signs) ******

                      1                      2                      3
                      A                      A                      A
 Frequencies --   -891.0866                40.1095                73.7832
 Red. masses --     17.6635                12.7331                15.1867
 Frc consts  --      8.2635                 0.0121                 0.0487
 IR Inten    --    479.9338                 0.8043                 0.3788

                      4                      5                      6
                      A                      A                      A
 Frequencies --    119.8862               149.9893               195.1860
 Red. masses --     13.0152                13.5441                 6.8071
 Frc consts  --      0.1102                 0.1795                 0.1528
 IR Inten    --      1.6046                 0.8235                10.4882

                      7                      8                      9
                      A                      A                      A
 Frequencies --    221.7371               232.6068               280.5179
 Red. masses --     16.7944                18.2756                17.5387
 Frc consts  --      0.4865                 0.5826                 0.8131
 IR Inten    --      1.9897                 1.8568                 1.8204

                     10                     11                     12
                      A                      A                      A
 Frequencies --    301.6906               327.2506               366.6149
 Red. masses --      8.2982                 1.3348                16.4738
 Frc consts  --      0.4450                 0.0842                 1.3046
 IR Inten    --      4.9911               103.3091                 5.5463

                     13                     14                     15
                      A                      A                      A
 Frequencies --    369.4280               431.1421               456.9215
 Red. masses --     12.6995                 6.9019                16.4979
 Frc consts  --      1.0212                 0.7559                 2.0294
 IR Inten    --      8.7292                35.6275                 3.1381

                     16                     17                     18
                      A                      A                      A
 Frequencies --    537.4908               594.0609               621.1471
 Red. masses --     17.5832                17.8792                16.9577
 Frc consts  --      2.9929                 3.7176                 3.8548
 IR Inten    --      2.7869                 1.3629                11.5969

                     19                     20                     21
                      A                      A                      A
 Frequencies --    684.5217               748.0067               806.2522
 Red. masses --     16.8671                16.6576                17.4531
 Frc consts  --      4.6566                 5.4913                 6.6844
 IR Inten    --    102.7019                36.2222               137.7744

                     22                     23                     24
                      A                      A                      A
 Frequencies --    919.5505              1011.8985              1118.9275
 Red. masses --     13.5613                14.6798                 3.4798
 Frc consts  --      6.7562                 8.8562                 2.5669
 IR Inten    --    168.1874                35.1056               202.0174

                     25                     26                     27
                      A                      A                      A
 Frequencies --   1140.1243              1208.2674              1213.7521
 Red. masses --      1.6830                10.8275                10.0223
 Frc consts  --      1.2890                 9.3134                 8.6992
 IR Inten    --     91.2707                77.0458               242.2348

                     28                     29                     30
                      A                      A                      A
 Frequencies --   1243.6045              1314.1965              3841.0117
 Red. masses --     12.7120                12.2556                 1.0662
 Frc consts  --     11.5832                12.4711                 9.2680
 IR Inten    --    342.2071               347.3947               155.4296

 - Thermochemistry -
 -------------------
 Temperature   298.150 Kelvin.  Pressure   1.00000 Atm.
 Atom     1 has atomic number  6 and mass  12.00000

 Molecular mass:   199.95666 amu.
 Principal axes and moments of inertia in atomic units:
                           1         2         3
     Eigenvalues --  1057.012872436.557162684.40079
           X            0.91380   0.37322  -0.16027
           Y           -0.17711   0.72122   0.66968
           Z            0.36553  -0.58356   0.72515
 This molecule is an asymmetric top.
 Rotational symmetry number  1.
 Warning -- assumption of classical behavior for rotation
           may cause significant error
 Rotational temperatures (Kelvin)      0.08194     0.03555     0.03227
 Rotational constants (GHZ):           1.70740     0.74069     0.67231
    1 imaginary frequencies ignored.
 Zero-point vibrational energy     123034.0 (Joules/Mol)
                                   29.40583 (Kcal/Mol)
 Warning -- explicit consideration of  16 degrees of freedom as
           vibrations may cause significant error
 Vibrational temperatures:     57.71   106.16   172.49   215.80   280.83
          (Kelvin)            319.03   334.67   403.60   434.07   470.84
                              527.48   531.52   620.32   657.41   773.33
                              854.72   893.69   984.87  1076.21  1160.02
                             1323.03  1455.90  1609.89  1640.38  1738.43
                             1746.32  1789.27  1890.84  5526.36

 Zero-point correction=                           0.046861 (Hartree/Particle)
 Thermal correction to Energy=                    0.057742
 Thermal correction to Enthalpy=                  0.058686
 Thermal correction to Gibbs Free Energy=         0.009334
 Sum of electronic and zero-point Energies=          -1199.594983
 Sum of electronic and thermal Energies=             -1199.584102
 Sum of electronic and thermal Enthalpies=           -1199.583157
 Sum of electronic and thermal Free Energies=        -1199.632510

                     E (Thermal)             CV                S
                      KCal/Mol        Cal/Mol-Kelvin    Cal/Mol-Kelvin
 Total                   36.234             37.518            103.870
 Electronic               0.000              0.000              0.000
 Translational            0.889              2.981             41.783
 Rotational               0.889              2.981             30.315
 Vibrational             34.456             31.557             31.772
 Vibration     1          0.594              1.981              5.254
 Vibration     2          0.599              1.966              4.050
 Vibration     3          0.609              1.933              3.102
 Vibration     4          0.618              1.903              2.672
 Vibration     5          0.636              1.847              2.178
 Vibration     6          0.648              1.808              1.945
 Vibration     7          0.653              1.791              1.859
 Vibration     8          0.680              1.710              1.531
 Vibration     9          0.694              1.670              1.408
 Vibration    10          0.711              1.621              1.274
 Vibration    11          0.740              1.541              1.094
 Vibration    12          0.742              1.535              1.082
 Vibration    13          0.792              1.402              0.855
 Vibration    14          0.815              1.346              0.775
 Vibration    15          0.893              1.167              0.571
 Vibration    16          0.952              1.044              0.460

 Normal termination of Gaussian 16 at Fri May 23 04:42:16 2025.
