 Gaussian 16, Revision C.01,
 Gaussian 16:  ES64L-G16RevC.01  3-Jul-2019

 ------------------------------------------
 #P am1 Symm(None) scf(xqc) pop(None) force
 ------------------------------------------

 ------------------------------
 Gaussian input prepared by ASE
 ------------------------------
 Symbolic Z-matrix:
 Charge =  0 Multiplicity = 1

                          Input orientation:
 ---------------------------------------------------------------------
 Center     Atomic      Atomic             Coordinates (Angstroms)
 Number     Number       Type             X           Y           Z
 ---------------------------------------------------------------------
      1          6           0       -0.914503   -0.421393    1.082750
      2          6           0        0.082933    0.429937    0.267765
      3          9           0       -0.215020    0.420688   -1.020637
      4          9           0       -0.029621    1.729455    0.603110
      5         16           0        1.916233   -0.059995    0.607139
      6          8           0        1.824391    2.523498    1.308131
      7          8           0        2.099172   -1.400234    0.076792
      8          8           0        2.601503    0.761331   -0.600963
      9          9           0       -1.075082   -1.643219    0.602396
     10          9           0       -0.539962   -0.577967    2.352094
     11          9           0       -2.131999    0.106530    1.142880
     12          1           0        2.432378    1.729401   -0.603161
 ---------------------------------------------------------------------

 SCF Done:  E(RAM1) =  0.400282513248     A.U. after   33 cycles
 SCF Done:  E(RAM1) =  0.400174567479     a.u. after    6 cycles
 Normal termination of Gaussian 16 at Fri May 23 07:30:09 2025.
