 Gaussian 16, Revision C.01,
 Gaussian 16:  ES64L-G16RevC.01  3-Jul-2019

 ----------------------------------------------------------------------
 #P wb97xd/6-311++G(d,p) Symm(None) scf(xqc) pop(None) freq opt(CalcFC,
  Tight)
 ----------------------------------------------------------------------

 ------------------------------
 Gaussian input prepared by ASE
 ------------------------------
 Symbolic Z-matrix:
 Charge =  0 Multiplicity = 1

 SCF Done:  E(RwB97XD) =  -1199.26143591     A.U. after   20 cycles
 SCF Done:  E(RwB97XD) =  -1199.40678753     A.U. after   16 cycles
 SCF Done:  E(RwB97XD) =  -1199.56616784     A.U. after   15 cycles
 SCF Done:  E(RwB97XD) =  -1199.61975979     A.U. after   14 cycles
 SCF Done:  E(RwB97XD) =  -1199.62581210     A.U. after   15 cycles
 SCF Done:  E(RwB97XD) =  -1199.66832419     A.U. after   15 cycles
 SCF Done:  E(RwB97XD) =  -1199.68885761     A.U. after   16 cycles
 SCF Done:  E(RwB97XD) =  -1199.69636436     A.U. after   15 cycles
 SCF Done:  E(RwB97XD) =  -1199.70657826     A.U. after   15 cycles
 SCF Done:  E(RwB97XD) =  -1199.71827527     A.U. after   14 cycles
 SCF Done:  E(RwB97XD) =  -1199.73556577     A.U. after   11 cycles
 SCF Done:  E(RwB97XD) =  -1199.73557380     A.U. after   11 cycles
 SCF Done:  E(RwB97XD) =  -1199.73557765     A.U. after   11 cycles
 SCF Done:  E(RwB97XD) =  -1199.73558194     A.U. after   11 cycles
 SCF Done:  E(RwB97XD) =  -1199.73558611     A.U. after   11 cycles
 SCF Done:  E(RwB97XD) =  -1199.73558812     A.U. after   11 cycles
 SCF Done:  E(RwB97XD) =  -1199.73558840     A.U. after    9 cycles
 SCF Done:  E(RwB97XD) =  -1199.73558841     A.U. after    8 cycles
 SCF Done:  E(RwB97XD) =  -1199.73558842     A.U. after    7 cycles
 Optimization completed.
    -- Stationary point found.
 Normal termination of Gaussian 16 at Fri May 23 05:35:54 2025.

 ----------------------------------------------------------------------
 #P Geom=AllCheck Guess=TCheck SCRF=Check GenChk RwB97XD/6-311++G(d,p)
 Freq
 ----------------------------------------------------------------------

 Structure from the checkpoint file:  "/tmp/Gau-7097.chk"
 ------------------------------
 Gaussian input prepared by ASE
 ------------------------------
 Charge =  0 Multiplicity = 1

                          Input orientation:
 ---------------------------------------------------------------------
 Center     Atomic      Atomic             Coordinates (Angstroms)
 Number     Number       Type             X           Y           Z
 ---------------------------------------------------------------------
      1          6           0        1.365332   -1.112439   -2.346116
      2          6           0        1.484528    0.405978   -2.649631
      3          9           0        2.421177    0.575769   -3.596117
      4          9           0        0.326723    0.879861   -3.092618
      5         16           0        2.119593    1.474404   -1.192947
      6          8           0        1.118464    1.151590    1.088561
      7          8           0        1.894012    2.844089   -1.632296
      8          8           0        0.804920    0.912819   -0.278767
      9          9           0        2.393690   -1.485118   -1.572259
     10          9           0        0.234990   -1.397760   -1.720655
     11          9           0        1.414343   -1.810146   -3.474908
     12          1           0        1.180128    0.248883    1.424411
 ---------------------------------------------------------------------

 SCF Done:  E(RwB97XD) =  -1199.73558842     A.U. after    1 cycles

 Isotropic polarizability for W=    0.000000       61.23 Bohr**3.
 End of Minotr F.D. properties file   721 does not exist.

                      1                      2                      3
                      A                      A                      A
 Frequencies --     31.5128                59.0280                76.2849
 Red. masses --     11.2458                16.4919                 7.3818
 Frc consts  --      0.0066                 0.0339                 0.0253
 IR Inten    --      2.3351                 1.8388                 5.0839

                      4                      5                      6
                      A                      A                      A
 Frequencies --    132.9333               172.3766               227.6292
 Red. masses --     16.5347                16.5732                17.9290
 Frc consts  --      0.1722                 0.2901                 0.5473
 IR Inten    --      2.8263                 5.5972                 0.4288

                      7                      8                      9
                      A                      A                      A
 Frequencies --    232.2347               265.6122               289.8504
 Red. masses --     17.0167                 7.0235                 1.7762
 Frc consts  --      0.5407                 0.2919                 0.0879
 IR Inten    --      1.6156                 5.9821                81.3021

                     10                     11                     12
                      A                      A                      A
 Frequencies --    309.2045               315.9453               369.3522
 Red. masses --      3.5535                13.7650                17.4142
 Frc consts  --      0.2002                 0.8096                 1.3997
 IR Inten    --     19.0986                 0.9322                 0.1650

                     13                     14                     15
                      A                      A                      A
 Frequencies --    413.0205               433.0195               509.8766
 Red. masses --     11.0982                17.9605                16.4320
 Frc consts  --      1.1154                 1.9842                 2.5169
 IR Inten    --     33.5733                11.7217                35.4860

                     16                     17                     18
                      A                      A                      A
 Frequencies --    546.8727               592.8508               655.0549
 Red. masses --     18.3385                17.6979                17.5775
 Frc consts  --      3.2314                 3.6649                 4.4439
 IR Inten    --      0.4178                 1.6955                16.8006

                     19                     20                     21
                      A                      A                      A
 Frequencies --    707.7582               758.5835               969.3994
 Red. masses --     17.4819                17.2735                13.4290
 Frc consts  --      5.1595                 5.8565                 7.4353
 IR Inten    --     91.6842                15.6873               107.2519

                     22                     23                     24
                      A                      A                      A
 Frequencies --    993.2111              1145.9108              1209.5904
 Red. masses --     14.8824                13.6872                13.1514
 Frc consts  --      8.6498                10.5893                11.3370
 IR Inten    --      6.5490               153.7637               294.9269

                     25                     26                     27
                      A                      A                      A
 Frequencies --   1221.9208              1246.4217              1254.9665
 Red. masses --     13.0845                14.9710                15.7484
 Frc consts  --     11.5105                13.7035                14.6133
 IR Inten    --     89.3405               252.6932               319.7819

                     28                     29                     30
                      A                      A                      A
 Frequencies --   1350.2313              1425.5612              3831.1359
 Red. masses --     12.7843                 1.1101                 1.0687
 Frc consts  --     13.7323                 1.3292                 9.2421
 IR Inten    --    129.2930                61.0071                78.2069

 - Thermochemistry -
 -------------------
 Temperature   298.150 Kelvin.  Pressure   1.00000 Atm.
 Atom     1 has atomic number  6 and mass  12.00000

 Molecular mass:   199.95666 amu.
 Principal axes and moments of inertia in atomic units:
                           1         2         3
     Eigenvalues --  1286.511972160.200772713.79745
           X            0.03759  -0.25038   0.96742
           Y            0.76928  -0.61065  -0.18793
           Z            0.63781   0.75128   0.16966
 This molecule is an asymmetric top.
 Rotational symmetry number  1.
 Warning -- assumption of classical behavior for rotation
           may cause significant error
 Rotational temperatures (Kelvin)      0.06732     0.04010     0.03192
 Rotational constants (GHZ):           1.40282     0.83545     0.66502
 Zero-point vibrational energy     130078.0 (Joules/Mol)
                                   31.08940 (Kcal/Mol)
 Warning -- explicit consideration of  17 degrees of freedom as
           vibrations may cause significant error
 Vibrational temperatures:     45.34    84.93   109.76   191.26   248.01
          (Kelvin)            327.51   334.13   382.16   417.03   444.88
                              454.57   531.42   594.24   623.02   733.60
                              786.83   852.98   942.48  1018.31  1091.43
                             1394.75  1429.01  1648.71  1740.33  1758.07
                             1793.32  1805.62  1942.68  2051.06  5512.15

 Zero-point correction=                           0.049544 (Hartree/Particle)
 Thermal correction to Energy=                    0.060861
 Thermal correction to Enthalpy=                  0.061805
 Thermal correction to Gibbs Free Energy=         0.010921
 Sum of electronic and zero-point Energies=          -1199.686044
 Sum of electronic and thermal Energies=             -1199.674728
 Sum of electronic and thermal Enthalpies=           -1199.673784
 Sum of electronic and thermal Free Energies=        -1199.724667

                     E (Thermal)             CV                S
                      KCal/Mol        Cal/Mol-Kelvin    Cal/Mol-Kelvin
 Total                   38.191             38.249            107.094
 Electronic               0.000              0.000              0.000
 Translational            0.889              2.981             41.783
 Rotational               0.889              2.981             30.401
 Vibrational             36.413             32.288             34.910
 Vibration     1          0.594              1.983              5.732
 Vibration     2          0.596              1.974              4.489
 Vibration     3          0.599              1.965              3.984
 Vibration     4          0.613              1.920              2.903
 Vibration     5          0.626              1.876              2.409
 Vibration     6          0.651              1.799              1.898
 Vibration     7          0.653              1.792              1.862
 Vibration     8          0.671              1.736              1.625
 Vibration     9          0.686              1.693              1.475
 Vibration    10          0.699              1.656              1.367
 Vibration    11          0.703              1.643              1.331
 Vibration    12          0.742              1.535              1.082
 Vibration    13          0.777              1.442              0.916
 Vibration    14          0.794              1.398              0.849
 Vibration    15          0.865              1.228              0.634
 Vibration    16          0.902              1.147              0.551
 Vibration    17          0.950              1.047              0.462

 Optimization completed.
    -- Stationary point found.
 Normal termination of Gaussian 16 at Fri May 23 05:37:14 2025.
