 Gaussian 16, Revision C.01,
 Gaussian 16:  ES64L-G16RevC.01  3-Jul-2019

 ----------------------------------------------------------------------
 #P wb97xd/6-311++G(d,p) Symm(None) scf(xqc) pop(None) freq opt(CalcFC,
  Tight)
 ----------------------------------------------------------------------

 ------------------------------
 Gaussian input prepared by ASE
 ------------------------------
 Symbolic Z-matrix:
 Charge =  0 Multiplicity = 1

 SCF Done:  E(RwB97XD) =  -1199.81706127     A.U. after   15 cycles
 SCF Done:  E(RwB97XD) =  -1199.82030596     A.U. after   13 cycles
 SCF Done:  E(RwB97XD) =  -1199.82009859     A.U. after   12 cycles
 SCF Done:  E(RwB97XD) =  -1199.82072684     A.U. after   13 cycles
 SCF Done:  E(RwB97XD) =  -1199.82076045     A.U. after   11 cycles
 SCF Done:  E(RwB97XD) =  -1199.82076791     A.U. after   10 cycles
 SCF Done:  E(RwB97XD) =  -1199.82076856     A.U. after    9 cycles
 SCF Done:  E(RwB97XD) =  -1199.82076862     A.U. after    8 cycles
 SCF Done:  E(RwB97XD) =  -1199.82076862     A.U. after    5 cycles
 SCF Done:  E(RwB97XD) =  -1199.82076862     A.U. after    5 cycles
 Optimization completed.
    -- Stationary point found.
 Normal termination of Gaussian 16 at Fri May 23 04:23:06 2025.

 ----------------------------------------------------------------------
 #P Geom=AllCheck Guess=TCheck SCRF=Check GenChk RwB97XD/6-311++G(d,p)
 Freq
 ----------------------------------------------------------------------

 Structure from the checkpoint file:  "/tmp/Gau-248845.chk"
 ------------------------------
 Gaussian input prepared by ASE
 ------------------------------
 Charge =  0 Multiplicity = 1

                          Input orientation:
 ---------------------------------------------------------------------
 Center     Atomic      Atomic             Coordinates (Angstroms)
 Number     Number       Type             X           Y           Z
 ---------------------------------------------------------------------
      1          6           0        0.535532   -2.139420   -1.917530
      2          6           0        1.246577    0.036610   -0.063989
      3          9           0       -0.088838    0.198556   -0.141495
      4          9           0        1.481016   -0.776909    0.975594
      5         16           0        1.841737   -0.791011   -1.656278
      6          8           0        3.078021   -1.465805   -1.357251
      7          8           0        1.688073    0.151700   -2.732905
      8          8           0        1.913749    1.185824    0.014178
      9          9           0        1.024884   -2.973411   -2.817085
     10          9           0        0.314588   -2.784994   -0.782753
     11          9           0       -0.591311   -1.617566   -2.360814
     12          1           0        1.818786    1.572871    0.892206
 ---------------------------------------------------------------------

 SCF Done:  E(RwB97XD) =  -1199.82076862     A.U. after    1 cycles

 Isotropic polarizability for W=    0.000000       58.21 Bohr**3.
 End of Minotr F.D. properties file   721 does not exist.

                      1                      2                      3
                      A                      A                      A
 Frequencies --     36.2094                53.6482               114.2727
 Red. masses --     17.5902                13.0623                 5.4395
 Frc consts  --      0.0136                 0.0222                 0.0418
 IR Inten    --      0.0598                 2.0100                13.9685

                      4                      5                      6
                      A                      A                      A
 Frequencies --    142.8036               192.8707               199.1208
 Red. masses --      1.2905                16.8406                13.6109
 Frc consts  --      0.0155                 0.3691                 0.3180
 IR Inten    --     99.9378                 0.2361                12.7665

                      7                      8                      9
                      A                      A                      A
 Frequencies --    234.7566               274.1284               287.5709
 Red. masses --     14.1392                11.4777                13.8131
 Frc consts  --      0.4591                 0.5082                 0.6730
 IR Inten    --      7.2718                 2.2480                 2.2225

                     10                     11                     12
                      A                      A                      A
 Frequencies --    299.4826               334.7412               401.2635
 Red. masses --     14.5466                14.4825                17.3020
 Frc consts  --      0.7687                 0.9561                 1.6414
 IR Inten    --      3.4987                 0.7262                16.3060

                     13                     14                     15
                      A                      A                      A
 Frequencies --    521.6646               530.8226               554.4052
 Red. masses --     14.9693                15.2048                16.7754
 Frc consts  --      2.4001                 2.5242                 3.0379
 IR Inten    --     48.5034                54.2415                 2.2604

                     16                     17                     18
                      A                      A                      A
 Frequencies --    573.0649               590.0386               618.8338
 Red. masses --     15.7072                15.3625                14.7213
 Frc consts  --      3.0392                 3.1512                 3.3216
 IR Inten    --      3.8098                27.4063               179.3861

                     19                     20                     21
                      A                      A                      A
 Frequencies --    751.9450               784.4178              1014.3015
 Red. masses --      6.5740                14.5535                 4.0005
 Frc consts  --      2.1900                 5.2761                 2.4249
 IR Inten    --      2.0994                 2.5757               128.4952

                     22                     23                     24
                      A                      A                      A
 Frequencies --   1120.6528              1142.1291              1216.7898
 Red. masses --     13.5641                10.6528                 6.4971
 Frc consts  --     10.0365                 8.1873                 5.6676
 IR Inten    --    265.1361               178.6681                 4.2689

                     25                     26                     27
                      A                      A                      A
 Frequencies --   1237.4991              1255.1613              1296.1220
 Red. masses --     13.8664                13.0887                 6.3597
 Frc consts  --     12.5114                12.1492                 6.2947
 IR Inten    --    302.4243               274.9531               405.9950

                     28                     29                     30
                      A                      A                      A
 Frequencies --   1377.9639              1412.9633              3849.0573
 Red. masses --      2.4326                20.2206                 1.0654
 Frc consts  --      2.7214                23.7851                 9.3000
 IR Inten    --     56.8133               294.0456               144.9039

 - Thermochemistry -
 -------------------
 Temperature   298.150 Kelvin.  Pressure   1.00000 Atm.
 Atom     1 has atomic number  6 and mass  12.00000

 Molecular mass:   199.95666 amu.
 Principal axes and moments of inertia in atomic units:
                           1         2         3
     Eigenvalues --  1219.500892093.941222313.97683
           X            0.23853   0.79388  -0.55933
           Y            0.73239   0.23117   0.64044
           Z            0.63774  -0.56242  -0.52629
 This molecule is an asymmetric top.
 Rotational symmetry number  1.
 Warning -- assumption of classical behavior for rotation
           may cause significant error
 Rotational temperatures (Kelvin)      0.07102     0.04136     0.03743
 Rotational constants (GHZ):           1.47990     0.86189     0.77993
 Zero-point vibrational energy     134093.6 (Joules/Mol)
                                   32.04914 (Kcal/Mol)
 Warning -- explicit consideration of  18 degrees of freedom as
           vibrations may cause significant error
 Vibrational temperatures:     52.10    77.19   164.41   205.46   277.50
          (Kelvin)            286.49   337.76   394.41   413.75   430.89
                              481.62   577.33   750.56   763.74   797.67
                              824.51   848.93   890.36  1081.88  1128.60
                             1459.35  1612.37  1643.27  1750.69  1780.49
                             1805.90  1864.83  1982.58  2032.94  5537.94

 Zero-point correction=                           0.051074 (Hartree/Particle)
 Thermal correction to Energy=                    0.062014
 Thermal correction to Enthalpy=                  0.062958
 Thermal correction to Gibbs Free Energy=         0.013143
 Sum of electronic and zero-point Energies=          -1199.769695
 Sum of electronic and thermal Energies=             -1199.758754
 Sum of electronic and thermal Enthalpies=           -1199.757810
 Sum of electronic and thermal Free Energies=        -1199.807625

                     E (Thermal)             CV                S
                      KCal/Mol        Cal/Mol-Kelvin    Cal/Mol-Kelvin
 Total                   38.915             37.254            104.845
 Electronic               0.000              0.000              0.000
 Translational            0.889              2.981             41.783
 Rotational               0.889              2.981             30.159
 Vibrational             37.137             31.292             32.903
 Vibration     1          0.594              1.982              5.456
 Vibration     2          0.596              1.976              4.678
 Vibration     3          0.607              1.938              3.195
 Vibration     4          0.616              1.910              2.766
 Vibration     5          0.635              1.850              2.200
 Vibration     6          0.637              1.841              2.141
 Vibration     7          0.655              1.788              1.842
 Vibration     8          0.676              1.721              1.570
 Vibration     9          0.685              1.697              1.488
 Vibration    10          0.692              1.675              1.420
 Vibration    11          0.716              1.606              1.237
 Vibration    12          0.767              1.467              0.958
 Vibration    13          0.877              1.202              0.606
 Vibration    14          0.886              1.182              0.585
 Vibration    15          0.910              1.130              0.535
 Vibration    16          0.929              1.090              0.498
 Vibration    17          0.947              1.053              0.467
 Vibration    18          0.979              0.992              0.418

                           ! Non-Optimized Parameters !
 Normal termination of Gaussian 16 at Fri May 23 04:24:36 2025.
