 Gaussian 16, Revision C.01,
 Gaussian 16:  ES64L-G16RevC.01  3-Jul-2019

 ----------------------------------------------------------------------
 #P wb97xd/6-311++G(d,p) Symm(None) scf(xqc) pop(None) freq opt(CalcFC,
  Tight)
 ----------------------------------------------------------------------

 ------------------------------
 Gaussian input prepared by ASE
 ------------------------------
 Symbolic Z-matrix:
 Charge =  0 Multiplicity = 1

 SCF Done:  E(RwB97XD) =  -1199.66852764     A.U. after   16 cycles
 SCF Done:  E(RwB97XD) =  -1199.69912534     A.U. after   16 cycles
 SCF Done:  E(RwB97XD) =  -1199.70165742     A.U. after   15 cycles
 SCF Done:  E(RwB97XD) =  -1199.70711831     A.U. after   12 cycles
 SCF Done:  E(RwB97XD) =  -1199.71063284     A.U. after   14 cycles
 SCF Done:  E(RwB97XD) =  -1199.72025200     A.U. after   14 cycles
 SCF Done:  E(RwB97XD) =  -1199.62723709     A.U. after   16 cycles
 SCF Done:  E(RwB97XD) =  -1199.70370738     A.U. after   14 cycles
 SCF Done:  E(RwB97XD) =  -1199.72027334     A.U. after    9 cycles
 SCF Done:  E(RwB97XD) =  -1199.72701303     A.U. after   13 cycles
 SCF Done:  E(RwB97XD) =  -1199.73482804     A.U. after   11 cycles
 SCF Done:  E(RwB97XD) =  -1199.73483149     A.U. after   11 cycles
 SCF Done:  E(RwB97XD) =  -1199.73483601     A.U. after   11 cycles
 SCF Done:  E(RwB97XD) =  -1199.73483842     A.U. after   11 cycles
 SCF Done:  E(RwB97XD) =  -1199.73483919     A.U. after   10 cycles
 SCF Done:  E(RwB97XD) =  -1199.73483924     A.U. after    9 cycles
 SCF Done:  E(RwB97XD) =  -1199.73483925     A.U. after    9 cycles
 SCF Done:  E(RwB97XD) =  -1199.73483925     A.U. after    6 cycles
 SCF Done:  E(RwB97XD) =  -1199.73483925     A.U. after    6 cycles
 Optimization completed.
    -- Stationary point found.
 Normal termination of Gaussian 16 at Fri May 23 05:31:18 2025.

 ----------------------------------------------------------------------
 #P Geom=AllCheck Guess=TCheck SCRF=Check GenChk RwB97XD/6-311++G(d,p)
 Freq
 ----------------------------------------------------------------------

 Structure from the checkpoint file:  "/tmp/Gau-26075.chk"
 ------------------------------
 Gaussian input prepared by ASE
 ------------------------------
 Charge =  0 Multiplicity = 1

                          Input orientation:
 ---------------------------------------------------------------------
 Center     Atomic      Atomic             Coordinates (Angstroms)
 Number     Number       Type             X           Y           Z
 ---------------------------------------------------------------------
      1          6           0       -2.874712    1.573524    0.954478
      2          6           0       -1.396391    1.139644    1.075307
      3          9           0       -0.988547    1.266348    2.331703
      4          9           0       -1.299437   -0.151184    0.698349
      5         16           0       -0.237397    2.144071   -0.078024
      6          8           0        1.269198    0.235745   -0.789025
      7          8           0        0.000330    3.389756    0.641317
      8          8           0        1.088761    1.135353    0.293209
      9          9           0       -3.025651    2.825061    1.364640
     10          9           0       -3.250897    1.491436   -0.324633
     11          9           0       -3.654608    0.781772    1.681016
     12          1           0        0.968956   -0.595095   -0.398959
 ---------------------------------------------------------------------

 SCF Done:  E(RwB97XD) =  -1199.73483925     A.U. after    1 cycles

 Isotropic polarizability for W=    0.000000       60.95 Bohr**3.
 End of Minotr F.D. properties file   721 does not exist.

                      1                      2                      3
                      A                      A                      A
 Frequencies --     22.8865                54.1537                74.7308
 Red. masses --     13.6822                14.1425                 7.9095
 Frc consts  --      0.0042                 0.0244                 0.0260
 IR Inten    --      1.3515                 1.4915                 3.4224

                      4                      5                      6
                      A                      A                      A
 Frequencies --    125.1504               189.8474               213.6069
 Red. masses --     15.9614                10.0388                 9.5661
 Frc consts  --      0.1473                 0.2132                 0.2572
 IR Inten    --      3.7017                 5.3508                 8.1118

                      7                      8                      9
                      A                      A                      A
 Frequencies --    225.4879               262.3149               291.5568
 Red. masses --     14.8756                17.7696                17.5750
 Frc consts  --      0.4456                 0.7204                 0.8802
 IR Inten    --      2.3735                 5.6404                 7.2552

                     10                     11                     12
                      A                      A                      A
 Frequencies --    317.4123               349.6431               369.4726
 Red. masses --     11.7211                 1.7246                12.0152
 Frc consts  --      0.6958                 0.1242                 0.9664
 IR Inten    --      0.8208                90.9907                 9.0115

                     13                     14                     15
                      A                      A                      A
 Frequencies --    409.6423               419.1167               511.7617
 Red. masses --      5.1149                 7.6337                19.5909
 Frc consts  --      0.5057                 0.7901                 3.0230
 IR Inten    --     17.8570                30.6620                33.5697

                     16                     17                     18
                      A                      A                      A
 Frequencies --    547.1369               600.5896               639.6386
 Red. masses --     18.5053                18.0776                17.0498
 Frc consts  --      3.2639                 3.8419                 4.1100
 IR Inten    --      3.2141                 7.0543                45.0162

                     19                     20                     21
                      A                      A                      A
 Frequencies --    694.1896               758.3419               960.0500
 Red. masses --     17.6804                17.1840                13.4972
 Frc consts  --      5.0199                 5.8224                 7.3296
 IR Inten    --     65.6655                18.6756               104.2439

                     22                     23                     24
                      A                      A                      A
 Frequencies --    995.7610              1143.5178              1216.9890
 Red. masses --     14.9192                13.3301                14.3361
 Frc consts  --      8.7157                10.2700                12.5100
 IR Inten    --      1.9852               160.9644               110.4724

                     25                     26                     27
                      A                      A                      A
 Frequencies --   1224.9390              1231.2483              1258.4564
 Red. masses --     13.2313                14.6495                14.5940
 Frc consts  --     11.6972                13.0847                13.6176
 IR Inten    --    256.8262                 9.1199               476.6757

                     28                     29                     30
                      A                      A                      A
 Frequencies --   1353.5885              1428.7199              3820.0009
 Red. masses --     12.6920                 1.1066                 1.0687
 Frc consts  --     13.7010                 1.3309                 9.1885
 IR Inten    --    148.4269                54.3390                66.4512

 - Thermochemistry -
 -------------------
 Temperature   298.150 Kelvin.  Pressure   1.00000 Atm.
 Atom     1 has atomic number  6 and mass  12.00000

 Molecular mass:   199.95666 amu.
 Principal axes and moments of inertia in atomic units:
                           1         2         3
     Eigenvalues --  1127.143162465.593162756.34716
           X            0.95166   0.08029   0.29647
           Y           -0.06719   0.99627  -0.05413
           Z           -0.29971   0.03160   0.95351
 This molecule is an asymmetric top.
 Rotational symmetry number  1.
 Warning -- assumption of classical behavior for rotation
           may cause significant error
 Rotational temperatures (Kelvin)      0.07684     0.03513     0.03142
 Rotational constants (GHZ):           1.60116     0.73197     0.65476
 Zero-point vibrational energy     129854.3 (Joules/Mol)
                                   31.03593 (Kcal/Mol)
 Warning -- explicit consideration of  17 degrees of freedom as
           vibrations may cause significant error
 Vibrational temperatures:     32.93    77.92   107.52   180.06   273.15
          (Kelvin)            307.33   324.43   377.41   419.49   456.69
                              503.06   531.59   589.38   603.02   736.31
                              787.21   864.11   920.30   998.78  1091.08
                             1381.30  1432.68  1645.27  1750.98  1762.41
                             1771.49  1810.64  1947.51  2055.61  5496.13

 Zero-point correction=                           0.049459 (Hartree/Particle)
 Thermal correction to Energy=                    0.060801
 Thermal correction to Enthalpy=                  0.061746
 Thermal correction to Gibbs Free Energy=         0.010457
 Sum of electronic and zero-point Energies=          -1199.685380
 Sum of electronic and thermal Energies=             -1199.674038
 Sum of electronic and thermal Enthalpies=           -1199.673094
 Sum of electronic and thermal Free Energies=        -1199.724382

                     E (Thermal)             CV                S
                      KCal/Mol        Cal/Mol-Kelvin    Cal/Mol-Kelvin
 Total                   38.153             38.273            107.945
 Electronic               0.000              0.000              0.000
 Translational            0.889              2.981             41.783
 Rotational               0.889              2.981             30.417
 Vibrational             36.376             32.311             35.745
 Vibration     1          0.593              1.985              6.367
 Vibration     2          0.596              1.976              4.660
 Vibration     3          0.599              1.966              4.025
 Vibration     4          0.610              1.928              3.019
 Vibration     5          0.633              1.854              2.229
 Vibration     6          0.644              1.820              2.013
 Vibration     7          0.650              1.802              1.915
 Vibration     8          0.670              1.742              1.646
 Vibration     9          0.687              1.689              1.465
 Vibration    10          0.704              1.640              1.323
 Vibration    11          0.727              1.576              1.168
 Vibration    12          0.742              1.535              1.082
 Vibration    13          0.774              1.449              0.928
 Vibration    14          0.782              1.429              0.895
 Vibration    15          0.867              1.224              0.629
 Vibration    16          0.902              1.146              0.550
 Vibration    17          0.959              1.031              0.449

                           ! Non-Optimized Parameters !
 Normal termination of Gaussian 16 at Fri May 23 05:32:42 2025.
