 Gaussian 16, Revision C.01,
 Gaussian 16:  ES64L-G16RevC.01  3-Jul-2019

 ----------------------------------------------------------------------
 #P wb97xd/6-311++G(d,p) Symm(None) scf(xqc) pop(None) freq opt(CalcFC,
  Tight)
 ----------------------------------------------------------------------

 ------------------------------
 Gaussian input prepared by ASE
 ------------------------------
 Symbolic Z-matrix:
 Charge =  0 Multiplicity = 1

 SCF Done:  E(RwB97XD) =  -1199.59236020     A.U. after   19 cycles
 SCF Done:  E(RwB97XD) =  -1199.59909091     A.U. after   19 cycles
 SCF Done:  E(RwB97XD) =  -1199.60015413     A.U. after   18 cycles
 SCF Done:  E(RwB97XD) =  -1199.59984405     A.U. after   19 cycles
 SCF Done:  E(RwB97XD) =  -1199.60045524     A.U. after   18 cycles
 SCF Done:  E(RwB97XD) =  -1199.60091753     A.U. after   17 cycles
 SCF Done:  E(RwB97XD) =  -1199.60119801     A.U. after   18 cycles
 SCF Done:  E(RwB97XD) =  -1199.60158625     A.U. after   17 cycles
 SCF Done:  E(RwB97XD) =  -1199.60235154     A.U. after   18 cycles
 SCF Done:  E(RwB97XD) =  -1199.60207531     A.U. after   18 cycles
 SCF Done:  E(RwB97XD) =  -1199.60327568     A.U. after   17 cycles
 SCF Done:  E(RwB97XD) =  -1199.60353923     A.U. after   17 cycles
 SCF Done:  E(RwB97XD) =  -1199.60356134     A.U. after   16 cycles
 SCF Done:  E(RwB97XD) =  -1199.60356881     A.U. after   14 cycles
 SCF Done:  E(RwB97XD) =  -1199.60356938     A.U. after   12 cycles
 SCF Done:  E(RwB97XD) =  -1199.60356944     A.U. after   11 cycles
 SCF Done:  E(RwB97XD) =  -1199.60356945     A.U. after    9 cycles
 SCF Done:  E(RwB97XD) =  -1199.60356945     A.U. after    9 cycles
 SCF Done:  E(RwB97XD) =  -1199.60356945     A.U. after    8 cycles
 Optimization completed.
    -- Stationary point found.
 Normal termination of Gaussian 16 at Fri May 23 07:39:29 2025.

 ----------------------------------------------------------------------
 #P Geom=AllCheck Guess=TCheck SCRF=Check GenChk RwB97XD/6-311++G(d,p)
 Freq
 ----------------------------------------------------------------------

 Structure from the checkpoint file:  "/tmp/Gau-109068.chk"
 ------------------------------
 Gaussian input prepared by ASE
 ------------------------------
 Charge =  0 Multiplicity = 1

                          Input orientation:
 ---------------------------------------------------------------------
 Center     Atomic      Atomic             Coordinates (Angstroms)
 Number     Number       Type             X           Y           Z
 ---------------------------------------------------------------------
      1          6           0       -0.714301    0.560868   -1.344497
      2          6           0       -0.046685   -0.133100   -0.117708
      3          9           0       -0.616396    0.269185    0.999653
      4          9           0       -0.338991   -1.502299   -0.277822
      5         16           0        1.853979   -0.069105    0.085927
      6          8           0        0.489101   -2.353149    0.878196
      7          8           0        2.424176   -0.715862   -1.084386
      8          8           0        1.758785    1.575564   -0.184690
      9          9           0       -0.818230    1.859965   -1.124257
     10          9           0       -0.012247    0.344818   -2.443009
     11          9           0       -1.939695    0.061365   -1.509506
     12          1           0        2.486258    2.015614    0.266544
 ---------------------------------------------------------------------

 SCF Done:  E(RwB97XD) =  -1199.60356945     A.U. after    1 cycles

 Isotropic polarizability for W=    0.000000       61.96 Bohr**3.
 End of Minotr F.D. properties file   721 does not exist.

                      1                      2                      3
                      A                      A                      A
 Frequencies --     38.3071                81.4917               103.5752
 Red. masses --     13.0223                11.7529                16.2967
 Frc consts  --      0.0113                 0.0460                 0.1030
 IR Inten    --      1.4934                 3.3595                 1.5244

                      4                      5                      6
                      A                      A                      A
 Frequencies --    141.8577               158.5945               192.8419
 Red. masses --     13.2368                12.5645                13.0669
 Frc consts  --      0.1569                 0.1862                 0.2863
 IR Inten    --      0.3653                 5.8934                 8.0140

                      7                      8                      9
                      A                      A                      A
 Frequencies --    204.9822               233.6632               250.8890
 Red. masses --      2.1704                 5.9644                 3.7138
 Frc consts  --      0.0537                 0.1919                 0.1377
 IR Inten    --     64.8017                26.6445                19.4278

                     10                     11                     12
                      A                      A                      A
 Frequencies --    287.0622               321.1584               358.3602
 Red. masses --     17.0016                 8.2733                12.2793
 Frc consts  --      0.8255                 0.5028                 0.9291
 IR Inten    --      1.0431                 9.9683                 1.1368

                     13                     14                     15
                      A                      A                      A
 Frequencies --    408.1481               431.3933               476.7853
 Red. masses --      9.7754                14.3926                14.4599
 Frc consts  --      0.9594                 1.5781                 1.9367
 IR Inten    --     26.7976                13.5472                12.2707

                     16                     17                     18
                      A                      A                      A
 Frequencies --    533.4233               557.5561               596.6201
 Red. masses --     17.9055                17.3584                17.5614
 Frc consts  --      3.0018                 3.1793                 3.6830
 IR Inten    --     11.7070                35.0853                23.1848

                     19                     20                     21
                      A                      A                      A
 Frequencies --    630.7795               722.0122               757.2004
 Red. masses --     16.6218                15.1446                16.6490
 Frc consts  --      3.8966                 4.6515                 5.6242
 IR Inten    --      3.8256               129.8511                50.3761

                     22                     23                     24
                      A                      A                      A
 Frequencies --    975.7705               996.7032              1102.9509
 Red. masses --      9.1915                 9.4120                 1.2332
 Frc consts  --      5.1562                 5.5089                 0.8839
 IR Inten    --    219.5444                70.8850                73.9315

                     25                     26                     27
                      A                      A                      A
 Frequencies --   1213.1116              1224.7311              1245.6024
 Red. masses --     12.6466                13.0805                15.8605
 Frc consts  --     10.9655                11.5600                14.4986
 IR Inten    --    149.0553               219.3351                86.5139

                     28                     29                     30
                      A                      A                      A
 Frequencies --   1276.0871              1327.5594              3878.9808
 Red. masses --     14.2414                12.5317                 1.0674
 Frc consts  --     13.6635                13.0127                 9.4624
 IR Inten    --    480.4755               131.3733               163.9358

 - Thermochemistry -
 -------------------
 Temperature   298.150 Kelvin.  Pressure   1.00000 Atm.
 Atom     1 has atomic number  6 and mass  12.00000

 Molecular mass:   199.95666 amu.
 Principal axes and moments of inertia in atomic units:
                           1         2         3
     Eigenvalues --  1444.244421925.290722383.98599
           X            0.80061   0.56144  -0.20929
           Y           -0.40722   0.76608   0.49729
           Z            0.43953  -0.31291   0.84196
 This molecule is an asymmetric top.
 Rotational symmetry number  1.
 Warning -- assumption of classical behavior for rotation
           may cause significant error
 Rotational temperatures (Kelvin)      0.05997     0.04499     0.03633
 Rotational constants (GHZ):           1.24961     0.93739     0.75703
 Zero-point vibrational energy     123982.2 (Joules/Mol)
                                   29.63245 (Kcal/Mol)
 Warning -- explicit consideration of  18 degrees of freedom as
           vibrations may cause significant error
 Vibrational temperatures:     55.12   117.25   149.02   204.10   228.18
          (Kelvin)            277.46   294.92   336.19   360.97   413.02
                              462.08   515.60   587.23   620.68   685.99
                              767.48   802.20   858.40   907.55  1038.81
                             1089.44  1403.92  1434.03  1586.90  1745.40
                             1762.11  1792.14  1836.00  1910.06  5580.99

 Zero-point correction=                           0.047222 (Hartree/Particle)
 Thermal correction to Energy=                    0.058882
 Thermal correction to Enthalpy=                  0.059826
 Thermal correction to Gibbs Free Energy=         0.008895
 Sum of electronic and zero-point Energies=          -1199.556347
 Sum of electronic and thermal Energies=             -1199.544687
 Sum of electronic and thermal Enthalpies=           -1199.543743
 Sum of electronic and thermal Free Energies=        -1199.594675

                     E (Thermal)             CV                S
                      KCal/Mol        Cal/Mol-Kelvin    Cal/Mol-Kelvin
 Total                   36.949             39.671            107.195
 Electronic               0.000              0.000              0.000
 Translational            0.889              2.981             41.783
 Rotational               0.889              2.981             30.273
 Vibrational             35.172             33.710             35.139
 Vibration     1          0.594              1.982              5.345
 Vibration     2          0.600              1.962              3.855
 Vibration     3          0.605              1.946              3.386
 Vibration     4          0.615              1.911              2.779
 Vibration     5          0.621              1.893              2.566
 Vibration     6          0.635              1.850              2.200
 Vibration     7          0.640              1.833              2.088
 Vibration     8          0.654              1.789              1.851
 Vibration     9          0.663              1.761              1.724
 Vibration    10          0.684              1.698              1.491
 Vibration    11          0.707              1.633              1.304
 Vibration    12          0.733              1.558              1.129
 Vibration    13          0.773              1.453              0.933
 Vibration    14          0.792              1.402              0.854
 Vibration    15          0.833              1.302              0.719
 Vibration    16          0.888              1.176              0.580
 Vibration    17          0.913              1.123              0.529
 Vibration    18          0.954              1.039              0.456

 Optimization completed.
    -- Stationary point found.
 Normal termination of Gaussian 16 at Fri May 23 07:40:49 2025.
