 Gaussian 16, Revision C.01,
 Gaussian 16:  ES64L-G16RevC.01  3-Jul-2019

 ----------------------------------------------------------------------
 #P wb97xd/6-311++G(d,p) Symm(None) scf(xqc) pop(None) opt(NoFreeze,TS,
 CalcAll,NoEigentest,MaxCycle=999)
 ----------------------------------------------------------------------

 ------------------------------
 Gaussian input prepared by ASE
 ------------------------------
 Symbolic Z-matrix:
 Charge =  0 Multiplicity = 1

 SCF Done:  E(RwB97XD) =  -1199.65951954     A.U. after   17 cycles
 SCF Done:  E(RwB97XD) =  -1199.67159417     A.U. after   17 cycles
 SCF Done:  E(RwB97XD) =  -1199.67407517     A.U. after   16 cycles
 SCF Done:  E(RwB97XD) =  -1199.67364967     A.U. after   18 cycles
 SCF Done:  E(RwB97XD) =  -1199.67446259     A.U. after   15 cycles
 SCF Done:  E(RwB97XD) =  -1199.67453256     A.U. after   14 cycles
 SCF Done:  E(RwB97XD) =  -1199.67453358     A.U. after   11 cycles

 Isotropic polarizability for W=    0.000000       70.59 Bohr**3.
 End of Minotr F.D. properties file   721 does not exist.

 Optimization completed.
    -- Stationary point found.

                          Input orientation:
 ---------------------------------------------------------------------
 Center     Atomic      Atomic             Coordinates (Angstroms)
 Number     Number       Type             X           Y           Z
 ---------------------------------------------------------------------
      1          6           0       -0.243119    1.344696    0.319827
      2          6           0        0.014520   -0.042417    0.206111
      3          9           0       -0.191599   -0.740747    1.310519
      4          9           0       -0.474966   -0.642617   -0.870000
      5         16           0        2.286576    0.016292   -0.160558
      6          8           0        2.358978   -1.172872    0.646161
      7          8           0        2.095887    0.090477   -1.585339
      8          8           0        3.719311    0.669857    0.165353
      9          9           0        1.676538    1.798805    0.446347
     10          9           0       -0.491961    2.050810   -0.713856
     11          9           0       -0.511782    1.905398    1.436875
     12          1           0        3.726605    1.588185   -0.134783
 ---------------------------------------------------------------------

 ******    1 imaginary frequencies (negative Signs) ******

                      1                      2                      3
                      A                      A                      A
 Frequencies --   -643.9613                36.4643                76.4022
 Red. masses --     14.0700                14.2604                 8.3574
 Frc consts  --      3.4377                 0.0112                 0.0287
 IR Inten    --    189.7431                 0.9091                 8.7161

                      4                      5                      6
                      A                      A                      A
 Frequencies --    169.4469               191.0480               197.6358
 Red. masses --     12.8622                12.7720                12.3550
 Frc consts  --      0.2176                 0.2747                 0.2843
 IR Inten    --     18.9283                 4.7822                 3.5557

                      7                      8                      9
                      A                      A                      A
 Frequencies --    214.7078               240.0012               277.4243
 Red. masses --     18.0473                 3.9063                 7.4175
 Frc consts  --      0.4902                 0.1326                 0.3364
 IR Inten    --      4.9327                15.7671                 6.2601

                     10                     11                     12
                      A                      A                      A
 Frequencies --    303.1331               328.2907               370.3273
 Red. masses --     13.5941                14.3045                10.9388
 Frc consts  --      0.7360                 0.9083                 0.8839
 IR Inten    --     11.9028                13.9573                63.9339

                     13                     14                     15
                      A                      A                      A
 Frequencies --    423.8212               436.8023               488.5109
 Red. masses --      3.9020                 3.8469                 6.9090
 Frc consts  --      0.4130                 0.4324                 0.9714
 IR Inten    --    164.5368                72.0807                36.1158

                     16                     17                     18
                      A                      A                      A
 Frequencies --    520.9632               545.7440               555.7375
 Red. masses --     10.4321                14.5806                15.1022
 Frc consts  --      1.6682                 2.5586                 2.7481
 IR Inten    --    114.5986               163.9027                96.9750

                     19                     20                     21
                      A                      A                      A
 Frequencies --    600.5572               680.4709               782.1042
 Red. masses --     16.9934                12.2493                15.9218
 Frc consts  --      3.6111                 3.3418                 5.7382
 IR Inten    --      9.1333                14.6082               222.5516

                     22                     23                     24
                      A                      A                      A
 Frequencies --    821.7499              1134.4471              1198.6407
 Red. masses --     17.0443                 9.9185                 2.7807
 Frc consts  --      6.7812                 7.5208                 2.3539
 IR Inten    --    196.3778                72.9413               258.2910

                     25                     26                     27
                      A                      A                      A
 Frequencies --   1205.5618              1293.3947              1401.3078
 Red. masses --      1.9717                13.1165                13.3020
 Frc consts  --      1.6884                12.9280                15.3899
 IR Inten    --    181.4435               122.9648               194.2456

                     28                     29                     30
                      A                      A                      A
 Frequencies --   1458.1331              1558.7365              3830.1813
 Red. masses --     13.2562                12.5220                 1.0659
 Frc consts  --     16.6060                17.9254                 9.2128
 IR Inten    --    345.8100               704.5481               134.3220

 - Thermochemistry -
 -------------------
 Temperature   298.150 Kelvin.  Pressure   1.00000 Atm.
 Atom     1 has atomic number  6 and mass  12.00000

 Molecular mass:   199.95666 amu.
 Principal axes and moments of inertia in atomic units:
                           1         2         3
     Eigenvalues --  1275.929022105.848352373.27218
           X            0.94032   0.31259   0.13448
           Y           -0.30752   0.94980  -0.05753
           Z           -0.14571   0.01274   0.98924
 This molecule is an asymmetric top.
 Rotational symmetry number  1.
 Warning -- assumption of classical behavior for rotation
           may cause significant error
 Rotational temperatures (Kelvin)      0.06788     0.04113     0.03650
 Rotational constants (GHZ):           1.41445     0.85701     0.76044
    1 imaginary frequencies ignored.
 Zero-point vibrational energy     127652.0 (Joules/Mol)
                                   30.50956 (Kcal/Mol)
 Warning -- explicit consideration of  18 degrees of freedom as
           vibrations may cause significant error
 Vibrational temperatures:     52.46   109.93   243.80   274.88   284.35
          (Kelvin)            308.92   345.31   399.15   436.14   472.34
                              532.82   609.78   628.46   702.86   749.55
                              785.20   799.58   864.07   979.05  1125.27
                             1182.31  1632.22  1724.58  1734.53  1860.91
                             2016.17  2097.93  2242.67  5510.78

 Zero-point correction=                           0.048620 (Hartree/Particle)
 Thermal correction to Energy=                    0.059378
 Thermal correction to Enthalpy=                  0.060323
 Thermal correction to Gibbs Free Energy=         0.011455
 Sum of electronic and zero-point Energies=          -1199.625914
 Sum of electronic and thermal Energies=             -1199.615155
 Sum of electronic and thermal Enthalpies=           -1199.614211
 Sum of electronic and thermal Free Energies=        -1199.663079

                     E (Thermal)             CV                S
                      KCal/Mol        Cal/Mol-Kelvin    Cal/Mol-Kelvin
 Total                   37.260             37.438            102.851
 Electronic               0.000              0.000              0.000
 Translational            0.889              2.981             41.783
 Rotational               0.889              2.981             30.234
 Vibrational             35.483             31.476             30.833
 Vibration     1          0.594              1.982              5.442
 Vibration     2          0.599              1.965              3.981
 Vibration     3          0.625              1.880              2.442
 Vibration     4          0.634              1.852              2.218
 Vibration     5          0.637              1.843              2.155
 Vibration     6          0.645              1.819              2.003
 Vibration     7          0.657              1.779              1.803
 Vibration     8          0.678              1.715              1.550
 Vibration     9          0.695              1.668              1.400
 Vibration    10          0.712              1.619              1.268
 Vibration    11          0.742              1.533              1.078
 Vibration    12          0.786              1.418              0.879
 Vibration    13          0.797              1.390              0.837
 Vibration    14          0.844              1.276              0.687
 Vibration    15          0.876              1.204              0.608
 Vibration    16          0.901              1.149              0.553
 Vibration    17          0.911              1.127              0.532
 Vibration    18          0.959              1.031              0.449

 Normal termination of Gaussian 16 at Fri May 23 05:10:57 2025.
