 Gaussian 16, Revision C.01,
 Gaussian 16:  ES64L-G16RevC.01  3-Jul-2019

 ----------------------------------------------------------------------
 #P wb97xd/6-311++G(d,p) Symm(None) scf(xqc) pop(None) freq opt(CalcFC,
  Tight)
 ----------------------------------------------------------------------

 ------------------------------
 Gaussian input prepared by ASE
 ------------------------------
 Symbolic Z-matrix:
 Charge =  0 Multiplicity = 1

 SCF Done:  E(RwB97XD) =  -1199.60334747     A.U. after   17 cycles
 SCF Done:  E(RwB97XD) =  -1199.60861732     A.U. after   14 cycles
 SCF Done:  E(RwB97XD) =  -1199.56082319     A.U. after   15 cycles
 SCF Done:  E(RwB97XD) =  -1199.61047480     A.U. after   14 cycles
 SCF Done:  E(RwB97XD) =  -1199.61082551     A.U. after   14 cycles
 SCF Done:  E(RwB97XD) =  -1199.61085557     A.U. after   12 cycles
 SCF Done:  E(RwB97XD) =  -1199.61085816     A.U. after   11 cycles
 SCF Done:  E(RwB97XD) =  -1199.61085845     A.U. after   10 cycles
 SCF Done:  E(RwB97XD) =  -1199.61085847     A.U. after    8 cycles
 SCF Done:  E(RwB97XD) =  -1199.61085847     A.U. after    7 cycles
 Optimization completed.
    -- Stationary point found.
 Normal termination of Gaussian 16 at Fri May 23 05:19:08 2025.

 ----------------------------------------------------------------------
 #P Geom=AllCheck Guess=TCheck SCRF=Check GenChk RwB97XD/6-311++G(d,p)
 Freq
 ----------------------------------------------------------------------

 Structure from the checkpoint file:  "/tmp/Gau-273338.chk"
 ------------------------------
 Gaussian input prepared by ASE
 ------------------------------
 Charge =  0 Multiplicity = 1

                          Input orientation:
 ---------------------------------------------------------------------
 Center     Atomic      Atomic             Coordinates (Angstroms)
 Number     Number       Type             X           Y           Z
 ---------------------------------------------------------------------
      1          6           0        2.664310    0.096855   -2.601448
      2          6           0        2.622771   -0.556643   -1.247057
      3          9           0       -0.389941    0.734042   -1.052463
      4          9           0        2.811747   -1.885006   -1.303907
      5         16           0        1.774758   -0.064596    0.048208
      6          8           0        0.013041    0.071076    0.131245
      7          8           0        1.932941   -0.826254    1.249888
      8          8           0        2.070841    1.485239    0.098967
      9          9           0        2.390862    1.399399   -2.558162
     10          9           0        3.883976   -0.059983   -3.126105
     11          9           0        1.797589   -0.477701   -3.448264
     12          1           0        1.275582    1.979996    0.344802
 ---------------------------------------------------------------------

 SCF Done:  E(RwB97XD) =  -1199.61085847     A.U. after    1 cycles

 Isotropic polarizability for W=    0.000000       63.33 Bohr**3.
 End of Minotr F.D. properties file   721 does not exist.

                      1                      2                      3
                      A                      A                      A
 Frequencies --     36.2092                67.4105                77.0847
 Red. masses --     17.5149                17.0090                16.3254
 Frc consts  --      0.0135                 0.0455                 0.0572
 IR Inten    --      0.1598                 0.4577                 1.3396

                      4                      5                      6
                      A                      A                      A
 Frequencies --    163.1213               182.2601               204.1987
 Red. masses --      8.7688                11.2545                16.5235
 Frc consts  --      0.1375                 0.2203                 0.4059
 IR Inten    --      3.1616                11.8673                 2.0177

                      7                      8                      9
                      A                      A                      A
 Frequencies --    238.6103               297.2320               319.2942
 Red. masses --     12.8321                10.8527                10.2397
 Frc consts  --      0.4305                 0.5649                 0.6151
 IR Inten    --      2.7171                 8.6034                10.3738

                     10                     11                     12
                      A                      A                      A
 Frequencies --    321.6004               359.0442               373.1260
 Red. masses --     13.4137                 1.2887                14.0160
 Frc consts  --      0.8174                 0.0979                 1.1497
 IR Inten    --      3.9117                92.9957                 9.9437

                     13                     14                     15
                      A                      A                      A
 Frequencies --    426.1411               462.3434               465.4959
 Red. masses --      9.2162                16.2093                14.6209
 Frc consts  --      0.9861                 2.0415                 1.8666
 IR Inten    --     26.7816                 8.4960                27.3152

                     16                     17                     18
                      A                      A                      A
 Frequencies --    544.2757               596.6711               603.0014
 Red. masses --     13.5932                15.5035                16.0454
 Frc consts  --      2.3725                 3.2520                 3.4375
 IR Inten    --     23.1496                 5.2595                 9.9046

                     19                     20                     21
                      A                      A                      A
 Frequencies --    629.5719               766.5482               883.2687
 Red. masses --     12.8823                15.9886                17.6040
 Frc consts  --      3.0084                 5.5353                 8.0918
 IR Inten    --    266.7075                21.5486               173.8443

                     22                     23                     24
                      A                      A                      A
 Frequencies --    956.2772              1081.7878              1167.1447
 Red. masses --     16.9580                 6.9769                 7.8919
 Frc consts  --      9.1368                 4.8106                 6.3340
 IR Inten    --     18.8699               151.5600               372.8579

                     25                     26                     27
                      A                      A                      A
 Frequencies --   1179.5437              1216.8325              1274.0454
 Red. masses --      1.4024                12.3577                12.6847
 Frc consts  --      1.1496                10.7808                12.1311
 IR Inten    --     57.8811               332.4783                29.8559

                     28                     29                     30
                      A                      A                      A
 Frequencies --   1339.7967              1375.8540              3798.8083
 Red. masses --     11.4998                16.8200                 1.0660
 Frc consts  --     12.1624                18.7595                 9.0634
 IR Inten    --    328.6061               250.5565               180.6185

 - Thermochemistry -
 -------------------
 Temperature   298.150 Kelvin.  Pressure   1.00000 Atm.
 Atom     1 has atomic number  6 and mass  12.00000

 Molecular mass:   199.95666 amu.
 Principal axes and moments of inertia in atomic units:
                           1         2         3
     Eigenvalues --  1267.488832280.923852660.37547
           X           -0.51115  -0.61511   0.60030
           Y            0.06298   0.66976   0.73991
           Z            0.85718  -0.41601   0.30360
 This molecule is an asymmetric top.
 Rotational symmetry number  1.
 Warning -- assumption of classical behavior for rotation
           may cause significant error
 Rotational temperatures (Kelvin)      0.06834     0.03797     0.03256
 Rotational constants (GHZ):           1.42387     0.79123     0.67838
 Zero-point vibrational energy     128039.9 (Joules/Mol)
                                   30.60227 (Kcal/Mol)
 Warning -- explicit consideration of  18 degrees of freedom as
           vibrations may cause significant error
 Vibrational temperatures:     52.10    96.99   110.91   234.70   262.23
          (Kelvin)            293.80   343.31   427.65   459.39   462.71
                              516.58   536.85   613.12   665.21   669.74
                              783.09   858.48   867.58   905.81  1102.89
                             1270.83  1375.87  1556.45  1679.26  1697.10
                             1750.75  1833.07  1927.67  1979.55  5465.64

 Zero-point correction=                           0.048768 (Hartree/Particle)
 Thermal correction to Energy=                    0.059958
 Thermal correction to Enthalpy=                  0.060902
 Thermal correction to Gibbs Free Energy=         0.010621
 Sum of electronic and zero-point Energies=          -1199.562091
 Sum of electronic and thermal Energies=             -1199.550900
 Sum of electronic and thermal Enthalpies=           -1199.549956
 Sum of electronic and thermal Free Energies=        -1199.600238

                     E (Thermal)             CV                S
                      KCal/Mol        Cal/Mol-Kelvin    Cal/Mol-Kelvin
 Total                   37.624             38.537            105.827
 Electronic               0.000              0.000              0.000
 Translational            0.889              2.981             41.783
 Rotational               0.889              2.981             30.421
 Vibrational             35.847             32.575             33.623
 Vibration     1          0.594              1.982              5.456
 Vibration     2          0.598              1.970              4.228
 Vibration     3          0.599              1.964              3.964
 Vibration     4          0.623              1.888              2.513
 Vibration     5          0.630              1.864              2.305
 Vibration     6          0.640              1.834              2.095
 Vibration     7          0.657              1.781              1.813
 Vibration     8          0.691              1.679              1.432
 Vibration     9          0.705              1.637              1.314
 Vibration    10          0.707              1.632              1.302
 Vibration    11          0.734              1.557              1.126
 Vibration    12          0.745              1.527              1.067
 Vibration    13          0.788              1.413              0.871
 Vibration    14          0.820              1.334              0.759
 Vibration    15          0.823              1.327              0.750
 Vibration    16          0.899              1.152              0.556
 Vibration    17          0.955              1.039              0.455
 Vibration    18          0.961              1.025              0.445

 Optimization completed.
    -- Stationary point found.
 Normal termination of Gaussian 16 at Fri May 23 05:20:21 2025.
