 Gaussian 16, Revision C.01,
 Gaussian 16:  ES64L-G16RevC.01  3-Jul-2019

 ----------------------------------------------------------------------
 #P wb97xd/6-311++G(d,p) Symm(None) scf(xqc) pop(None) freq opt(CalcFC,
  Tight)
 ----------------------------------------------------------------------

 ------------------------------
 Gaussian input prepared by ASE
 ------------------------------
 Symbolic Z-matrix:
 Charge =  0 Multiplicity = 1

 SCF Done:  E(RwB97XD) =  -1199.81765218     A.U. after   15 cycles
 SCF Done:  E(RwB97XD) =  -1199.82198919     A.U. after   14 cycles
 SCF Done:  E(RwB97XD) =  -1199.82065103     A.U. after   14 cycles
 SCF Done:  E(RwB97XD) =  -1199.78480596     A.U. after   14 cycles
 SCF Done:  E(RwB97XD) =  -1199.78713735     A.U. after   14 cycles
 SCF Done:  E(RwB97XD) =  -1199.82203586     A.U. after   10 cycles
 SCF Done:  E(RwB97XD) =  -1199.82234390     A.U. after   12 cycles
 SCF Done:  E(RwB97XD) =  -1199.82254085     A.U. after   12 cycles
 SCF Done:  E(RwB97XD) =  -1199.82279188     A.U. after   12 cycles
 SCF Done:  E(RwB97XD) =  -1199.82391997     A.U. after   14 cycles
 SCF Done:  E(RwB97XD) =  -1199.82543551     A.U. after   11 cycles
 SCF Done:  E(RwB97XD) =  -1199.82548914     A.U. after   11 cycles
 SCF Done:  E(RwB97XD) =  -1199.82549596     A.U. after   11 cycles
 SCF Done:  E(RwB97XD) =  -1199.82550659     A.U. after   10 cycles
 SCF Done:  E(RwB97XD) =  -1199.82550923     A.U. after   10 cycles
 SCF Done:  E(RwB97XD) =  -1199.82550954     A.U. after    9 cycles
 SCF Done:  E(RwB97XD) =  -1199.82550957     A.U. after    7 cycles
 SCF Done:  E(RwB97XD) =  -1199.82550957     A.U. after    6 cycles
 SCF Done:  E(RwB97XD) =  -1199.82550957     A.U. after    4 cycles
 Optimization completed.
    -- Stationary point found.
 Normal termination of Gaussian 16 at Fri May 23 04:26:01 2025.

 ----------------------------------------------------------------------
 #P Geom=AllCheck Guess=TCheck SCRF=Check GenChk RwB97XD/6-311++G(d,p)
 Freq
 ----------------------------------------------------------------------

 Structure from the checkpoint file:  "/tmp/Gau-254201.chk"
 ------------------------------
 Gaussian input prepared by ASE
 ------------------------------
 Charge =  0 Multiplicity = 1

                          Input orientation:
 ---------------------------------------------------------------------
 Center     Atomic      Atomic             Coordinates (Angstroms)
 Number     Number       Type             X           Y           Z
 ---------------------------------------------------------------------
      1          6           0        0.679263   -2.236489   -1.811476
      2          6           0        1.190041    0.200667   -0.120925
      3          9           0        0.188249    1.015049   -0.390797
      4          9           0        0.748369   -0.764824    0.713542
      5         16           0        1.755107   -0.681029   -1.712573
      6          8           0        3.104862   -1.108724   -1.393490
      7          8           0        1.435274    0.117417   -2.866707
      8          8           0        2.219843    0.885294    0.369365
      9          9           0        0.865645   -2.758537   -3.009153
     10          9           0        1.027620   -3.106502   -0.885565
     11          9           0       -0.590331   -1.896932   -1.661903
     12          1           0        3.019494    0.340510    0.345772
 ---------------------------------------------------------------------

 SCF Done:  E(RwB97XD) =  -1199.82550957     A.U. after    1 cycles

 Isotropic polarizability for W=    0.000000       58.34 Bohr**3.
 End of Minotr F.D. properties file   721 does not exist.

                      1                      2                      3
                      A                      A                      A
 Frequencies --     39.2809                58.4492               108.7685
 Red. masses --     14.1456                17.5903                16.9448
 Frc consts  --      0.0129                 0.0354                 0.1181
 IR Inten    --      0.8007                 0.2312                 0.2977

                      4                      5                      6
                      A                      A                      A
 Frequencies --    190.0522               197.1201               235.2303
 Red. masses --     16.0617                13.1627                10.2433
 Frc consts  --      0.3418                 0.3013                 0.3339
 IR Inten    --      7.2943                 2.2215                21.7217

                      7                      8                      9
                      A                      A                      A
 Frequencies --    268.3450               285.0406               307.2943
 Red. masses --      6.6529                 9.4083                17.1838
 Frc consts  --      0.2823                 0.4504                 0.9560
 IR Inten    --     15.2317                16.5897                 0.2182

                     10                     11                     12
                      A                      A                      A
 Frequencies --    328.2495               389.9230               419.6893
 Red. masses --      9.9151                 3.9339                 1.9570
 Frc consts  --      0.6294                 0.3524                 0.2031
 IR Inten    --      3.1680                19.5928                86.7680

                     13                     14                     15
                      A                      A                      A
 Frequencies --    522.1841               531.1116               549.6278
 Red. masses --     18.8188                11.0234                11.2042
 Frc consts  --      3.0234                 1.8321                 1.9942
 IR Inten    --     35.2088                30.7448                 8.3133

                     16                     17                     18
                      A                      A                      A
 Frequencies --    570.0475               593.0461               632.1556
 Red. masses --     12.5945                13.0344                16.7145
 Frc consts  --      2.4113                 2.7010                 3.9354
 IR Inten    --      6.9151                42.9561               131.2332

                     19                     20                     21
                      A                      A                      A
 Frequencies --    767.3235               791.6043              1035.2766
 Red. masses --     14.5371                16.8032                 6.5775
 Frc consts  --      5.0429                 6.2038                 4.1536
 IR Inten    --      9.7698                 1.1816               235.4100

                     22                     23                     24
                      A                      A                      A
 Frequencies --   1110.3242              1141.6089              1221.0349
 Red. masses --     12.8035                 3.3524                10.1865
 Frc consts  --      9.2999                 2.5742                 8.9481
 IR Inten    --    182.9452               170.0883               165.0351

                     25                     26                     27
                      A                      A                      A
 Frequencies --   1244.9985              1261.6299              1307.5616
 Red. masses --     13.1275                13.0445                 5.3757
 Frc consts  --     11.9886                12.2333                 5.4151
 IR Inten    --    274.6484               261.6089               408.6035

                     28                     29                     30
                      A                      A                      A
 Frequencies --   1373.8074              1419.7092              3792.6597
 Red. masses --      5.7464                 3.4784                 1.0657
 Frc consts  --      6.3900                 4.1308                 9.0316
 IR Inten    --    108.8371               292.5887               117.2065

 - Thermochemistry -
 -------------------
 Temperature   298.150 Kelvin.  Pressure   1.00000 Atm.
 Atom     1 has atomic number  6 and mass  12.00000

 Molecular mass:   199.95666 amu.
 Principal axes and moments of inertia in atomic units:
                           1         2         3
     Eigenvalues --  1204.152402141.327482341.13606
           X            0.17050   0.71664   0.67628
           Y            0.80916   0.28984  -0.51113
           Z            0.56231  -0.63437   0.53046
 This molecule is an asymmetric top.
 Rotational symmetry number  1.
 Warning -- assumption of classical behavior for rotation
           may cause significant error
 Rotational temperatures (Kelvin)      0.07193     0.04045     0.03700
 Rotational constants (GHZ):           1.49876     0.84281     0.77088
 Zero-point vibrational energy     135735.2 (Joules/Mol)
                                   32.44149 (Kcal/Mol)
 Warning -- explicit consideration of  17 degrees of freedom as
           vibrations may cause significant error
 Vibrational temperatures:     56.52    84.10   156.49   273.44   283.61
          (Kelvin)            338.44   386.09   410.11   442.13   472.28
                              561.01   603.84   751.31   764.15   790.79
                              820.17   853.26   909.53  1104.01  1138.94
                             1489.53  1597.51  1642.52  1756.80  1791.28
                             1815.20  1881.29  1976.60  2042.64  5456.79

 Zero-point correction=                           0.051699 (Hartree/Particle)
 Thermal correction to Energy=                    0.062280
 Thermal correction to Enthalpy=                  0.063224
 Thermal correction to Gibbs Free Energy=         0.014361
 Sum of electronic and zero-point Energies=          -1199.773811
 Sum of electronic and thermal Energies=             -1199.763229
 Sum of electronic and thermal Enthalpies=           -1199.762285
 Sum of electronic and thermal Free Energies=        -1199.811149

                     E (Thermal)             CV                S
                      KCal/Mol        Cal/Mol-Kelvin    Cal/Mol-Kelvin
 Total                   39.081             36.728            102.842
 Electronic               0.000              0.000              0.000
 Translational            0.889              2.981             41.783
 Rotational               0.889              2.981             30.180
 Vibrational             37.304             30.766             30.878
 Vibration     1          0.594              1.981              5.295
 Vibration     2          0.596              1.974              4.509
 Vibration     3          0.606              1.942              3.291
 Vibration     4          0.633              1.854              2.227
 Vibration     5          0.637              1.844              2.160
 Vibration     6          0.655              1.787              1.839
 Vibration     7          0.673              1.731              1.607
 Vibration     8          0.683              1.701              1.503
 Vibration     9          0.697              1.660              1.377
 Vibration    10          0.711              1.619              1.269
 Vibration    11          0.758              1.492              1.000
 Vibration    12          0.782              1.427              0.893
 Vibration    13          0.877              1.201              0.605
 Vibration    14          0.886              1.181              0.585
 Vibration    15          0.905              1.140              0.545
 Vibration    16          0.926              1.096              0.504
 Vibration    17          0.951              1.047              0.462

 Optimization completed.
    -- Stationary point found.
 Normal termination of Gaussian 16 at Fri May 23 04:27:19 2025.
