 Gaussian 16, Revision C.01,
 Gaussian 16:  ES64L-G16RevC.01  3-Jul-2019

 ----------------------------------------------------------------------
 #P wb97xd/6-311++G(d,p) Symm(None) scf(xqc) pop(None) opt(NoFreeze,TS,
 CalcAll,NoEigentest,MaxCycle=999)
 ----------------------------------------------------------------------

 ------------------------------
 Gaussian input prepared by ASE
 ------------------------------
 Symbolic Z-matrix:
 Charge =  0 Multiplicity = 1

 SCF Done:  E(RwB97XD) =  -1199.63900985     A.U. after   21 cycles
 SCF Done:  E(RwB97XD) =  -1199.64207569     A.U. after   17 cycles
 SCF Done:  E(RwB97XD) =  -1199.64379799     A.U. after   18 cycles
 SCF Done:  E(RwB97XD) =  -1199.64388425     A.U. after   15 cycles
 SCF Done:  E(RwB97XD) =  -1199.64388445     A.U. after   12 cycles

 Isotropic polarizability for W=    0.000000       68.46 Bohr**3.
 End of Minotr F.D. properties file   721 does not exist.

 Optimization completed.
    -- Stationary point found.

                          Input orientation:
 ---------------------------------------------------------------------
 Center     Atomic      Atomic             Coordinates (Angstroms)
 Number     Number       Type             X           Y           Z
 ---------------------------------------------------------------------
      1          6           0       -0.797769    0.560141    1.157354
      2          6           0        0.029908   -0.027318   -0.001533
      3          9           0       -0.340898   -1.286059   -0.239072
      4          9           0       -0.241725    0.719383   -1.108721
      5         16           0        2.114515   -0.062073   -0.019985
      6          8           0        1.971861   -0.418928    1.475402
      7          8           0        3.559319   -0.330608    0.594248
      8          8           0        2.258925    1.547717   -0.154463
      9          9           0       -0.652794   -0.155971    2.260982
     10          9           0       -0.392843    1.813128    1.391920
     11          9           0       -2.093417    0.594571    0.841950
     12          1           0        1.475083    1.937728   -0.562893
 ---------------------------------------------------------------------

 ******    1 imaginary frequencies (negative Signs) ******

                      1                      2                      3
                      A                      A                      A
 Frequencies --   -808.1583                48.6797                75.4836
 Red. masses --     18.0601                12.5483                13.7143
 Frc consts  --      6.9496                 0.0175                 0.0460
 IR Inten    --    327.1260                 1.5208                 0.7834

                      4                      5                      6
                      A                      A                      A
 Frequencies --    111.6910               169.4013               205.9113
 Red. masses --     16.6382                13.0669                17.5271
 Frc consts  --      0.1223                 0.2209                 0.4378
 IR Inten    --      1.1696                 5.7132                12.5569

                      7                      8                      9
                      A                      A                      A
 Frequencies --    223.8823               227.7089               285.9918
 Red. masses --     13.9638                14.6017                16.2696
 Frc consts  --      0.4124                 0.4461                 0.7840
 IR Inten    --      3.5007                 1.0439                 5.4282

                     10                     11                     12
                      A                      A                      A
 Frequencies --    295.0294               338.7688               369.9006
 Red. masses --     13.4119                 2.5208                 8.3928
 Frc consts  --      0.6878                 0.1705                 0.6766
 IR Inten    --      4.1482                85.7481                13.8430

                     13                     14                     15
                      A                      A                      A
 Frequencies --    393.7226               446.6331               454.0858
 Red. masses --      2.1470                15.7786                 7.2731
 Frc consts  --      0.1961                 1.8545                 0.8836
 IR Inten    --     27.9031                 0.3033                12.4736

                     16                     17                     18
                      A                      A                      A
 Frequencies --    535.2340               593.1738               623.0002
 Red. masses --     17.8369                17.8896                17.0917
 Frc consts  --      3.0106                 3.7086                 3.9085
 IR Inten    --      3.3961                 1.7413                 6.5613

                     19                     20                     21
                      A                      A                      A
 Frequencies --    742.4681               756.9461               803.1293
 Red. masses --     16.4060                17.7686                14.1073
 Frc consts  --      5.3286                 5.9984                 5.3612
 IR Inten    --     61.2442                49.3380                96.9211

                     22                     23                     24
                      A                      A                      A
 Frequencies --    913.8100              1033.9396              1086.6192
 Red. masses --     13.1963                14.9811                 7.6233
 Frc consts  --      6.4925                 9.4359                 5.3033
 IR Inten    --    102.3588               106.3827               164.0802

                     25                     26                     27
                      A                      A                      A
 Frequencies --   1163.5799              1187.7619              1205.5769
 Red. masses --      1.4925                 4.5254                12.4901
 Frc consts  --      1.1906                 3.7616                10.6957
 IR Inten    --    226.0672                47.9400               265.2520

                     28                     29                     30
                      A                      A                      A
 Frequencies --   1245.4154              1327.2632              3828.2852
 Red. masses --     13.0184                12.5875                 1.0664
 Frc consts  --     11.8970                13.0648                 9.2082
 IR Inten    --    264.5810               320.0232               114.5015

 - Thermochemistry -
 -------------------
 Temperature   298.150 Kelvin.  Pressure   1.00000 Atm.
 Atom     1 has atomic number  6 and mass  12.00000

 Molecular mass:   199.95666 amu.
 Principal axes and moments of inertia in atomic units:
                           1         2         3
     Eigenvalues --  1104.123802467.138052545.33911
           X            0.98042   0.15593   0.12027
           Y           -0.10559  -0.09925   0.98944
           Z           -0.16622   0.98277   0.08084
 This molecule is an asymmetric top.
 Rotational symmetry number  1.
 Warning -- assumption of classical behavior for rotation
           may cause significant error
 Rotational temperatures (Kelvin)      0.07845     0.03511     0.03403
 Rotational constants (GHZ):           1.63455     0.73151     0.70904
    1 imaginary frequencies ignored.
 Zero-point vibrational energy     123772.2 (Joules/Mol)
                                   29.58226 (Kcal/Mol)
 Warning -- explicit consideration of  16 degrees of freedom as
           vibrations may cause significant error
 Vibrational temperatures:     70.04   108.60   160.70   243.73   296.26
          (Kelvin)            322.12   327.62   411.48   424.48   487.41
                              532.20   566.48   642.61   653.33   770.08
                              853.44   896.36  1068.25  1089.08  1155.52
                             1314.77  1487.61  1563.40  1674.13  1708.92
                             1734.56  1791.87  1909.64  5508.05

 Zero-point correction=                           0.047142 (Hartree/Particle)
 Thermal correction to Energy=                    0.057897
 Thermal correction to Enthalpy=                  0.058841
 Thermal correction to Gibbs Free Energy=         0.009899
 Sum of electronic and zero-point Energies=          -1199.596742
 Sum of electronic and thermal Energies=             -1199.585988
 Sum of electronic and thermal Enthalpies=           -1199.585043
 Sum of electronic and thermal Free Energies=        -1199.633985

                     E (Thermal)             CV                S
                      KCal/Mol        Cal/Mol-Kelvin    Cal/Mol-Kelvin
 Total                   36.331             37.271            103.007
 Electronic               0.000              0.000              0.000
 Translational            0.889              2.981             41.783
 Rotational               0.889              2.981             30.318
 Vibrational             34.553             31.310             30.906
 Vibration     1          0.595              1.978              4.870
 Vibration     2          0.599              1.965              4.005
 Vibration     3          0.607              1.940              3.239
 Vibration     4          0.625              1.880              2.442
 Vibration     5          0.640              1.831              2.080
 Vibration     6          0.649              1.805              1.927
 Vibration     7          0.651              1.799              1.897
 Vibration     8          0.684              1.700              1.498
 Vibration     9          0.689              1.683              1.445
 Vibration    10          0.719              1.598              1.218
 Vibration    11          0.742              1.534              1.080
 Vibration    12          0.761              1.484              0.986
 Vibration    13          0.806              1.368              0.806
 Vibration    14          0.813              1.352              0.784
 Vibration    15          0.890              1.172              0.576
 Vibration    16          0.951              1.046              0.462

 Normal termination of Gaussian 16 at Fri May 23 04:45:58 2025.
