 Gaussian 16, Revision C.01,
 Gaussian 16:  ES64L-G16RevC.01  3-Jul-2019

 ------------------------------------------
 #P am1 Symm(None) scf(xqc) pop(None) force
 ------------------------------------------

 ------------------------------
 Gaussian input prepared by ASE
 ------------------------------
 Symbolic Z-matrix:
 Charge =  0 Multiplicity = 1

                          Input orientation:
 ---------------------------------------------------------------------
 Center     Atomic      Atomic             Coordinates (Angstroms)
 Number     Number       Type             X           Y           Z
 ---------------------------------------------------------------------
      1          6           0       -0.769433    0.218755    1.347701
      2          6           0       -0.507397   -0.008801   -0.173238
      3          9           0       -0.801581   -1.219651   -0.573543
      4          9           0       -1.229232    0.801616   -0.947479
      5         16           0        1.264813    0.559167    0.014049
      6          8           0        1.316707    0.271136    1.474709
      7          8           0        2.172104   -0.366996   -0.601918
      8          8           0        2.232372    1.873435    0.034791
      9          9           0        0.941999   -1.019130    1.302034
     10          9           0       -0.747284    1.385589    1.883416
     11          9           0       -0.991889   -0.666191    2.224773
     12          1           0        3.169243    1.769096   -0.167001
 ---------------------------------------------------------------------

 SCF Done:  E(RAM1) =  0.472123456790     A.U. after   20 cycles
 Normal termination of Gaussian 16 at Fri May 23 04:34:26 2025.
