 Gaussian 16, Revision C.01,
 Gaussian 16:  ES64L-G16RevC.01  3-Jul-2019

 ----------------------------------------------------------------------
 #P wb97xd/6-311++G(d,p) Symm(None) scf(xqc) pop(None) opt(NoFreeze,TS,
 CalcAll,NoEigentest,MaxCycle=999)
 ----------------------------------------------------------------------

 ------------------------------
 Gaussian input prepared by ASE
 ------------------------------
 Symbolic Z-matrix:
 Charge =  0 Multiplicity = 1

 SCF Done:  E(RwB97XD) =  -1199.65029732     A.U. after   17 cycles
 SCF Done:  E(RwB97XD) =  -1199.66567040     A.U. after   16 cycles
 SCF Done:  E(RwB97XD) =  -1199.67001245     A.U. after   16 cycles
 SCF Done:  E(RwB97XD) =  -1199.67231466     A.U. after   17 cycles
 SCF Done:  E(RwB97XD) =  -1199.67341994     A.U. after   14 cycles
 SCF Done:  E(RwB97XD) =  -1199.67398858     A.U. after   17 cycles
 SCF Done:  E(RwB97XD) =  -1199.67441961     A.U. after   15 cycles
 SCF Done:  E(RwB97XD) =  -1199.67452470     A.U. after   14 cycles
 SCF Done:  E(RwB97XD) =  -1199.67453177     A.U. after   12 cycles

 Isotropic polarizability for W=    0.000000       70.59 Bohr**3.
 End of Minotr F.D. properties file   721 does not exist.

 Optimization completed.
    -- Stationary point found.

                          Input orientation:
 ---------------------------------------------------------------------
 Center     Atomic      Atomic             Coordinates (Angstroms)
 Number     Number       Type             X           Y           Z
 ---------------------------------------------------------------------
      1          6           0       -0.135174    1.390567    0.001625
      2          6           0        0.011658   -0.009020    0.153948
      3          9           0       -0.340473   -0.481423    1.338307
      4          9           0       -0.440172   -0.757029   -0.843106
      5         16           0        2.302020   -0.176152   -0.003295
      6          8           0        2.208356   -1.202149    1.001088
      7          8           0        2.232247   -0.347560   -1.430761
      8          8           0        3.754990    0.423581    0.336328
      9          9           0        1.800543    1.724918    0.224837
     10          9           0       -0.240524    1.915166   -1.157096
     11          9           0       -0.442301    2.160127    0.975133
     12          1           0        3.864430    1.269865   -0.116754
 ---------------------------------------------------------------------

 ******    1 imaginary frequencies (negative Signs) ******

                      1                      2                      3
                      A                      A                      A
 Frequencies --   -643.0280                34.8226                76.4210
 Red. masses --     14.0691                14.1529                 8.4233
 Frc consts  --      3.4275                 0.0101                 0.0290
 IR Inten    --    191.0894                 0.9351                 8.6771

                      4                      5                      6
                      A                      A                      A
 Frequencies --    170.1907               191.5764               197.8493
 Red. masses --     12.8308                12.5344                11.8591
 Frc consts  --      0.2190                 0.2710                 0.2735
 IR Inten    --     18.8994                 4.9248                 3.6309

                      7                      8                      9
                      A                      A                      A
 Frequencies --    214.8036               240.0127               277.0011
 Red. masses --     18.1293                 3.9391                 7.5411
 Frc consts  --      0.4929                 0.1337                 0.3409
 IR Inten    --      4.8491                15.5520                 6.3166

                     10                     11                     12
                      A                      A                      A
 Frequencies --    303.5866               329.3150               370.2020
 Red. masses --     13.6368                13.8115                11.0486
 Frc consts  --      0.7405                 0.8825                 0.8921
 IR Inten    --     12.3228                14.3174                65.9392

                     13                     14                     15
                      A                      A                      A
 Frequencies --    423.6273               438.1043               488.4198
 Red. masses --      3.9188                 3.9224                 6.8485
 Frc consts  --      0.4144                 0.4436                 0.9626
 IR Inten    --    162.2576                71.2424                35.5112

                     16                     17                     18
                      A                      A                      A
 Frequencies --    521.1040               545.9064               555.9815
 Red. masses --     10.0353                14.7076                14.9922
 Frc consts  --      1.6056                 2.5824                 2.7305
 IR Inten    --    116.8534               156.1682               103.1445

                     19                     20                     21
                      A                      A                      A
 Frequencies --    601.0560               680.2328               782.4533
 Red. masses --     16.9983                12.2434                15.9342
 Frc consts  --      3.6181                 3.3378                 5.7477
 IR Inten    --      9.0055                14.5938               221.2227

                     22                     23                     24
                      A                      A                      A
 Frequencies --    821.9592              1132.3107              1199.0536
 Red. masses --     17.0348                 9.9565                 2.5009
 Frc consts  --      6.7809                 7.5212                 2.1185
 IR Inten    --    197.8306                74.8680               241.4597

                     25                     26                     27
                      A                      A                      A
 Frequencies --   1205.7182              1293.7404              1398.9938
 Red. masses --      2.1435                13.1077                13.2207
 Frc consts  --      1.8360                12.9262                15.2453
 IR Inten    --    196.9692               122.0495               197.6525

                     28                     29                     30
                      A                      A                      A
 Frequencies --   1458.3819              1559.2137              3831.2909
 Red. masses --     13.2544                12.5220                 1.0659
 Frc consts  --     16.6094                17.9364                 9.2181
 IR Inten    --    343.6940               703.1688               134.1255

 - Thermochemistry -
 -------------------
 Temperature   298.150 Kelvin.  Pressure   1.00000 Atm.
 Atom     1 has atomic number  6 and mass  12.00000

 Molecular mass:   199.95666 amu.
 Principal axes and moments of inertia in atomic units:
                           1         2         3
     Eigenvalues --  1275.943572105.766032373.18156
           X            0.91922   0.39055   0.04996
           Y           -0.39373   0.91237   0.11206
           Z           -0.00181  -0.12268   0.99244
 This molecule is an asymmetric top.
 Rotational symmetry number  1.
 Warning -- assumption of classical behavior for rotation
           may cause significant error
 Rotational temperatures (Kelvin)      0.06788     0.04113     0.03650
 Rotational constants (GHZ):           1.41444     0.85705     0.76047
    1 imaginary frequencies ignored.
 Zero-point vibrational energy     127661.5 (Joules/Mol)
                                   30.51182 (Kcal/Mol)
 Warning -- explicit consideration of  18 degrees of freedom as
           vibrations may cause significant error
 Vibrational temperatures:     50.10   109.95   244.87   275.64   284.66
          (Kelvin)            309.05   345.32   398.54   436.79   473.81
                              532.64   609.51   630.33   702.73   749.75
                              785.44   799.93   864.79   978.70  1125.78
                             1182.62  1629.14  1725.17  1734.76  1861.40
                             2012.84  2098.29  2243.36  5512.37

 Zero-point correction=                           0.048624 (Hartree/Particle)
 Thermal correction to Energy=                    0.059380
 Thermal correction to Enthalpy=                  0.060325
 Thermal correction to Gibbs Free Energy=         0.011426
 Sum of electronic and zero-point Energies=          -1199.625908
 Sum of electronic and thermal Energies=             -1199.615151
 Sum of electronic and thermal Enthalpies=           -1199.614207
 Sum of electronic and thermal Free Energies=        -1199.663106

                     E (Thermal)             CV                S
                      KCal/Mol        Cal/Mol-Kelvin    Cal/Mol-Kelvin
 Total                   37.262             37.431            102.916
 Electronic               0.000              0.000              0.000
 Translational            0.889              2.981             41.783
 Rotational               0.889              2.981             30.234
 Vibrational             35.484             31.469             30.899
 Vibration     1          0.594              1.983              5.534
 Vibration     2          0.599              1.965              3.981
 Vibration     3          0.625              1.879              2.433
 Vibration     4          0.634              1.852              2.213
 Vibration     5          0.637              1.843              2.153
 Vibration     6          0.645              1.818              2.002
 Vibration     7          0.657              1.779              1.803
 Vibration     8          0.678              1.716              1.552
 Vibration     9          0.695              1.667              1.397
 Vibration    10          0.712              1.617              1.263
 Vibration    11          0.742              1.533              1.079
 Vibration    12          0.786              1.419              0.880
 Vibration    13          0.798              1.387              0.833
 Vibration    14          0.844              1.276              0.688
 Vibration    15          0.876              1.203              0.607
 Vibration    16          0.901              1.149              0.553
 Vibration    17          0.911              1.127              0.532
 Vibration    18          0.959              1.030              0.448

 Normal termination of Gaussian 16 at Fri May 23 05:16:01 2025.
