 Gaussian 16, Revision C.01,
 Gaussian 16:  ES64L-G16RevC.01  3-Jul-2019

 ----------------------------------------------------------------------
 #P wb97xd/6-311++G(d,p) Symm(None) scf(xqc) pop(None) freq opt(CalcFC,
  Tight)
 ----------------------------------------------------------------------

 ------------------------------
 Gaussian input prepared by ASE
 ------------------------------
 Symbolic Z-matrix:
 Charge =  0 Multiplicity = 1

 SCF Done:  E(RwB97XD) =  -1199.57243497     A.U. after   21 cycles
 SCF Done:  E(RwB97XD) =  -1199.57721443     A.U. after   18 cycles
 SCF Done:  E(RwB97XD) =  -1199.58068219     A.U. after   18 cycles
 SCF Done:  E(RwB97XD) =  -1199.59759492     A.U. after   16 cycles
 SCF Done:  E(RwB97XD) =  -1199.59987983     A.U. after   18 cycles
 SCF Done:  E(RwB97XD) =  -1199.59835271     A.U. after   19 cycles
 SCF Done:  E(RwB97XD) =  -1199.60064641     A.U. after   17 cycles
 SCF Done:  E(RwB97XD) =  -1199.60105091     A.U. after   16 cycles
 SCF Done:  E(RwB97XD) =  -1199.60159719     A.U. after   17 cycles
 SCF Done:  E(RwB97XD) =  -1199.60187118     A.U. after   17 cycles
 SCF Done:  E(RwB97XD) =  -1199.60275625     A.U. after   16 cycles
 SCF Done:  E(RwB97XD) =  -1199.60279437     A.U. after   16 cycles
 SCF Done:  E(RwB97XD) =  -1199.60280802     A.U. after   13 cycles
 SCF Done:  E(RwB97XD) =  -1199.60281554     A.U. after   15 cycles
 SCF Done:  E(RwB97XD) =  -1199.60281632     A.U. after   12 cycles
 SCF Done:  E(RwB97XD) =  -1199.60281639     A.U. after   11 cycles
 SCF Done:  E(RwB97XD) =  -1199.60281645     A.U. after   10 cycles
 SCF Done:  E(RwB97XD) =  -1199.60281645     A.U. after    8 cycles
 SCF Done:  E(RwB97XD) =  -1199.60281645     A.U. after    5 cycles
 Optimization completed.
    -- Stationary point found.
 Normal termination of Gaussian 16 at Fri May 23 07:38:55 2025.

 ----------------------------------------------------------------------
 #P Geom=AllCheck Guess=TCheck SCRF=Check GenChk RwB97XD/6-311++G(d,p)
 Freq
 ----------------------------------------------------------------------

 Structure from the checkpoint file:  "/tmp/Gau-292462.chk"
 ------------------------------
 Gaussian input prepared by ASE
 ------------------------------
 Charge =  0 Multiplicity = 1

                          Input orientation:
 ---------------------------------------------------------------------
 Center     Atomic      Atomic             Coordinates (Angstroms)
 Number     Number       Type             X           Y           Z
 ---------------------------------------------------------------------
      1          6           0       -0.712120    0.399063   -1.433422
      2          6           0       -0.058792   -0.077226   -0.102043
      3          9           0       -0.591274    0.531581    0.934493
      4          9           0       -0.249535   -1.452644    0.046092
      5         16           0        1.863452    0.046988   -0.000776
      6          8           0       -1.876686   -1.905086    0.056460
      7          8           0        2.329424   -0.329614   -1.333241
      8          8           0        1.915974    1.662914    0.198558
      9          9           0       -0.087884    1.540383   -1.801137
     10          9           0       -0.548865   -0.493928   -2.384277
     11          9           0       -1.989421    0.679500   -1.279709
     12          1           0        1.670240    2.134597   -0.610787
 ---------------------------------------------------------------------

 SCF Done:  E(RwB97XD) =  -1199.60281645     A.U. after    1 cycles

 Isotropic polarizability for W=    0.000000       62.82 Bohr**3.
 End of Minotr F.D. properties file   721 does not exist.

                      1                      2                      3
                      A                      A                      A
 Frequencies --     64.5383                76.7458                90.4785
 Red. masses --     16.1153                12.1704                15.8919
 Frc consts  --      0.0395                 0.0422                 0.0767
 IR Inten    --      0.5475                 0.7467                 2.5109

                      4                      5                      6
                      A                      A                      A
 Frequencies --    145.8769               151.6867               195.7038
 Red. masses --     12.2056                15.4565                12.8621
 Frc consts  --      0.1530                 0.2095                 0.2902
 IR Inten    --      4.7799                 0.8351                 4.6242

                      7                      8                      9
                      A                      A                      A
 Frequencies --    224.8319               243.4321               260.3329
 Red. masses --     11.5505                11.3892                17.3716
 Frc consts  --      0.3440                 0.3976                 0.6937
 IR Inten    --      2.9489                 0.9777                 1.4735

                     10                     11                     12
                      A                      A                      A
 Frequencies --    319.5686               354.5000               358.5470
 Red. masses --     14.0686                 6.6176                 2.8909
 Frc consts  --      0.8465                 0.4900                 0.2190
 IR Inten    --      1.1411                12.3739                13.9724

                     13                     14                     15
                      A                      A                      A
 Frequencies --    439.1794               451.5215               487.8051
 Red. masses --     14.4043                10.0051                 2.1443
 Frc consts  --      1.6369                 1.2018                 0.3006
 IR Inten    --      1.9425                61.1636               135.4982

                     16                     17                     18
                      A                      A                      A
 Frequencies --    500.7015               543.5311               591.4294
 Red. masses --     11.8138                17.3122                17.7548
 Frc consts  --      1.7450                 3.0134                 3.6591
 IR Inten    --    115.9496                 7.3546                 4.2585

                     19                     20                     21
                      A                      A                      A
 Frequencies --    630.7451               760.1158               777.1798
 Red. masses --     15.6797                17.0886                15.9186
 Frc consts  --      3.6753                 5.8172                 5.6650
 IR Inten    --      1.5088                15.1532               176.7859

                     22                     23                     24
                      A                      A                      A
 Frequencies --    960.0610              1013.7495              1106.5424
 Red. masses --     12.6866                13.2138                 1.4794
 Frc consts  --      6.8896                 8.0009                 1.0672
 IR Inten    --    101.0074               175.2253               136.1274

                     25                     26                     27
                      A                      A                      A
 Frequencies --   1161.7731              1239.9637              1242.0532
 Red. masses --      6.2836                 8.2811                10.0143
 Frc consts  --      4.9969                 7.5017                 9.1023
 IR Inten    --     59.7601               163.1205               146.5150

                     28                     29                     30
                      A                      A                      A
 Frequencies --   1291.2125              1342.9069              3790.9503
 Red. masses --     12.7493                12.8246                 1.0654
 Frc consts  --     12.5236                13.6265                 9.0213
 IR Inten    --    377.8403               148.4531               123.1473

 - Thermochemistry -
 -------------------
 Temperature   298.150 Kelvin.  Pressure   1.00000 Atm.
 Atom     1 has atomic number  6 and mass  12.00000

 Molecular mass:   199.95666 amu.
 Principal axes and moments of inertia in atomic units:
                           1         2         3
     Eigenvalues --  1359.584202099.770722392.07901
           X            0.94365   0.10522  -0.31378
           Y            0.29688  -0.68812   0.66208
           Z            0.14625   0.71793   0.68058
 This molecule is an asymmetric top.
 Rotational symmetry number  1.
 Warning -- assumption of classical behavior for rotation
           may cause significant error
 Rotational temperatures (Kelvin)      0.06371     0.04125     0.03621
 Rotational constants (GHZ):           1.32742     0.85949     0.75447
 Zero-point vibrational energy     124517.3 (Joules/Mol)
                                   29.76034 (Kcal/Mol)
 Warning -- explicit consideration of  18 degrees of freedom as
           vibrations may cause significant error
 Vibrational temperatures:     92.86   110.42   130.18   209.88   218.24
          (Kelvin)            281.57   323.48   350.24   374.56   459.79
                              510.05   515.87   631.88   649.64   701.84
                              720.40   782.02   850.93   907.50  1093.64
                             1118.19  1381.31  1458.56  1592.07  1671.53
                             1784.03  1787.04  1857.77  1932.14  5454.33

 Zero-point correction=                           0.047426 (Hartree/Particle)
 Thermal correction to Energy=                    0.058892
 Thermal correction to Enthalpy=                  0.059836
 Thermal correction to Gibbs Free Energy=         0.009567
 Sum of electronic and zero-point Energies=          -1199.555390
 Sum of electronic and thermal Energies=             -1199.543924
 Sum of electronic and thermal Enthalpies=           -1199.542980
 Sum of electronic and thermal Free Energies=        -1199.593249

                     E (Thermal)             CV                S
                      KCal/Mol        Cal/Mol-Kelvin    Cal/Mol-Kelvin
 Total                   36.955             39.367            105.800
 Electronic               0.000              0.000              0.000
 Translational            0.889              2.981             41.783
 Rotational               0.889              2.981             30.302
 Vibrational             35.178             33.405             33.714
 Vibration     1          0.597              1.971              4.313
 Vibration     2          0.599              1.965              3.972
 Vibration     3          0.602              1.956              3.650
 Vibration     4          0.617              1.907              2.725
 Vibration     5          0.619              1.901              2.651
 Vibration     6          0.636              1.846              2.173
 Vibration     7          0.649              1.803              1.920
 Vibration     8          0.659              1.774              1.778
 Vibration     9          0.668              1.745              1.660
 Vibration    10          0.705              1.636              1.312
 Vibration    11          0.730              1.566              1.146
 Vibration    12          0.733              1.558              1.128
 Vibration    13          0.799              1.385              0.829
 Vibration    14          0.810              1.358              0.791
 Vibration    15          0.844              1.277              0.689
 Vibration    16          0.856              1.248              0.656
 Vibration    17          0.899              1.154              0.558
 Vibration    18          0.949              1.050              0.465

                           ! Non-Optimized Parameters !
 Normal termination of Gaussian 16 at Fri May 23 07:40:21 2025.
