 Gaussian 16, Revision C.01,
 Gaussian 16:  ES64L-G16RevC.01  3-Jul-2019

 ----------------------------------------------------------------------
 #P wb97xd/6-311++G(d,p) Symm(None) scf(xqc) pop(None) opt(NoFreeze,TS,
 CalcAll,NoEigentest,MaxCycle=999)
 ----------------------------------------------------------------------

 ------------------------------
 Gaussian input prepared by ASE
 ------------------------------
 Symbolic Z-matrix:
 Charge =  0 Multiplicity = 1

 SCF Done:  E(RwB97XD) =  -1199.57342765     A.U. after   30 cycles
 SCF Done:  E(RwB97XD) =  -1199.58620867     A.U. after   25 cycles
 SCF Done:  E(RwB97XD) =  -1199.58901464     A.U. after   30 cycles
 SCF Done:  E(RwB97XD) =  -1199.59049810     A.U. after   23 cycles
 SCF Done:  E(RwB97XD) =  -1199.59099315     A.U. after   23 cycles
 SCF Done:  E(RwB97XD) =  -1199.59103112     A.U. after   22 cycles
 SCF Done:  E(RwB97XD) =  -1199.59103095     A.U. after   20 cycles

 Isotropic polarizability for W=    0.000000       72.20 Bohr**3.
 End of Minotr F.D. properties file   721 does not exist.

 Optimization completed.
    -- Stationary point found.

                          Input orientation:
 ---------------------------------------------------------------------
 Center     Atomic      Atomic             Coordinates (Angstroms)
 Number     Number       Type             X           Y           Z
 ---------------------------------------------------------------------
      1          6           0       -0.552094   -1.399181   -0.133888
      2          6           0       -0.006508    0.031958    0.070400
      3          9           0       -0.520274    0.853315   -0.848182
      4          9           0       -0.339556    0.466511    1.295654
      5         16           0        1.905910    0.135300    0.068642
      6          8           0        1.364834    0.735696    2.674056
      7          8           0        2.360865   -0.585053   -1.119461
      8          8           0        1.950002    1.736657   -0.196519
      9          9           0       -0.398217   -1.775263   -1.393539
     10          9           0        0.110807   -2.236710    0.661641
     11          9           0       -1.843845   -1.445619    0.175460
     12          1           0        1.693113    1.946791   -1.107048
 ---------------------------------------------------------------------

 ******    1 imaginary frequencies (negative Signs) ******

                      1                      2                      3
                      A                      A                      A
 Frequencies --   -374.7027                36.5262                60.0546
 Red. masses --     17.0566                15.7912                17.8909
 Frc consts  --      1.4110                 0.0124                 0.0380
 IR Inten    --     82.9335                 0.5193                 0.0714

                      4                      5                      6
                      A                      A                      A
 Frequencies --     81.8805               129.3145               175.9707
 Red. masses --     10.7467                15.4704                11.6672
 Frc consts  --      0.0425                 0.1524                 0.2129
 IR Inten    --      1.7068                 0.4156                 8.9603

                      7                      8                      9
                      A                      A                      A
 Frequencies --    210.0026               226.2149               238.7789
 Red. masses --     11.9374                15.6501                 5.6450
 Frc consts  --      0.3102                 0.4719                 0.1896
 IR Inten    --      3.4172                 4.9052                10.7559

                     10                     11                     12
                      A                      A                      A
 Frequencies --    280.4255               329.1815               354.4561
 Red. masses --     15.5304                15.0747                 2.0523
 Frc consts  --      0.7196                 0.9624                 0.1519
 IR Inten    --      0.4470                 3.0603                34.0695

                     13                     14                     15
                      A                      A                      A
 Frequencies --    375.2874               410.0581               475.6653
 Red. masses --     13.9607                14.8181                 2.7191
 Frc consts  --      1.1585                 1.4680                 0.3625
 IR Inten    --      3.1041                21.5774               128.3611

                     16                     17                     18
                      A                      A                      A
 Frequencies --    515.8152               544.7111               603.0693
 Red. masses --     12.5335                18.0905                16.7748
 Frc consts  --      1.9648                 3.1625                 3.5945
 IR Inten    --     33.4071                 5.1492                 9.3316

                     19                     20                     21
                      A                      A                      A
 Frequencies --    631.3127               758.7665               778.7596
 Red. masses --     17.1840                17.0670                16.3940
 Frc consts  --      4.0352                 5.7893                 5.8579
 IR Inten    --     14.2438                49.4768               171.6109

                     22                     23                     24
                      A                      A                      A
 Frequencies --    961.5223              1108.9717              1120.1850
 Red. masses --     13.4951                 4.1182                 1.6601
 Frc consts  --      7.3510                 2.9840                 1.2273
 IR Inten    --     82.8459                20.9038                96.6905

                     25                     26                     27
                      A                      A                      A
 Frequencies --   1201.6979              1221.0854              1238.4632
 Red. masses --     12.5774                 8.4714                12.3757
 Frc consts  --     10.7012                 7.4422                11.1837
 IR Inten    --    139.9789                59.7850               222.2050

                     28                     29                     30
                      A                      A                      A
 Frequencies --   1258.8026              1347.1574              3779.9636
 Red. masses --     11.1023                12.6438                 1.0655
 Frc consts  --     10.3652                13.5197                 8.9699
 IR Inten    --    373.4294               171.6176               127.8298

 - Thermochemistry -
 -------------------
 Temperature   298.150 Kelvin.  Pressure   1.00000 Atm.
 Atom     1 has atomic number  6 and mass  12.00000

 Molecular mass:   199.95666 amu.
 Principal axes and moments of inertia in atomic units:
                           1         2         3
     Eigenvalues --  1372.264892189.758102501.63678
           X            0.74094  -0.41601  -0.52721
           Y            0.64731   0.23328   0.72566
           Z            0.17889   0.87893  -0.44213
 This molecule is an asymmetric top.
 Rotational symmetry number  1.
 Warning -- assumption of classical behavior for rotation
           may cause significant error
 Rotational temperatures (Kelvin)      0.06312     0.03955     0.03462
 Rotational constants (GHZ):           1.31516     0.82417     0.72142
    1 imaginary frequencies ignored.
 Zero-point vibrational energy     122342.7 (Joules/Mol)
                                   29.24060 (Kcal/Mol)
 Warning -- explicit consideration of  17 degrees of freedom as
           vibrations may cause significant error
 Vibrational temperatures:     52.55    86.41   117.81   186.05   253.18
          (Kelvin)            302.15   325.47   343.55   403.47   473.62
                              509.98   539.95   589.98   684.38   742.14
                              783.72   867.68   908.32  1091.70  1120.46
                             1383.42  1595.56  1611.70  1728.98  1756.87
                             1781.87  1811.14  1938.26  5438.52

 Zero-point correction=                           0.046598 (Hartree/Particle)
 Thermal correction to Energy=                    0.057831
 Thermal correction to Enthalpy=                  0.058775
 Thermal correction to Gibbs Free Energy=         0.008153
 Sum of electronic and zero-point Energies=          -1199.544433
 Sum of electronic and thermal Energies=             -1199.533200
 Sum of electronic and thermal Enthalpies=           -1199.532256
 Sum of electronic and thermal Free Energies=        -1199.582878

                     E (Thermal)             CV                S
                      KCal/Mol        Cal/Mol-Kelvin    Cal/Mol-Kelvin
 Total                   36.289             37.845            106.543
 Electronic               0.000              0.000              0.000
 Translational            0.889              2.981             41.783
 Rotational               0.889              2.981             30.398
 Vibrational             34.512             31.883             34.362
 Vibration     1          0.594              1.982              5.439
 Vibration     2          0.597              1.973              4.455
 Vibration     3          0.600              1.962              3.845
 Vibration     4          0.612              1.924              2.956
 Vibration     5          0.628              1.872              2.371
 Vibration     6          0.642              1.826              2.044
 Vibration     7          0.650              1.801              1.909
 Vibration     8          0.657              1.781              1.812
 Vibration     9          0.680              1.710              1.531
 Vibration    10          0.712              1.617              1.264
 Vibration    11          0.730              1.566              1.146
 Vibration    12          0.746              1.523              1.058
 Vibration    13          0.774              1.448              0.926
 Vibration    14          0.832              1.304              0.722
 Vibration    15          0.871              1.215              0.620
 Vibration    16          0.900              1.151              0.555
 Vibration    17          0.961              1.025              0.444

 Normal termination of Gaussian 16 at Fri May 23 07:44:44 2025.
