 Gaussian 16, Revision C.01,
 Gaussian 16:  ES64L-G16RevC.01  3-Jul-2019

 ----------------------------------------------------------------------
 #P wb97xd/6-311++G(d,p) Symm(None) scf(xqc) pop(None) opt(NoFreeze,TS,
 CalcAll,NoEigentest,MaxCycle=999)
 ----------------------------------------------------------------------

 ------------------------------
 Gaussian input prepared by ASE
 ------------------------------
 Symbolic Z-matrix:
 Charge =  0 Multiplicity = 1

 SCF Done:  E(RwB97XD) =  -1199.58130675     A.U. after   27 cycles
 SCF Done:  E(RwB97XD) =  -1199.59325105     A.U. after   24 cycles
 SCF Done:  E(RwB97XD) =  -1199.59551142     A.U. after   21 cycles
 SCF Done:  E(RwB97XD) =  -1199.59647542     A.U. after   21 cycles
 SCF Done:  E(RwB97XD) =  -1199.59651880     A.U. after   20 cycles
 SCF Done:  E(RwB97XD) =  -1199.59651893     A.U. after   18 cycles

 Isotropic polarizability for W=    0.000000       74.36 Bohr**3.
 End of Minotr F.D. properties file   721 does not exist.

 Optimization completed.
    -- Stationary point found.

                          Input orientation:
 ---------------------------------------------------------------------
 Center     Atomic      Atomic             Coordinates (Angstroms)
 Number     Number       Type             X           Y           Z
 ---------------------------------------------------------------------
      1          6           0       -0.602517   -1.356332   -0.481679
      2          6           0       -0.037600    0.021949   -0.075498
      3          9           0       -0.553547    0.984865   -0.820779
      4          9           0       -0.316940    0.256739    1.220822
      5         16           0        1.889561    0.075213   -0.067987
      6          8           0        1.336463    0.860613    2.432486
      7          8           0        2.366483   -0.333065   -1.378283
      8          8           0        1.980212    1.683472    0.024466
      9          9           0       -0.453040   -1.542360   -1.782595
     10          9           0        0.055559   -2.308560    0.178817
     11          9           0       -1.893097   -1.435635   -0.177201
     12          1           0        1.919273    1.871624    0.987355
 ---------------------------------------------------------------------

 ******    1 imaginary frequencies (negative Signs) ******

                      1                      2                      3
                      A                      A                      A
 Frequencies --   -297.9969                49.6681                60.2224
 Red. masses --     17.0713                16.1006                16.8379
 Frc consts  --      0.8932                 0.0234                 0.0360
 IR Inten    --     57.4642                 0.3820                 0.0428

                      4                      5                      6
                      A                      A                      A
 Frequencies --    120.9673               158.3213               195.8119
 Red. masses --     16.3179                10.6772                14.3898
 Frc consts  --      0.1407                 0.1577                 0.3251
 IR Inten    --      0.5151                 7.1116                 9.8657

                      7                      8                      9
                      A                      A                      A
 Frequencies --    226.9897               237.1126               271.1082
 Red. masses --     17.5220                14.6130                15.4790
 Frc consts  --      0.5319                 0.4841                 0.6703
 IR Inten    --      2.9882                 2.4609                 5.0091

                     10                     11                     12
                      A                      A                      A
 Frequencies --    286.4099               342.9300               375.9899
 Red. masses --     11.7547                17.6817                18.3297
 Frc consts  --      0.5681                 1.2251                 1.5267
 IR Inten    --      6.9195                 1.1802                 1.1097

                     13                     14                     15
                      A                      A                      A
 Frequencies --    408.7506               438.4657               506.1559
 Red. masses --     15.3277                11.8499                16.2355
 Frc consts  --      1.5088                 1.3423                 2.4507
 IR Inten    --     15.7407                19.7027                33.8479

                     16                     17                     18
                      A                      A                      A
 Frequencies --    544.6069               601.1888               633.7206
 Red. masses --     17.8378                17.5493                 5.0854
 Frc consts  --      3.1171                 3.7371                 1.2033
 IR Inten    --      2.0129                 5.8838                51.7121

                     19                     20                     21
                      A                      A                      A
 Frequencies --    640.2687               759.6246               785.8426
 Red. masses --      1.2696                16.5214                 9.6798
 Frc consts  --      0.3067                 5.6169                 3.5220
 IR Inten    --     84.4988                32.2951                88.6586

                     22                     23                     24
                      A                      A                      A
 Frequencies --    938.3397              1094.4914              1179.1900
 Red. masses --     13.1655                12.7011                 1.4421
 Frc consts  --      6.8298                 8.9643                 1.1815
 IR Inten    --    100.3549                32.7938               200.0331

                     25                     26                     27
                      A                      A                      A
 Frequencies --   1224.0089              1229.8216              1248.2723
 Red. masses --     12.3967                10.3999                10.4298
 Frc consts  --     10.9427                 9.2675                 9.5751
 IR Inten    --    313.6328                67.0217               136.5750

                     28                     29                     30
                      A                      A                      A
 Frequencies --   1278.4874              1351.1312              3505.7858
 Red. masses --      6.7568                12.2751                 1.0649
 Frc consts  --      6.5071                13.2030                 7.7112
 IR Inten    --    271.2928               218.5375                 6.0146

 - Thermochemistry -
 -------------------
 Temperature   298.150 Kelvin.  Pressure   1.00000 Atm.
 Atom     1 has atomic number  6 and mass  12.00000

 Molecular mass:   199.95666 amu.
 Principal axes and moments of inertia in atomic units:
                           1         2         3
     Eigenvalues --  1293.728712211.871712582.83485
           X            0.72098  -0.53255  -0.44336
           Y            0.62582   0.22568   0.74661
           Z            0.29755   0.81576  -0.49599
 This molecule is an asymmetric top.
 Rotational symmetry number  1.
 Warning -- assumption of classical behavior for rotation
           may cause significant error
 Rotational temperatures (Kelvin)      0.06695     0.03916     0.03353
 Rotational constants (GHZ):           1.39499     0.81593     0.69874
    1 imaginary frequencies ignored.
 Zero-point vibrational energy     123775.7 (Joules/Mol)
                                   29.58311 (Kcal/Mol)
 Warning -- explicit consideration of  16 degrees of freedom as
           vibrations may cause significant error
 Vibrational temperatures:     71.46    86.65   174.04   227.79   281.73
          (Kelvin)            326.59   341.15   390.06   412.08   493.40
                              540.97   588.10   630.85   728.25   783.57
                              864.98   911.78   921.20  1092.93  1130.65
                             1350.06  1574.73  1696.59  1761.08  1769.44
                             1795.99  1839.46  1943.98  5044.04

 Zero-point correction=                           0.047144 (Hartree/Particle)
 Thermal correction to Energy=                    0.057896
 Thermal correction to Enthalpy=                  0.058840
 Thermal correction to Gibbs Free Energy=         0.009723
 Sum of electronic and zero-point Energies=          -1199.549375
 Sum of electronic and thermal Energies=             -1199.538623
 Sum of electronic and thermal Enthalpies=           -1199.537678
 Sum of electronic and thermal Free Energies=        -1199.586796

                     E (Thermal)             CV                S
                      KCal/Mol        Cal/Mol-Kelvin    Cal/Mol-Kelvin
 Total                   36.330             37.049            103.376
 Electronic               0.000              0.000              0.000
 Translational            0.889              2.981             41.783
 Rotational               0.889              2.981             30.381
 Vibrational             34.553             31.088             31.211
 Vibration     1          0.595              1.978              4.831
 Vibration     2          0.597              1.973              4.450
 Vibration     3          0.609              1.932              3.085
 Vibration     4          0.621              1.893              2.570
 Vibration     5          0.636              1.846              2.172
 Vibration     6          0.651              1.800              1.903
 Vibration     7          0.656              1.784              1.824
 Vibration     8          0.675              1.726              1.589
 Vibration     9          0.684              1.699              1.495
 Vibration    10          0.722              1.590              1.198
 Vibration    11          0.747              1.521              1.055
 Vibration    12          0.773              1.451              0.931
 Vibration    13          0.799              1.386              0.831
 Vibration    14          0.861              1.236              0.643
 Vibration    15          0.900              1.151              0.555
 Vibration    16          0.959              1.029              0.448

 Normal termination of Gaussian 16 at Fri May 23 07:40:21 2025.
