 Gaussian 16, Revision C.01,
 Gaussian 16:  ES64L-G16RevC.01  3-Jul-2019

 ----------------------------------------------------------------------
 #P wb97xd/6-311++G(d,p) Symm(None) scf(xqc) pop(None) freq opt(CalcFC,
  Tight)
 ----------------------------------------------------------------------

 ------------------------------
 Gaussian input prepared by ASE
 ------------------------------
 Symbolic Z-matrix:
 Charge =  0 Multiplicity = 1

 SCF Done:  E(RwB97XD) =  -1199.82788975     A.U. after   14 cycles
 SCF Done:  E(RwB97XD) =  -1199.82889451     A.U. after   13 cycles
 SCF Done:  E(RwB97XD) =  -1199.82918612     A.U. after   13 cycles
 SCF Done:  E(RwB97XD) =  -1199.82927596     A.U. after   12 cycles
 SCF Done:  E(RwB97XD) =  -1199.82928134     A.U. after   10 cycles
 SCF Done:  E(RwB97XD) =  -1199.82928274     A.U. after   10 cycles
 SCF Done:  E(RwB97XD) =  -1199.82928281     A.U. after   10 cycles
 SCF Done:  E(RwB97XD) =  -1199.82928296     A.U. after    9 cycles
 SCF Done:  E(RwB97XD) =  -1199.82928296     A.U. after    5 cycles
 Optimization completed.
    -- Stationary point found.
 Normal termination of Gaussian 16 at Fri May 23 04:29:15 2025.

 ----------------------------------------------------------------------
 #P Geom=AllCheck Guess=TCheck SCRF=Check GenChk RwB97XD/6-311++G(d,p)
 Freq
 ----------------------------------------------------------------------

 Structure from the checkpoint file:  "/tmp/Gau-88663.chk"
 ------------------------------
 Gaussian input prepared by ASE
 ------------------------------
 Charge =  0 Multiplicity = 1

                          Input orientation:
 ---------------------------------------------------------------------
 Center     Atomic      Atomic             Coordinates (Angstroms)
 Number     Number       Type             X           Y           Z
 ---------------------------------------------------------------------
      1          6           0        0.038864   -0.069761   -0.032277
      2          6           0        1.592924    0.052834   -0.000842
      3          9           0        3.822702   -0.692627    1.071857
      4          9           0        2.068995   -0.664407   -1.049256
      5         16           0        2.295501   -0.728439    1.552131
      6          8           0        1.899586   -2.098701    1.591958
      7          8           0        2.181326    0.166890    2.654357
      8          8           0        2.017370    1.327170   -0.008228
      9          9           0       -0.361895   -1.298929   -0.287778
     10          9           0       -0.487167    0.337647    1.116403
     11          9           0       -0.407594    0.739398   -1.008366
     12          1           0        1.553631    1.835944   -0.683265
 ---------------------------------------------------------------------

 SCF Done:  E(RwB97XD) =  -1199.82928296     A.U. after    1 cycles

 Isotropic polarizability for W=    0.000000       55.61 Bohr**3.
 End of Minotr F.D. properties file   721 does not exist.

                      1                      2                      3
                      A                      A                      A
 Frequencies --     35.7983                65.2468               133.7033
 Red. masses --     17.4022                16.8985                17.3469
 Frc consts  --      0.0131                 0.0424                 0.1827
 IR Inten    --      0.1321                 0.1511                 1.0375

                      4                      5                      6
                      A                      A                      A
 Frequencies --    203.4890               227.4172               233.2967
 Red. masses --     14.1827                16.8599                10.4479
 Frc consts  --      0.3460                 0.5137                 0.3350
 IR Inten    --      0.7507                 0.7418                 3.7706

                      7                      8                      9
                      A                      A                      A
 Frequencies --    281.7901               288.3521               315.8156
 Red. masses --     11.4446                 2.1342                 5.1656
 Frc consts  --      0.5354                 0.1046                 0.3036
 IR Inten    --      8.5221                64.0890                19.1311

                     10                     11                     12
                      A                      A                      A
 Frequencies --    342.9521               381.6636               424.1004
 Red. masses --      2.6939                12.0272                12.8050
 Frc consts  --      0.1867                 1.0322                 1.3570
 IR Inten    --     35.9436                 5.3974                21.0697

                     13                     14                     15
                      A                      A                      A
 Frequencies --    472.5490               489.6186               537.5140
 Red. masses --     17.8646                16.5026                14.7688
 Frc consts  --      2.3504                 2.3309                 2.5141
 IR Inten    --     17.2070                 6.6544                35.5133

                     16                     17                     18
                      A                      A                      A
 Frequencies --    601.0284               604.3147               663.2877
 Red. masses --     17.6636                16.4168                14.5981
 Frc consts  --      3.7594                 3.5324                 3.7840
 IR Inten    --     11.4976               100.2290                45.8521

                     19                     20                     21
                      A                      A                      A
 Frequencies --    744.6973               777.0307               927.8386
 Red. masses --     12.5866                17.7049                 4.5060
 Frc consts  --      4.1126                 6.2983                 2.2855
 IR Inten    --    161.2464                57.6754                83.3174

                     22                     23                     24
                      A                      A                      A
 Frequencies --   1103.5402              1196.6857              1218.2713
 Red. masses --     10.8993                13.3351                 5.5145
 Frc consts  --      7.8203                11.2514                 4.8222
 IR Inten    --    201.6312                58.0094               189.6968

                     25                     26                     27
                      A                      A                      A
 Frequencies --   1238.1062              1269.7922              1345.3074
 Red. masses --     15.1176                12.2795                 3.4975
 Frc consts  --     13.6536                11.6653                 3.7295
 IR Inten    --    314.4842               320.6284                36.4806

                     28                     29                     30
                      A                      A                      A
 Frequencies --   1354.8805              1457.3088              3846.3636
 Red. masses --      2.7023                19.5720                 1.0658
 Frc consts  --      2.9227                24.4900                 9.2905
 IR Inten    --     42.4367               292.1122               132.9348

 - Thermochemistry -
 -------------------
 Temperature   298.150 Kelvin.  Pressure   1.00000 Atm.
 Atom     1 has atomic number  6 and mass  12.00000

 Molecular mass:   199.95666 amu.
 Principal axes and moments of inertia in atomic units:
                           1         2         3
     Eigenvalues --  1130.241302206.109862331.34710
           X            0.81713  -0.57581  -0.02728
           Y           -0.22761  -0.36576   0.90245
           Z            0.52961   0.73121   0.42993
 This molecule is an asymmetric top.
 Rotational symmetry number  1.
 Warning -- assumption of classical behavior for rotation
           may cause significant error
 Rotational temperatures (Kelvin)      0.07663     0.03926     0.03715
 Rotational constants (GHZ):           1.59678     0.81806     0.77412
 Zero-point vibrational energy     136265.2 (Joules/Mol)
                                   32.56816 (Kcal/Mol)
 Warning -- explicit consideration of  17 degrees of freedom as
           vibrations may cause significant error
 Vibrational temperatures:     51.51    93.88   192.37   292.78   327.20
          (Kelvin)            335.66   405.43   414.87   454.39   493.43
                              549.13   610.19   679.89   704.45   773.36
                              864.75   869.47   954.32  1071.45  1117.97
                             1334.95  1587.75  1721.76  1752.82  1781.36
                             1826.95  1935.60  1949.37  2096.74  5534.06

 Zero-point correction=                           0.051901 (Hartree/Particle)
 Thermal correction to Energy=                    0.062379
 Thermal correction to Enthalpy=                  0.063323
 Thermal correction to Gibbs Free Energy=         0.014863
 Sum of electronic and zero-point Energies=          -1199.777382
 Sum of electronic and thermal Energies=             -1199.766904
 Sum of electronic and thermal Enthalpies=           -1199.765960
 Sum of electronic and thermal Free Energies=        -1199.814420

                     E (Thermal)             CV                S
                      KCal/Mol        Cal/Mol-Kelvin    Cal/Mol-Kelvin
 Total                   39.144             36.784            101.994
 Electronic               0.000              0.000              0.000
 Translational            0.889              2.981             41.783
 Rotational               0.889              2.981             30.142
 Vibrational             37.366             30.822             30.068
 Vibration     1          0.594              1.982              5.479
 Vibration     2          0.597              1.971              4.292
 Vibration     3          0.613              1.920              2.892
 Vibration     4          0.639              1.835              2.101
 Vibration     5          0.651              1.799              1.899
 Vibration     6          0.654              1.790              1.853
 Vibration     7          0.681              1.707              1.523
 Vibration     8          0.685              1.695              1.484
 Vibration     9          0.703              1.643              1.332
 Vibration    10          0.722              1.590              1.198
 Vibration    11          0.751              1.509              1.033
 Vibration    12          0.786              1.418              0.878
 Vibration    13          0.829              1.311              0.730
 Vibration    14          0.845              1.273              0.685
 Vibration    15          0.893              1.167              0.571
 Vibration    16          0.959              1.030              0.448
 Vibration    17          0.963              1.023              0.442

 Optimization completed.
    -- Stationary point found.
 Normal termination of Gaussian 16 at Fri May 23 04:30:34 2025.
