 Gaussian 16, Revision C.01,
 Gaussian 16:  ES64L-G16RevC.01  3-Jul-2019

 ----------------------------------------------------------------------
 #P wb97xd/6-311++G(d,p) Symm(None) scf(xqc) pop(None) freq opt(CalcFC,
  Tight)
 ----------------------------------------------------------------------

 ------------------------------
 Gaussian input prepared by ASE
 ------------------------------
 Symbolic Z-matrix:
 Charge =  0 Multiplicity = 1

 SCF Done:  E(RwB97XD) =  -1199.69584260     A.U. after   15 cycles
 SCF Done:  E(RwB97XD) =  -1199.69083162     A.U. after   14 cycles
 SCF Done:  E(RwB97XD) =  -1199.72694357     A.U. after   14 cycles
 SCF Done:  E(RwB97XD) =  -1199.73297181     A.U. after   14 cycles
 SCF Done:  E(RwB97XD) =  -1199.72449840     A.U. after   15 cycles
 SCF Done:  E(RwB97XD) =  -1199.70354021     A.U. after   14 cycles
 SCF Done:  E(RwB97XD) =  -1199.70833124     A.U. after   14 cycles
 SCF Done:  E(RwB97XD) =  -1199.73500148     A.U. after   11 cycles
 SCF Done:  E(RwB97XD) =  -1199.73637827     A.U. after   13 cycles
 SCF Done:  E(RwB97XD) =  -1199.73661632     A.U. after   12 cycles
 SCF Done:  E(RwB97XD) =  -1199.73682264     A.U. after   10 cycles
 SCF Done:  E(RwB97XD) =  -1199.73682394     A.U. after   10 cycles
 SCF Done:  E(RwB97XD) =  -1199.73682585     A.U. after   10 cycles
 SCF Done:  E(RwB97XD) =  -1199.73682726     A.U. after   10 cycles
 SCF Done:  E(RwB97XD) =  -1199.73682869     A.U. after   10 cycles
 SCF Done:  E(RwB97XD) =  -1199.73682924     A.U. after   10 cycles
 SCF Done:  E(RwB97XD) =  -1199.73682933     A.U. after    8 cycles
 SCF Done:  E(RwB97XD) =  -1199.73682934     A.U. after    7 cycles
 SCF Done:  E(RwB97XD) =  -1199.73682934     A.U. after    6 cycles
 Optimization completed.
    -- Stationary point found.
 Normal termination of Gaussian 16 at Fri May 23 05:26:18 2025.

 ----------------------------------------------------------------------
 #P Geom=AllCheck Guess=TCheck SCRF=Check GenChk RwB97XD/6-311++G(d,p)
 Freq
 ----------------------------------------------------------------------

 Structure from the checkpoint file:  "/tmp/Gau-293685.chk"
 ------------------------------
 Gaussian input prepared by ASE
 ------------------------------
 Charge =  0 Multiplicity = 1

                          Input orientation:
 ---------------------------------------------------------------------
 Center     Atomic      Atomic             Coordinates (Angstroms)
 Number     Number       Type             X           Y           Z
 ---------------------------------------------------------------------
      1          6           0       -0.040100    0.213708   -2.681524
      2          6           0       -0.180713    1.696972   -2.241830
      3          9           0        0.854491    2.394031   -2.726898
      4          9           0       -1.318537    2.184535   -2.760818
      5         16           0       -0.310206    2.203601   -0.399873
      6          8           0        1.011053    0.087049    0.217611
      7          8           0       -1.458769    1.495757    0.163756
      8          8           0        1.103663    1.500841    0.175933
      9          9           0        1.191962   -0.223517   -2.476658
     10          9           0       -0.905219   -0.554579   -2.034857
     11          9           0       -0.298548    0.135334   -3.988777
     12          1           0        0.544090   -0.068080    1.050349
 ---------------------------------------------------------------------

 SCF Done:  E(RwB97XD) =  -1199.73682934     A.U. after    1 cycles

 Isotropic polarizability for W=    0.000000       60.28 Bohr**3.
 End of Minotr F.D. properties file   721 does not exist.

                      1                      2                      3
                      A                      A                      A
 Frequencies --     38.2993                64.6031               133.1295
 Red. masses --     13.8650                14.7237                16.3147
 Frc consts  --      0.0120                 0.0362                 0.1704
 IR Inten    --      0.0267                 0.3545                 1.9016

                      4                      5                      6
                      A                      A                      A
 Frequencies --    151.1596               174.1693               205.3009
 Red. masses --     10.0856                11.8990                 2.8327
 Frc consts  --      0.1358                 0.2127                 0.0703
 IR Inten    --      1.1491                 5.8322                27.7404

                      7                      8                      9
                      A                      A                      A
 Frequencies --    228.6780               252.1888               306.6979
 Red. masses --     16.2293                 7.5273                 7.8898
 Frc consts  --      0.5000                 0.2821                 0.4373
 IR Inten    --      1.4439                18.2568                11.3917

                     10                     11                     12
                      A                      A                      A
 Frequencies --    311.6803               355.2276               364.7588
 Red. masses --      4.0302                 6.3123                 7.2740
 Frc consts  --      0.2307                 0.4693                 0.5702
 IR Inten    --     40.4801                32.3566                23.1728

                     13                     14                     15
                      A                      A                      A
 Frequencies --    447.8102               459.6519               543.1191
 Red. masses --      8.4403                17.8120                17.2560
 Frc consts  --      0.9972                 2.2173                 2.9990
 IR Inten    --     45.6677                 5.4023                 1.5836

                     16                     17                     18
                      A                      A                      A
 Frequencies --    555.0795               598.2585               635.6940
 Red. masses --     14.0133                17.8864                17.9140
 Frc consts  --      2.5439                 3.7718                 4.2652
 IR Inten    --     27.4480                 1.9171                53.4323

                     19                     20                     21
                      A                      A                      A
 Frequencies --    655.7876               761.7169               963.3200
 Red. masses --     16.9811                17.2906                15.4660
 Frc consts  --      4.3027                 5.9108                 8.4561
 IR Inten    --     12.5051                14.1387                 1.7586

                     22                     23                     24
                      A                      A                      A
 Frequencies --    990.7812              1134.7348              1189.5531
 Red. masses --     13.6406                13.6646                13.7380
 Frc consts  --      7.8893                10.3666                11.4536
 IR Inten    --     72.2831               156.2395                84.2802

                     25                     26                     27
                      A                      A                      A
 Frequencies --   1212.9734              1227.8014              1263.9253
 Red. masses --     14.3562                14.7080                13.4725
 Frc consts  --     12.4449                13.0635                12.6806
 IR Inten    --    171.8353               244.8051               418.0183

                     28                     29                     30
                      A                      A                      A
 Frequencies --   1330.3978              1444.2498              3801.6892
 Red. masses --     12.7603                 1.1084                 1.0686
 Frc consts  --     13.3068                 1.3622                 9.0992
 IR Inten    --    134.0941                55.5604                71.2998

 - Thermochemistry -
 -------------------
 Temperature   298.150 Kelvin.  Pressure   1.00000 Atm.
 Atom     1 has atomic number  6 and mass  12.00000

 Molecular mass:   199.95666 amu.
 Principal axes and moments of inertia in atomic units:
                           1         2         3
     Eigenvalues --  1332.167972023.006912344.54538
           X            0.04079  -0.49743   0.86655
           Y            0.32230   0.82746   0.45982
           Z            0.94576  -0.26053  -0.19408
 This molecule is an asymmetric top.
 Rotational symmetry number  1.
 Warning -- assumption of classical behavior for rotation
           may cause significant error
 Rotational temperatures (Kelvin)      0.06502     0.04281     0.03694
 Rotational constants (GHZ):           1.35474     0.89211     0.76976
 Zero-point vibrational energy     130407.5 (Joules/Mol)
                                   31.16815 (Kcal/Mol)
 Warning -- explicit consideration of  17 degrees of freedom as
           vibrations may cause significant error
 Vibrational temperatures:     55.10    92.95   191.54   217.48   250.59
          (Kelvin)            295.38   329.02   362.84   441.27   448.44
                              511.09   524.81   644.30   661.34   781.43
                              798.64   860.76   914.62   943.53  1095.94
                             1386.00  1425.51  1632.63  1711.50  1745.20
                             1766.53  1818.51  1914.15  2077.95  5469.78

 Zero-point correction=                           0.049670 (Hartree/Particle)
 Thermal correction to Energy=                    0.060761
 Thermal correction to Enthalpy=                  0.061705
 Thermal correction to Gibbs Free Energy=         0.011891
 Sum of electronic and zero-point Energies=          -1199.687160
 Sum of electronic and thermal Energies=             -1199.676069
 Sum of electronic and thermal Enthalpies=           -1199.675125
 Sum of electronic and thermal Free Energies=        -1199.724938

                     E (Thermal)             CV                S
                      KCal/Mol        Cal/Mol-Kelvin    Cal/Mol-Kelvin
 Total                   38.128             38.079            104.841
 Electronic               0.000              0.000              0.000
 Translational            0.889              2.981             41.783
 Rotational               0.889              2.981             30.225
 Vibrational             36.350             32.118             32.832
 Vibration     1          0.594              1.982              5.345
 Vibration     2          0.597              1.971              4.311
 Vibration     3          0.613              1.920              2.900
 Vibration     4          0.619              1.901              2.658
 Vibration     5          0.627              1.874              2.390
 Vibration     6          0.640              1.832              2.085
 Vibration     7          0.651              1.797              1.889
 Vibration     8          0.664              1.759              1.715
 Vibration     9          0.697              1.661              1.380
 Vibration    10          0.700              1.651              1.353
 Vibration    11          0.731              1.565              1.143
 Vibration    12          0.738              1.545              1.102
 Vibration    13          0.807              1.366              0.802
 Vibration    14          0.818              1.340              0.767
 Vibration    15          0.898              1.155              0.559
 Vibration    16          0.911              1.129              0.534
 Vibration    17          0.956              1.035              0.453

 Optimization completed.
    -- Stationary point found.
 Normal termination of Gaussian 16 at Fri May 23 05:27:30 2025.
