 Gaussian 16, Revision C.01,
 Gaussian 16:  ES64L-G16RevC.01  3-Jul-2019

 ----------------------------------------------------------------------
 #P wb97xd/6-311++G(d,p) Symm(None) scf(xqc) pop(None) freq opt(CalcFC,
  Tight)
 ----------------------------------------------------------------------

 ------------------------------
 Gaussian input prepared by ASE
 ------------------------------
 Symbolic Z-matrix:
 Charge =  0 Multiplicity = 1

 SCF Done:  E(RwB97XD) =  -1199.72776415     A.U. after   16 cycles
 SCF Done:  E(RwB97XD) =  -1199.73315812     A.U. after   14 cycles
 SCF Done:  E(RwB97XD) =  -1199.73281718     A.U. after   15 cycles
 SCF Done:  E(RwB97XD) =  -1199.73456914     A.U. after   13 cycles
 SCF Done:  E(RwB97XD) =  -1199.73481770     A.U. after   13 cycles
 SCF Done:  E(RwB97XD) =  -1199.73474045     A.U. after   14 cycles
 SCF Done:  E(RwB97XD) =  -1199.73499058     A.U. after   13 cycles
 SCF Done:  E(RwB97XD) =  -1199.73504323     A.U. after   13 cycles
 SCF Done:  E(RwB97XD) =  -1199.73514114     A.U. after   14 cycles
 SCF Done:  E(RwB97XD) =  -1199.73411289     A.U. after   15 cycles
 SCF Done:  E(RwB97XD) =  -1199.73529393     A.U. after   13 cycles
 SCF Done:  E(RwB97XD) =  -1199.73542725     A.U. after   14 cycles
 SCF Done:  E(RwB97XD) =  -1199.73551468     A.U. after   13 cycles
 SCF Done:  E(RwB97XD) =  -1199.73558020     A.U. after   12 cycles
 SCF Done:  E(RwB97XD) =  -1199.73558702     A.U. after   11 cycles
 SCF Done:  E(RwB97XD) =  -1199.73558722     A.U. after    9 cycles
 SCF Done:  E(RwB97XD) =  -1199.73558722     A.U. after    8 cycles
 SCF Done:  E(RwB97XD) =  -1199.73558723     A.U. after    6 cycles
 SCF Done:  E(RwB97XD) =  -1199.73558723     A.U. after    5 cycles
 Optimization completed.
    -- Stationary point found.
 Normal termination of Gaussian 16 at Fri May 23 05:23:22 2025.

 ----------------------------------------------------------------------
 #P Geom=AllCheck Guess=TCheck SCRF=Check GenChk RwB97XD/6-311++G(d,p)
 Freq
 ----------------------------------------------------------------------

 Structure from the checkpoint file:  "/tmp/Gau-50171.chk"
 ------------------------------
 Gaussian input prepared by ASE
 ------------------------------
 Charge =  0 Multiplicity = 1

                          Input orientation:
 ---------------------------------------------------------------------
 Center     Atomic      Atomic             Coordinates (Angstroms)
 Number     Number       Type             X           Y           Z
 ---------------------------------------------------------------------
      1          6           0        0.555142    3.791135   -1.706016
      2          6           0        2.004498    3.526003   -1.215228
      3          9           0        2.856235    4.073673   -2.096478
      4          9           0        2.196025    4.077994   -0.023597
      5         16           0        2.520768    1.682403   -1.177959
      6          8           0        0.964973   -0.003385   -0.153713
      7          8           0        3.782827    1.681283   -0.451958
      8          8           0        1.221755    1.395949   -0.124475
      9          9           0        0.269509    2.942330   -2.702600
     10          9           0       -0.327361    3.622021   -0.735012
     11          9           0        0.447529    5.031888   -2.166831
     12          1           0        0.084455   -0.021495   -0.548477
 ---------------------------------------------------------------------

 SCF Done:  E(RwB97XD) =  -1199.73558723     A.U. after    1 cycles

 Isotropic polarizability for W=    0.000000       61.24 Bohr**3.
 End of Minotr F.D. properties file   721 does not exist.

                      1                      2                      3
                      A                      A                      A
 Frequencies --     30.6981                58.8904                75.9699
 Red. masses --     11.3266                16.2036                 7.4362
 Frc consts  --      0.0063                 0.0331                 0.0253
 IR Inten    --      2.3605                 1.9603                 4.9163

                      4                      5                      6
                      A                      A                      A
 Frequencies --    133.7617               172.2277               227.5001
 Red. masses --     16.6166                16.5175                18.0084
 Frc consts  --      0.1752                 0.2887                 0.5491
 IR Inten    --      2.7258                 5.5043                 0.4761

                      7                      8                      9
                      A                      A                      A
 Frequencies --    232.0627               266.0227               292.4537
 Red. masses --     17.0276                 7.7947                 1.9028
 Frc consts  --      0.5403                 0.3250                 0.0959
 IR Inten    --      1.6148                 4.7607                76.5639

                     10                     11                     12
                      A                      A                      A
 Frequencies --    309.7372               315.9031               369.3419
 Red. masses --      3.0423                13.4343                17.3715
 Frc consts  --      0.1720                 0.7899                 1.3962
 IR Inten    --     24.3292                 0.9738                 0.1778

                     13                     14                     15
                      A                      A                      A
 Frequencies --    412.9593               432.9400               509.6310
 Red. masses --     10.7848                17.8703                16.3823
 Frc consts  --      1.0836                 1.9735                 2.5069
 IR Inten    --     34.2920                11.7670                35.5655

                     16                     17                     18
                      A                      A                      A
 Frequencies --    546.9748               592.7824               654.9535
 Red. masses --     18.3399                17.6978                17.5755
 Frc consts  --      3.2328                 3.6640                 4.4420
 IR Inten    --      0.4191                 1.7001                16.8536

                     19                     20                     21
                      A                      A                      A
 Frequencies --    707.6147               758.6676               969.7474
 Red. masses --     17.4845                17.2784                13.4299
 Frc consts  --      5.1582                 5.8595                 7.4411
 IR Inten    --     91.4934                15.6052               107.3389

                     22                     23                     24
                      A                      A                      A
 Frequencies --    993.0651              1145.8403              1209.4407
 Red. masses --     14.8739                13.6958                13.1563
 Frc consts  --      8.6423                10.5946                11.3384
 IR Inten    --      6.6567               152.5020               296.6188

                     25                     26                     27
                      A                      A                      A
 Frequencies --   1221.5295              1244.2328              1253.0645
 Red. masses --     13.0836                15.9762                14.7712
 Frc consts  --     11.5023                14.5723                13.6651
 IR Inten    --     85.4258               247.9937               326.0849

                     28                     29                     30
                      A                      A                      A
 Frequencies --   1350.0957              1426.2533              3832.4960
 Red. masses --     12.7702                 1.1100                 1.0687
 Frc consts  --     13.7145                 1.3303                 9.2487
 IR Inten    --    130.6914                61.0257                78.2071

 - Thermochemistry -
 -------------------
 Temperature   298.150 Kelvin.  Pressure   1.00000 Atm.
 Atom     1 has atomic number  6 and mass  12.00000

 Molecular mass:   199.95666 amu.
 Principal axes and moments of inertia in atomic units:
                           1         2         3
     Eigenvalues --  1286.614712159.633102713.48885
           X           -0.39928   0.91144  -0.09929
           Y            0.84378   0.40767   0.34905
           Z           -0.35862  -0.05559   0.93183
 This molecule is an asymmetric top.
 Rotational symmetry number  1.
 Warning -- assumption of classical behavior for rotation
           may cause significant error
 Rotational temperatures (Kelvin)      0.06732     0.04011     0.03192
 Rotational constants (GHZ):           1.40271     0.83567     0.66510
 Zero-point vibrational energy     130075.1 (Joules/Mol)
                                   31.08869 (Kcal/Mol)
 Warning -- explicit consideration of  17 degrees of freedom as
           vibrations may cause significant error
 Vibrational temperatures:     44.17    84.73   109.30   192.45   247.80
          (Kelvin)            327.32   333.89   382.75   420.78   445.64
                              454.51   531.40   594.16   622.90   733.25
                              786.97   852.88   942.33  1018.10  1091.55
                             1395.25  1428.80  1648.61  1740.12  1757.51
                             1790.17  1802.88  1942.49  2052.06  5514.11

 Zero-point correction=                           0.049543 (Hartree/Particle)
 Thermal correction to Energy=                    0.060858
 Thermal correction to Enthalpy=                  0.061802
 Thermal correction to Gibbs Free Energy=         0.010900
 Sum of electronic and zero-point Energies=          -1199.686044
 Sum of electronic and thermal Energies=             -1199.674730
 Sum of electronic and thermal Enthalpies=           -1199.673785
 Sum of electronic and thermal Free Energies=        -1199.724687

                     E (Thermal)             CV                S
                      KCal/Mol        Cal/Mol-Kelvin    Cal/Mol-Kelvin
 Total                   38.189             38.247            107.132
 Electronic               0.000              0.000              0.000
 Translational            0.889              2.981             41.783
 Rotational               0.889              2.981             30.401
 Vibrational             36.411             32.285             34.948
 Vibration     1          0.594              1.984              5.784
 Vibration     2          0.596              1.974              4.494
 Vibration     3          0.599              1.965              3.992
 Vibration     4          0.613              1.920              2.891
 Vibration     5          0.626              1.877              2.411
 Vibration     6          0.651              1.799              1.899
 Vibration     7          0.653              1.792              1.863
 Vibration     8          0.672              1.735              1.622
 Vibration     9          0.688              1.688              1.460
 Vibration    10          0.699              1.655              1.364
 Vibration    11          0.703              1.643              1.331
 Vibration    12          0.742              1.535              1.083
 Vibration    13          0.777              1.442              0.916
 Vibration    14          0.794              1.398              0.849
 Vibration    15          0.865              1.229              0.634
 Vibration    16          0.902              1.146              0.550
 Vibration    17          0.950              1.047              0.462

 Optimization completed.
    -- Stationary point found.
 Normal termination of Gaussian 16 at Fri May 23 05:24:51 2025.
