 Gaussian 16, Revision C.01,
 Gaussian 16:  ES64L-G16RevC.01  3-Jul-2019

 ----------------------------------------------------------------------
 #P wb97xd/6-311++G(d,p) Symm(None) scf(xqc) pop(None) freq opt(CalcFC,
  Tight)
 ----------------------------------------------------------------------

 ------------------------------
 Gaussian input prepared by ASE
 ------------------------------
 Symbolic Z-matrix:
 Charge =  0 Multiplicity = 1

 SCF Done:  E(RwB97XD) =  -1199.59801053     A.U. after   16 cycles
 SCF Done:  E(RwB97XD) =  -1199.60806774     A.U. after   14 cycles
 SCF Done:  E(RwB97XD) =  -1199.61035500     A.U. after   15 cycles
 SCF Done:  E(RwB97XD) =  -1199.61049017     A.U. after   14 cycles
 SCF Done:  E(RwB97XD) =  -1199.61081023     A.U. after   15 cycles
 SCF Done:  E(RwB97XD) =  -1199.61090499     A.U. after   13 cycles
 SCF Done:  E(RwB97XD) =  -1199.61091945     A.U. after   11 cycles
 SCF Done:  E(RwB97XD) =  -1199.61092180     A.U. after   11 cycles
 SCF Done:  E(RwB97XD) =  -1199.61092239     A.U. after   10 cycles
 SCF Done:  E(RwB97XD) =  -1199.61092349     A.U. after   11 cycles
 SCF Done:  E(RwB97XD) =  -1199.61093794     A.U. after   11 cycles
 SCF Done:  E(RwB97XD) =  -1199.61093857     A.U. after    9 cycles
 SCF Done:  E(RwB97XD) =  -1199.61092412     A.U. after   12 cycles
 SCF Done:  E(RwB97XD) =  -1199.61093888     A.U. after   11 cycles
 SCF Done:  E(RwB97XD) =  -1199.61093889     A.U. after   10 cycles
 SCF Done:  E(RwB97XD) =  -1199.61093906     A.U. after   11 cycles
 SCF Done:  E(RwB97XD) =  -1199.61093907     A.U. after    8 cycles
 SCF Done:  E(RwB97XD) =  -1199.61093907     A.U. after    8 cycles
 SCF Done:  E(RwB97XD) =  -1199.61093907     A.U. after    6 cycles
 Optimization completed.
    -- Stationary point found.
 Normal termination of Gaussian 16 at Fri May 23 05:22:29 2025.

 ----------------------------------------------------------------------
 #P Geom=AllCheck Guess=TCheck SCRF=Check GenChk RwB97XD/6-311++G(d,p)
 Freq
 ----------------------------------------------------------------------

 Structure from the checkpoint file:  "/tmp/Gau-139757.chk"
 ------------------------------
 Gaussian input prepared by ASE
 ------------------------------
 Charge =  0 Multiplicity = 1

                          Input orientation:
 ---------------------------------------------------------------------
 Center     Atomic      Atomic             Coordinates (Angstroms)
 Number     Number       Type             X           Y           Z
 ---------------------------------------------------------------------
      1          6           0        2.542391    0.044774   -2.588146
      2          6           0        2.581936   -0.551020   -1.220140
      3          9           0       -0.653471    0.624324    0.737788
      4          9           0        2.792534   -1.879799   -1.202092
      5         16           0        1.790114    0.044447    0.077378
      6          8           0        0.165778    0.023894   -0.291127
      7          8           0        2.020636   -0.578062    1.336066
      8          8           0        2.022158    1.600871    0.172213
      9          9           0        2.171500    1.349065   -2.532611
     10          9           0        3.739264   -0.009297   -3.170851
     11          9           0        1.682320   -0.574946   -3.401471
     12          1           0        1.680032    2.077577   -0.599133
 ---------------------------------------------------------------------

 SCF Done:  E(RwB97XD) =  -1199.61093907     A.U. after    1 cycles

 Isotropic polarizability for W=    0.000000       66.38 Bohr**3.
 End of Minotr F.D. properties file   721 does not exist.

                      1                      2                      3
                      A                      A                      A
 Frequencies --     41.5605                52.2926               117.5638
 Red. masses --     17.9835                16.0405                13.3995
 Frc consts  --      0.0183                 0.0258                 0.1091
 IR Inten    --      0.1520                 0.8896                 2.5023

                      4                      5                      6
                      A                      A                      A
 Frequencies --    140.9779               188.0619               213.1199
 Red. masses --     14.9520                 7.7910                11.2568
 Frc consts  --      0.1751                 0.1623                 0.3012
 IR Inten    --      0.8557                 7.2395                 5.0336

                      7                      8                      9
                      A                      A                      A
 Frequencies --    231.3538               245.1523               276.0723
 Red. masses --      2.1062                 4.4528                 7.1863
 Frc consts  --      0.0664                 0.1577                 0.3227
 IR Inten    --     27.1687                19.4532                17.2482

                     10                     11                     12
                      A                      A                      A
 Frequencies --    331.5546               338.5914               430.2009
 Red. masses --     12.0976                 7.8712                13.5913
 Frc consts  --      0.7835                 0.5317                 1.4820
 IR Inten    --      3.2504                 5.9940                13.0065

                     13                     14                     15
                      A                      A                      A
 Frequencies --    438.7956               452.0773               494.0728
 Red. masses --     14.7236                 5.7443                17.3188
 Frc consts  --      1.6703                 0.6917                 2.4909
 IR Inten    --      3.7313                25.2509                19.8865

                     16                     17                     18
                      A                      A                      A
 Frequencies --    561.9521               585.3286               606.5210
 Red. masses --     19.2206                16.3462                15.8097
 Frc consts  --      3.5761                 3.2996                 3.4266
 IR Inten    --      5.7169                 8.5781                12.5441

                     19                     20                     21
                      A                      A                      A
 Frequencies --    633.6115               756.1264               782.2024
 Red. masses --     17.5549                17.3904                16.9391
 Frc consts  --      4.1524                 5.8580                 6.1063
 IR Inten    --    164.0606                 8.1833               216.3866

                     22                     23                     24
                      A                      A                      A
 Frequencies --    882.0859              1083.8069              1111.3847
 Red. masses --     17.1343                 9.6839                 1.4812
 Frc consts  --      7.8548                 6.7020                 1.0780
 IR Inten    --    176.2083               112.5035               298.3875

                     25                     26                     27
                      A                      A                      A
 Frequencies --   1166.7361              1184.5244              1274.6625
 Red. masses --      5.1389                10.0717                12.2464
 Frc consts  --      4.1216                 8.3261                11.7233
 IR Inten    --    170.3900               300.2465                 0.7095

                     28                     29                     30
                      A                      A                      A
 Frequencies --   1347.5526              1392.8344              3803.6035
 Red. masses --     12.1894                13.0402                 1.0651
 Frc consts  --     13.0414                14.9051                 9.0790
 IR Inten    --    517.2665               217.4269               189.1294

 - Thermochemistry -
 -------------------
 Temperature   298.150 Kelvin.  Pressure   1.00000 Atm.
 Atom     1 has atomic number  6 and mass  12.00000

 Molecular mass:   199.95666 amu.
 Principal axes and moments of inertia in atomic units:
                           1         2         3
     Eigenvalues --  1132.735222598.328502851.59136
           X           -0.50460  -0.51980   0.68934
           Y            0.11852   0.74918   0.65168
           Z            0.85518  -0.41054   0.31642
 This molecule is an asymmetric top.
 Rotational symmetry number  1.
 Warning -- assumption of classical behavior for rotation
           may cause significant error
 Rotational temperatures (Kelvin)      0.07646     0.03333     0.03037
 Rotational constants (GHZ):           1.59326     0.69458     0.63289
 Zero-point vibrational energy     126591.1 (Joules/Mol)
                                   30.25600 (Kcal/Mol)
 Warning -- explicit consideration of  18 degrees of freedom as
           vibrations may cause significant error
 Vibrational temperatures:     59.80    75.24   169.15   202.84   270.58
          (Kelvin)            306.63   332.87   352.72   397.21   477.03
                              487.16   618.96   631.33   650.44   710.86
                              808.52   842.16   872.65   911.63  1087.90
                             1125.41  1269.12  1559.36  1599.03  1678.67
                             1704.27  1833.95  1938.83  2003.98  5472.54

 Zero-point correction=                           0.048216 (Hartree/Particle)
 Thermal correction to Energy=                    0.059470
 Thermal correction to Enthalpy=                  0.060415
 Thermal correction to Gibbs Free Energy=         0.010075
 Sum of electronic and zero-point Energies=          -1199.562723
 Sum of electronic and thermal Energies=             -1199.551469
 Sum of electronic and thermal Enthalpies=           -1199.550525
 Sum of electronic and thermal Free Energies=        -1199.600864

                     E (Thermal)             CV                S
                      KCal/Mol        Cal/Mol-Kelvin    Cal/Mol-Kelvin
 Total                   37.318             38.835            105.947
 Electronic               0.000              0.000              0.000
 Translational            0.889              2.981             41.783
 Rotational               0.889              2.981             30.507
 Vibrational             35.541             32.874             33.657
 Vibration     1          0.594              1.981              5.183
 Vibration     2          0.596              1.977              4.729
 Vibration     3          0.608              1.935              3.140
 Vibration     4          0.615              1.912              2.791
 Vibration     5          0.633              1.856              2.247
 Vibration     6          0.644              1.821              2.017
 Vibration     7          0.653              1.793              1.868
 Vibration     8          0.660              1.771              1.765
 Vibration     9          0.678              1.718              1.558
 Vibration    10          0.714              1.612              1.252
 Vibration    11          0.719              1.598              1.219
 Vibration    12          0.791              1.404              0.858
 Vibration    13          0.799              1.386              0.830
 Vibration    14          0.811              1.356              0.790
 Vibration    15          0.850              1.263              0.673
 Vibration    16          0.918              1.114              0.520
 Vibration    17          0.942              1.063              0.476
 Vibration    18          0.965              1.018              0.439

 Optimization completed.
    -- Stationary point found.
 Normal termination of Gaussian 16 at Fri May 23 05:23:42 2025.
