 Gaussian 16, Revision C.01,
 Gaussian 16:  ES64L-G16RevC.01  3-Jul-2019

 ----------------------------------------------------------------------
 #P wb97xd/6-311++G(d,p) Symm(None) scf(xqc) pop(None) opt(NoFreeze,TS,
 CalcAll,NoEigentest,MaxCycle=999)
 ----------------------------------------------------------------------

 ------------------------------
 Gaussian input prepared by ASE
 ------------------------------
 Symbolic Z-matrix:
 Charge =  0 Multiplicity = 1

 SCF Done:  E(RwB97XD) =  -1199.63491059     A.U. after   21 cycles
 SCF Done:  E(RwB97XD) =  -1199.64247687     A.U. after   19 cycles
 SCF Done:  E(RwB97XD) =  -1199.64422722     A.U. after   19 cycles
 SCF Done:  E(RwB97XD) =  -1199.64452532     A.U. after   17 cycles
 SCF Done:  E(RwB97XD) =  -1199.64452834     A.U. after   14 cycles

 Isotropic polarizability for W=    0.000000       68.82 Bohr**3.
 End of Minotr F.D. properties file   721 does not exist.

 Optimization completed.
    -- Stationary point found.

                          Input orientation:
 ---------------------------------------------------------------------
 Center     Atomic      Atomic             Coordinates (Angstroms)
 Number     Number       Type             X           Y           Z
 ---------------------------------------------------------------------
      1          6           0       -0.742402   -1.257324   -0.011278
      2          6           0       -0.066967    0.130128    0.041950
      3          9           0       -0.442791    0.828641   -1.042792
      4          9           0       -0.454649    0.787964    1.131996
      5         16           0        1.980610    0.056320   -0.182108
      6          8           0        1.974499   -0.828898    1.085298
      7          8           0        3.504218   -0.338324    0.216301
      8          8           0        2.010402    1.623210    0.236820
      9          9           0       -0.172943   -1.986940   -0.977430
     10          9           0       -0.612441   -1.897236    1.142015
     11          9           0       -2.040307   -1.139077   -0.285053
     12          1           0        2.866463    1.824727    0.635582
 ---------------------------------------------------------------------

 ******    1 imaginary frequencies (negative Signs) ******

                      1                      2                      3
                      A                      A                      A
 Frequencies --   -866.2387                53.3309                67.5401
 Red. masses --     18.0633                17.5437                11.7805
 Frc consts  --      7.9859                 0.0294                 0.0317
 IR Inten    --    391.0526                 0.1690                 1.0479

                      4                      5                      6
                      A                      A                      A
 Frequencies --    107.5704               158.7756               188.2474
 Red. masses --     15.6702                 7.9570                 8.0002
 Frc consts  --      0.1068                 0.1182                 0.1670
 IR Inten    --      0.0396                 2.9860                11.5233

                      7                      8                      9
                      A                      A                      A
 Frequencies --    227.3924               245.1631               268.5538
 Red. masses --     18.3604                13.7180                 5.5743
 Frc consts  --      0.5593                 0.4858                 0.2369
 IR Inten    --      2.5842                 3.0058                22.7238

                     10                     11                     12
                      A                      A                      A
 Frequencies --    286.6453               310.1768               366.1476
 Red. masses --      2.4702                 3.1129                13.8758
 Frc consts  --      0.1196                 0.1765                 1.0960
 IR Inten    --     48.2551                30.3706                18.3615

                     13                     14                     15
                      A                      A                      A
 Frequencies --    379.1757               423.3271               451.6253
 Red. masses --     15.1750                 7.8136                13.4096
 Frc consts  --      1.2855                 0.8250                 1.6115
 IR Inten    --      7.1261                31.7178                 7.4246

                     16                     17                     18
                      A                      A                      A
 Frequencies --    539.1635               592.8204               633.9534
 Red. masses --     17.6157                17.9324                16.7319
 Frc consts  --      3.0171                 3.7131                 3.9620
 IR Inten    --      4.2136                 1.6879                16.0911

                     19                     20                     21
                      A                      A                      A
 Frequencies --    686.4180               746.8933               800.9222
 Red. masses --     17.0885                16.5491                16.7928
 Frc consts  --      4.7439                 5.4393                 6.3468
 IR Inten    --    100.3936                39.6067               163.9626

                     22                     23                     24
                      A                      A                      A
 Frequencies --    911.4240              1013.2084              1128.2254
 Red. masses --     13.3201                13.4538                 3.5660
 Frc consts  --      6.5193                 8.1375                 2.6744
 IR Inten    --    140.3241                49.6468               265.4264

                     25                     26                     27
                      A                      A                      A
 Frequencies --   1145.6795              1199.5349              1207.8654
 Red. masses --      1.5893                12.7872                12.9538
 Frc consts  --      1.2291                10.8405                11.1349
 IR Inten    --     11.5019               151.8216               231.9647

                     28                     29                     30
                      A                      A                      A
 Frequencies --   1241.2619              1340.7181              3835.4624
 Red. masses --     13.1160                12.2549                 1.0662
 Frc consts  --     11.9063                12.9788                 9.2411
 IR Inten    --    285.9746               262.9163               157.0003

 - Thermochemistry -
 -------------------
 Temperature   298.150 Kelvin.  Pressure   1.00000 Atm.
 Atom     1 has atomic number  6 and mass  12.00000

 Molecular mass:   199.95666 amu.
 Principal axes and moments of inertia in atomic units:
                           1         2         3
     Eigenvalues --  1094.351312354.006792693.29926
           X            0.92682  -0.35781  -0.11394
           Y            0.36856   0.92489   0.09353
           Z            0.07192  -0.12867   0.98908
 This molecule is an asymmetric top.
 Rotational symmetry number  1.
 Warning -- assumption of classical behavior for rotation
           may cause significant error
 Rotational temperatures (Kelvin)      0.07915     0.03679     0.03216
 Rotational constants (GHZ):           1.64914     0.76667     0.67009
    1 imaginary frequencies ignored.
 Zero-point vibrational energy     122959.5 (Joules/Mol)
                                   29.38802 (Kcal/Mol)
 Warning -- explicit consideration of  16 degrees of freedom as
           vibrations may cause significant error
 Vibrational temperatures:     76.73    97.18   154.77   228.44   270.85
          (Kelvin)            327.17   352.73   386.39   412.42   446.28
                              526.80   545.55   609.07   649.79   775.74
                              852.94   912.12   987.60  1074.61  1152.35
                             1311.34  1457.78  1623.26  1648.38  1725.86
                             1737.85  1785.90  1928.99  5518.37

 Zero-point correction=                           0.046833 (Hartree/Particle)
 Thermal correction to Energy=                    0.057742
 Thermal correction to Enthalpy=                  0.058687
 Thermal correction to Gibbs Free Energy=         0.009392
 Sum of electronic and zero-point Energies=          -1199.597696
 Sum of electronic and thermal Energies=             -1199.586786
 Sum of electronic and thermal Enthalpies=           -1199.585842
 Sum of electronic and thermal Free Energies=        -1199.635136

                     E (Thermal)             CV                S
                      KCal/Mol        Cal/Mol-Kelvin    Cal/Mol-Kelvin
 Total                   36.234             37.566            103.749
 Electronic               0.000              0.000              0.000
 Translational            0.889              2.981             41.783
 Rotational               0.889              2.981             30.318
 Vibrational             34.456             31.604             31.647
 Vibration     1          0.596              1.976              4.690
 Vibration     2          0.598              1.970              4.224
 Vibration     3          0.606              1.943              3.312
 Vibration     4          0.621              1.893              2.564
 Vibration     5          0.633              1.856              2.245
 Vibration     6          0.651              1.799              1.899
 Vibration     7          0.660              1.771              1.765
 Vibration     8          0.673              1.731              1.605
 Vibration     9          0.684              1.699              1.494
 Vibration    10          0.699              1.654              1.361
 Vibration    11          0.739              1.542              1.096
 Vibration    12          0.749              1.515              1.042
 Vibration    13          0.785              1.420              0.881
 Vibration    14          0.810              1.357              0.791
 Vibration    15          0.894              1.163              0.567
 Vibration    16          0.950              1.047              0.462

 Normal termination of Gaussian 16 at Fri May 23 04:44:22 2025.
