 Gaussian 16, Revision C.01,
 Gaussian 16:  ES64L-G16RevC.01  3-Jul-2019

 ----------------------------------------------------------------------
 #P wb97xd/6-311++G(d,p) Symm(None) scf(xqc) pop(None) freq opt(CalcFC,
  Tight)
 ----------------------------------------------------------------------

 ------------------------------
 Gaussian input prepared by ASE
 ------------------------------
 Symbolic Z-matrix:
 Charge =  0 Multiplicity = 1

 SCF Done:  E(RwB97XD) =  -1199.70285186     A.U. after   16 cycles
 SCF Done:  E(RwB97XD) =  -1199.70608134     A.U. after   15 cycles
 SCF Done:  E(RwB97XD) =  -1199.71496148     A.U. after   16 cycles
 SCF Done:  E(RwB97XD) =  -1199.73043467     A.U. after   15 cycles
 SCF Done:  E(RwB97XD) =  -1199.73232789     A.U. after   14 cycles
 SCF Done:  E(RwB97XD) =  -1199.73297002     A.U. after   12 cycles
 SCF Done:  E(RwB97XD) =  -1199.73359692     A.U. after   13 cycles
 SCF Done:  E(RwB97XD) =  -1199.73385611     A.U. after   13 cycles
 SCF Done:  E(RwB97XD) =  -1199.73404894     A.U. after   12 cycles
 SCF Done:  E(RwB97XD) =  -1199.73410986     A.U. after   11 cycles
 SCF Done:  E(RwB97XD) =  -1199.73413437     A.U. after    9 cycles
 SCF Done:  E(RwB97XD) =  -1199.73413445     A.U. after    8 cycles
 SCF Done:  E(RwB97XD) =  -1199.73413452     A.U. after    7 cycles
 SCF Done:  E(RwB97XD) =  -1199.73413460     A.U. after    8 cycles
 SCF Done:  E(RwB97XD) =  -1199.73413472     A.U. after    9 cycles
 SCF Done:  E(RwB97XD) =  -1199.73413484     A.U. after    9 cycles
 SCF Done:  E(RwB97XD) =  -1199.73413493     A.U. after    8 cycles
 SCF Done:  E(RwB97XD) =  -1199.73413497     A.U. after    7 cycles
 SCF Done:  E(RwB97XD) =  -1199.73413497     A.U. after    6 cycles
 Optimization completed.
    -- Stationary point found.
 Normal termination of Gaussian 16 at Fri May 23 05:25:32 2025.

 ----------------------------------------------------------------------
 #P Geom=AllCheck Guess=TCheck SCRF=Check GenChk RwB97XD/6-311++G(d,p)
 Freq
 ----------------------------------------------------------------------

 Structure from the checkpoint file:  "/tmp/Gau-276882.chk"
 ------------------------------
 Gaussian input prepared by ASE
 ------------------------------
 Charge =  0 Multiplicity = 1

                          Input orientation:
 ---------------------------------------------------------------------
 Center     Atomic      Atomic             Coordinates (Angstroms)
 Number     Number       Type             X           Y           Z
 ---------------------------------------------------------------------
      1          6           0       -0.094184    0.845236   -2.735831
      2          6           0        1.412052    0.513367   -2.574790
      3          9           0        1.534637   -0.795354   -2.294014
      4          9           0        2.043062    0.776224   -3.721462
      5         16           0        2.391111    1.458317   -1.216408
      6          8           0        1.073463    0.329411    0.624041
      7          8           0        2.544972    2.818252   -1.714527
      8          8           0        1.098314    1.548568   -0.103424
      9          9           0       -0.790294    0.318528   -1.719035
     10          9           0       -0.291150    2.151856   -2.763272
     11          9           0       -0.554823    0.312854   -3.863140
     12          1           0        0.249649   -0.063013    0.305331
 ---------------------------------------------------------------------

 SCF Done:  E(RwB97XD) =  -1199.73413497     A.U. after    1 cycles

 Isotropic polarizability for W=    0.000000       60.48 Bohr**3.
 End of Minotr F.D. properties file   721 does not exist.

                      1                      2                      3
                      A                      A                      A
 Frequencies --     46.2018                68.8348                99.7702
 Red. masses --     13.4969                15.6586                 7.7867
 Frc consts  --      0.0170                 0.0437                 0.0457
 IR Inten    --      0.7747                 1.0752                 4.3513

                      4                      5                      6
                      A                      A                      A
 Frequencies --    150.0336               185.1481               218.7548
 Red. masses --     16.9887                10.8155                11.5158
 Frc consts  --      0.2253                 0.2184                 0.3247
 IR Inten    --      1.9448                 5.4760                 5.5284

                      7                      8                      9
                      A                      A                      A
 Frequencies --    230.1291               254.8662               292.5823
 Red. masses --     14.7216                17.1584                18.0630
 Frc consts  --      0.4594                 0.6567                 0.9110
 IR Inten    --      1.4296                 3.9275                 5.6819

                     10                     11                     12
                      A                      A                      A
 Frequencies --    328.6700               360.9742               367.5351
 Red. masses --     18.8648                 2.8939                 4.3659
 Frc consts  --      1.2007                 0.2222                 0.3475
 IR Inten    --      3.9246                58.2856                28.5909

                     13                     14                     15
                      A                      A                      A
 Frequencies --    413.1601               433.6979               485.2544
 Red. masses --      5.7311                 3.2408                19.0078
 Frc consts  --      0.5764                 0.3592                 2.6371
 IR Inten    --     14.3649                70.5970                24.2366

                     16                     17                     18
                      A                      A                      A
 Frequencies --    542.6553               596.9255               637.6747
 Red. masses --     17.5761                17.9895                17.2362
 Frc consts  --      3.0494                 3.7767                 4.1294
 IR Inten    --      3.5118                 2.0186                12.2999

                     19                     20                     21
                      A                      A                      A
 Frequencies --    703.4847               759.2717               984.6371
 Red. masses --     16.8302                17.2479                13.5585
 Frc consts  --      4.9074                 5.8584                 7.7449
 IR Inten    --     63.3138                14.3964                58.7823

                     22                     23                     24
                      A                      A                      A
 Frequencies --    994.7611              1142.6932              1198.7575
 Red. masses --     14.6355                13.4837                13.4449
 Frc consts  --      8.5329                10.3733                11.3834
 IR Inten    --      3.5049               187.0809                43.9050

                     25                     26                     27
                      A                      A                      A
 Frequencies --   1207.2834              1237.2431              1261.1627
 Red. masses --     12.5039                15.5612                14.5634
 Frc consts  --     10.7377                14.0348                13.6475
 IR Inten    --    317.0336                56.8159               463.0848

                     28                     29                     30
                      A                      A                      A
 Frequencies --   1338.6754              1433.4172              3807.3105
 Red. masses --     12.7124                 1.1150                 1.0686
 Frc consts  --     13.4223                 1.3497                 9.1268
 IR Inten    --    154.3450                44.8063                72.7777

 - Thermochemistry -
 -------------------
 Temperature   298.150 Kelvin.  Pressure   1.00000 Atm.
 Atom     1 has atomic number  6 and mass  12.00000

 Molecular mass:   199.95666 amu.
 Principal axes and moments of inertia in atomic units:
                           1         2         3
     Eigenvalues --  1395.465502021.041732319.10792
           X            0.58585   0.68629  -0.43103
           Y            0.25488   0.34884   0.90186
           Z            0.76930  -0.63821   0.02945
 This molecule is an asymmetric top.
 Rotational symmetry number  1.
 Warning -- assumption of classical behavior for rotation
           may cause significant error
 Rotational temperatures (Kelvin)      0.06207     0.04286     0.03735
 Rotational constants (GHZ):           1.29329     0.89298     0.77820
 Zero-point vibrational energy     130282.7 (Joules/Mol)
                                   31.13831 (Kcal/Mol)
 Warning -- explicit consideration of  17 degrees of freedom as
           vibrations may cause significant error
 Vibrational temperatures:     66.47    99.04   143.55   215.86   266.39
          (Kelvin)            314.74   331.10   366.70   420.96   472.88
                              519.36   528.80   594.45   623.99   698.17
                              780.76   858.84   917.47  1012.16  1092.42
                             1416.67  1431.24  1644.08  1724.74  1737.01
                             1780.12  1814.53  1926.06  2062.37  5477.87

 Zero-point correction=                           0.049622 (Hartree/Particle)
 Thermal correction to Energy=                    0.060773
 Thermal correction to Enthalpy=                  0.061717
 Thermal correction to Gibbs Free Energy=         0.011861
 Sum of electronic and zero-point Energies=          -1199.684513
 Sum of electronic and thermal Energies=             -1199.673362
 Sum of electronic and thermal Enthalpies=           -1199.672418
 Sum of electronic and thermal Free Energies=        -1199.722274

                     E (Thermal)             CV                S
                      KCal/Mol        Cal/Mol-Kelvin    Cal/Mol-Kelvin
 Total                   38.135             38.195            104.930
 Electronic               0.000              0.000              0.000
 Translational            0.889              2.981             41.783
 Rotational               0.889              2.981             30.260
 Vibrational             36.358             32.234             32.887
 Vibration     1          0.595              1.979              4.974
 Vibration     2          0.598              1.969              4.186
 Vibration     3          0.604              1.949              3.459
 Vibration     4          0.618              1.903              2.672
 Vibration     5          0.631              1.860              2.276
 Vibration     6          0.647              1.813              1.969
 Vibration     7          0.652              1.795              1.878
 Vibration     8          0.665              1.755              1.697
 Vibration     9          0.688              1.688              1.459
 Vibration    10          0.712              1.618              1.267
 Vibration    11          0.735              1.553              1.118
 Vibration    12          0.740              1.539              1.090
 Vibration    13          0.777              1.442              0.916
 Vibration    14          0.794              1.397              0.847
 Vibration    15          0.841              1.283              0.696
 Vibration    16          0.898              1.156              0.560
 Vibration    17          0.955              1.038              0.455

                           ! Non-Optimized Parameters !
 Normal termination of Gaussian 16 at Fri May 23 05:26:53 2025.
