 Gaussian 16, Revision C.01,
 Gaussian 16:  ES64L-G16RevC.01  3-Jul-2019

 ----------------------------------------------------------------------
 #P wb97xd/6-311++G(d,p) Symm(None) scf(xqc) pop(None) freq opt(CalcFC,
  Tight)
 ----------------------------------------------------------------------

 ------------------------------
 Gaussian input prepared by ASE
 ------------------------------
 Symbolic Z-matrix:
 Charge =  0 Multiplicity = 1

 SCF Done:  E(RwB97XD) =  -1199.81788448     A.U. after   15 cycles
 SCF Done:  E(RwB97XD) =  -1199.82099613     A.U. after   12 cycles
 SCF Done:  E(RwB97XD) =  -1199.82132560     A.U. after   13 cycles
 SCF Done:  E(RwB97XD) =  -1199.82126668     A.U. after   12 cycles
 SCF Done:  E(RwB97XD) =  -1199.82138453     A.U. after   12 cycles
 SCF Done:  E(RwB97XD) =  -1199.82139318     A.U. after   11 cycles
 SCF Done:  E(RwB97XD) =  -1199.82139316     A.U. after    9 cycles
 SCF Done:  E(RwB97XD) =  -1199.82139331     A.U. after    9 cycles
 SCF Done:  E(RwB97XD) =  -1199.82139331     A.U. after    6 cycles
 SCF Done:  E(RwB97XD) =  -1199.82139331     A.U. after    5 cycles
 Optimization completed.
    -- Stationary point found.
 Normal termination of Gaussian 16 at Fri May 23 04:21:17 2025.

 ----------------------------------------------------------------------
 #P Geom=AllCheck Guess=TCheck SCRF=Check GenChk RwB97XD/6-311++G(d,p)
 Freq
 ----------------------------------------------------------------------

 Structure from the checkpoint file:  "/tmp/Gau-149224.chk"
 ------------------------------
 Gaussian input prepared by ASE
 ------------------------------
 Charge =  0 Multiplicity = 1

                          Input orientation:
 ---------------------------------------------------------------------
 Center     Atomic      Atomic             Coordinates (Angstroms)
 Number     Number       Type             X           Y           Z
 ---------------------------------------------------------------------
      1          6           0        2.002723    0.477588   -2.882726
      2          6           0        1.297403    0.036450   -0.054003
      3          9           0       -0.028768    0.179576   -0.179054
      4          9           0        1.509938   -0.769755    0.997005
      5         16           0        1.973268   -0.881273   -1.561229
      6          8           0        0.972924   -1.832405   -1.970656
      7          8           0        3.339827   -1.236532   -1.280621
      8          8           0        1.942778    1.201670    0.036803
      9          9           0        2.111752   -0.128976   -4.051140
     10          9           0        0.872563    1.167619   -2.842330
     11          9           0        3.027449    1.285670   -2.703170
     12          1           0        1.652842    1.692354    0.814935
 ---------------------------------------------------------------------

 SCF Done:  E(RwB97XD) =  -1199.82139331     A.U. after    1 cycles

 Isotropic polarizability for W=    0.000000       58.10 Bohr**3.
 End of Minotr F.D. properties file   721 does not exist.

                      1                      2                      3
                      A                      A                      A
 Frequencies --     46.1089                51.4117               118.9136
 Red. masses --     14.4848                16.7868                10.6163
 Frc consts  --      0.0181                 0.0261                 0.0884
 IR Inten    --      0.0981                 0.7777                 1.7083

                      4                      5                      6
                      A                      A                      A
 Frequencies --    191.3068               195.5194               209.1443
 Red. masses --      4.4804                 3.7852                 2.0129
 Frc consts  --      0.0966                 0.0853                 0.0519
 IR Inten    --     22.1151                16.2522                74.3367

                      7                      8                      9
                      A                      A                      A
 Frequencies --    235.4055               268.2700               287.1529
 Red. masses --     11.9106                14.5163                15.1221
 Frc consts  --      0.3889                 0.6155                 0.7347
 IR Inten    --      5.0184                 2.5982                 3.2766

                     10                     11                     12
                      A                      A                      A
 Frequencies --    301.6251               338.9087               402.2530
 Red. masses --     11.7044                12.2539                14.5507
 Frc consts  --      0.6274                 0.8293                 1.3872
 IR Inten    --      4.4584                 1.5455                19.0730

                     13                     14                     15
                      A                      A                      A
 Frequencies --    523.1830               534.1927               555.6591
 Red. masses --     17.7163                15.1425                16.6682
 Frc consts  --      2.8571                 2.5459                 3.0322
 IR Inten    --     43.5899                56.7780                 3.0585

                     16                     17                     18
                      A                      A                      A
 Frequencies --    575.5125               591.3426               620.4272
 Red. masses --     16.1409                17.4116                13.4450
 Frc consts  --      3.1498                 3.5873                 3.0492
 IR Inten    --      1.4269                29.4973               143.4654

                     19                     20                     21
                      A                      A                      A
 Frequencies --    752.2075               782.7485              1017.4689
 Red. masses --      6.1252                15.1450                 4.1096
 Frc consts  --      2.0419                 5.4672                 2.5066
 IR Inten    --     33.3634                 4.6722               152.3876

                     22                     23                     24
                      A                      A                      A
 Frequencies --   1117.0102              1158.5616              1224.1356
 Red. masses --     12.1278                12.8702                 8.2425
 Frc consts  --      8.9155                10.1783                 7.2772
 IR Inten    --    165.5134               259.6077                63.5953

                     25                     26                     27
                      A                      A                      A
 Frequencies --   1242.3722              1251.6669              1291.8578
 Red. masses --     12.9373                13.1953                 5.8099
 Frc consts  --     11.7651                12.1799                 5.7128
 IR Inten    --    286.2377               155.7234               445.4572

                     28                     29                     30
                      A                      A                      A
 Frequencies --   1372.4227              1410.4570              3843.9492
 Red. masses --      2.3504                16.7498                 1.0654
 Frc consts  --      2.6083                19.6327                 9.2749
 IR Inten    --     70.5209               306.5722               131.1400

 - Thermochemistry -
 -------------------
 Temperature   298.150 Kelvin.  Pressure   1.00000 Atm.
 Atom     1 has atomic number  6 and mass  12.00000

 Molecular mass:   199.95666 amu.
 Principal axes and moments of inertia in atomic units:
                           1         2         3
     Eigenvalues --  1199.866812147.744252345.49468
           X           -0.24647  -0.29997   0.92156
           Y           -0.17228   0.94931   0.26293
           Z            0.95372   0.09397   0.28565
 This molecule is an asymmetric top.
 Rotational symmetry number  1.
 Warning -- assumption of classical behavior for rotation
           may cause significant error
 Rotational temperatures (Kelvin)      0.07219     0.04033     0.03693
 Rotational constants (GHZ):           1.50412     0.84030     0.76945
 Zero-point vibrational energy     134646.8 (Joules/Mol)
                                   32.18137 (Kcal/Mol)
 Warning -- explicit consideration of  18 degrees of freedom as
           vibrations may cause significant error
 Vibrational temperatures:     66.34    73.97   171.09   275.25   281.31
          (Kelvin)            300.91   338.70   385.98   413.15   433.97
                              487.61   578.75   752.74   768.58   799.47
                              828.03   850.81   892.66  1082.26  1126.20
                             1463.91  1607.13  1666.91  1761.26  1787.50
                             1800.87  1858.70  1974.61  2029.33  5530.59

 Zero-point correction=                           0.051284 (Hartree/Particle)
 Thermal correction to Energy=                    0.062090
 Thermal correction to Enthalpy=                  0.063034
 Thermal correction to Gibbs Free Energy=         0.013761
 Sum of electronic and zero-point Energies=          -1199.770109
 Sum of electronic and thermal Energies=             -1199.759304
 Sum of electronic and thermal Enthalpies=           -1199.758360
 Sum of electronic and thermal Free Energies=        -1199.807632

                     E (Thermal)             CV                S
                      KCal/Mol        Cal/Mol-Kelvin    Cal/Mol-Kelvin
 Total                   38.962             37.131            103.703
 Electronic               0.000              0.000              0.000
 Translational            0.889              2.981             41.783
 Rotational               0.889              2.981             30.181
 Vibrational             37.184             31.170             31.739
 Vibration     1          0.595              1.979              4.978
 Vibration     2          0.596              1.977              4.762
 Vibration     3          0.609              1.934              3.118
 Vibration     4          0.634              1.852              2.215
 Vibration     5          0.636              1.846              2.175
 Vibration     6          0.642              1.827              2.051
 Vibration     7          0.655              1.787              1.837
 Vibration     8          0.673              1.731              1.607
 Vibration     9          0.684              1.698              1.491
 Vibration    10          0.694              1.671              1.408
 Vibration    11          0.719              1.598              1.217
 Vibration    12          0.768              1.465              0.954
 Vibration    13          0.878              1.199              0.603
 Vibration    14          0.889              1.174              0.578
 Vibration    15          0.911              1.127              0.533
 Vibration    16          0.932              1.084              0.494
 Vibration    17          0.949              1.050              0.465
 Vibration    18          0.980              0.989              0.416

 Optimization completed.
    -- Stationary point found.
 Normal termination of Gaussian 16 at Fri May 23 04:22:32 2025.
