 Gaussian 16, Revision C.01,
 Gaussian 16:  ES64L-G16RevC.01  3-Jul-2019

 ----------------------------------------------------------------------
 #P wb97xd/6-311++G(d,p) Symm(None) scf(xqc) pop(None) opt(NoFreeze,TS,
 CalcAll,NoEigentest,MaxCycle=999)
 ----------------------------------------------------------------------

 ------------------------------
 Gaussian input prepared by ASE
 ------------------------------
 Symbolic Z-matrix:
 Charge =  0 Multiplicity = 1

 SCF Done:  E(RwB97XD) =  -1199.56475827     A.U. after   19 cycles
 SCF Done:  E(RwB97XD) =  -1199.57976092     A.U. after   18 cycles
 SCF Done:  E(RwB97XD) =  -1199.58372438     A.U. after   18 cycles
 SCF Done:  E(RwB97XD) =  -1199.58380985     A.U. after   18 cycles
 SCF Done:  E(RwB97XD) =  -1199.58425634     A.U. after   16 cycles
 SCF Done:  E(RwB97XD) =  -1199.58430713     A.U. after   16 cycles
 SCF Done:  E(RwB97XD) =  -1199.58430951     A.U. after   14 cycles

 Isotropic polarizability for W=    0.000000       72.65 Bohr**3.
 End of Minotr F.D. properties file   721 does not exist.

 Optimization completed.
    -- Stationary point found.

                          Input orientation:
 ---------------------------------------------------------------------
 Center     Atomic      Atomic             Coordinates (Angstroms)
 Number     Number       Type             X           Y           Z
 ---------------------------------------------------------------------
      1          6           0        1.923645   -0.835487   -1.183536
      2          6           0        2.018966    0.035329    0.037402
      3          9           0       -0.555713    1.029017   -0.505097
      4          9           0        1.938955   -0.631586    1.186311
      5         16           0        1.760307    1.670908    0.208292
      6          8           0        0.306799    2.034177    0.585439
      7          8           0        2.583370    2.291128    1.191413
      8          8           0        1.994105    2.291313   -1.213752
      9          9           0        1.747434   -0.123634   -2.303247
     10          9           0        3.048521   -1.546792   -1.325016
     11          9           0        0.920598   -1.705884   -1.078177
     12          1           0        1.239762    2.124231   -1.802394
 ---------------------------------------------------------------------

 ******    1 imaginary frequencies (negative Signs) ******

                      1                      2                      3
                      A                      A                      A
 Frequencies --   -526.3755                41.5798                50.3345
 Red. masses --     17.0739                17.6349                16.4034
 Frc consts  --      2.7872                 0.0180                 0.0245
 IR Inten    --    540.1476                 0.0960                 0.6902

                      4                      5                      6
                      A                      A                      A
 Frequencies --     71.5473               137.3712               193.6429
 Red. masses --     12.5989                14.6853                13.1557
 Frc consts  --      0.0380                 0.1633                 0.2906
 IR Inten    --      2.6399                 1.3646                 6.0581

                      7                      8                      9
                      A                      A                      A
 Frequencies --    222.5242               240.0696               288.0482
 Red. masses --     15.7941                15.8397                 9.8382
 Frc consts  --      0.4608                 0.5379                 0.4809
 IR Inten    --     15.9225                 2.4115                 3.2044

                     10                     11                     12
                      A                      A                      A
 Frequencies --    313.4614               331.8439               389.3835
 Red. masses --     13.6387                15.6472                 2.0304
 Frc consts  --      0.7896                 1.0152                 0.1814
 IR Inten    --     11.8845                 0.8039                52.6320

                     13                     14                     15
                      A                      A                      A
 Frequencies --    432.4603               450.3590               468.2717
 Red. masses --     12.6038                 4.0904                 3.2236
 Frc consts  --      1.3888                 0.4888                 0.4165
 IR Inten    --      9.3555                33.3284                39.0719

                     16                     17                     18
                      A                      A                      A
 Frequencies --    509.2157               583.7191               599.0497
 Red. masses --     16.2124                15.9393                17.2232
 Frc consts  --      2.4769                 3.1998                 3.6416
 IR Inten    --     59.4773                12.4372                 7.1784

                     19                     20                     21
                      A                      A                      A
 Frequencies --    605.6183               756.4499               800.9884
 Red. masses --     15.6771                17.3227                17.9886
 Frc consts  --      3.3878                 5.8402                 6.7999
 IR Inten    --    162.7248                 7.2076                 3.6985

                     22                     23                     24
                      A                      A                      A
 Frequencies --    918.8935              1072.6498              1137.8609
 Red. masses --     17.9714                10.4729                 1.2346
 Frc consts  --      8.9405                 7.0996                 0.9418
 IR Inten    --    183.7102               169.9951               162.8783

                     25                     26                     27
                      A                      A                      A
 Frequencies --   1168.3768              1210.4063              1255.1678
 Red. masses --     11.2238                12.5007                13.1880
 Frc consts  --      9.0273                10.7906                12.2414
 IR Inten    --    273.8163               341.7942                38.9476

                     28                     29                     30
                      A                      A                      A
 Frequencies --   1344.1452              1366.6577              3759.0929
 Red. masses --     12.1464                12.6140                 1.0658
 Frc consts  --     12.9297                13.8811                 8.8736
 IR Inten    --    384.4241               177.5619               146.2352

 - Thermochemistry -
 -------------------
 Temperature   298.150 Kelvin.  Pressure   1.00000 Atm.
 Atom     1 has atomic number  6 and mass  12.00000

 Molecular mass:   199.95666 amu.
 Principal axes and moments of inertia in atomic units:
                           1         2         3
     Eigenvalues --  1238.130302308.070232453.97644
           X           -0.16107   0.80915  -0.56510
           Y            0.88396  -0.13638  -0.44723
           Z            0.43894   0.57156   0.69329
 This molecule is an asymmetric top.
 Rotational symmetry number  1.
 Warning -- assumption of classical behavior for rotation
           may cause significant error
 Rotational temperatures (Kelvin)      0.06996     0.03753     0.03530
 Rotational constants (GHZ):           1.45763     0.78193     0.73544
    1 imaginary frequencies ignored.
 Zero-point vibrational energy     123928.3 (Joules/Mol)
                                   29.61957 (Kcal/Mol)
 Warning -- explicit consideration of  18 degrees of freedom as
           vibrations may cause significant error
 Vibrational temperatures:     59.82    72.42   102.94   197.65   278.61
          (Kelvin)            320.16   345.41   414.44   451.00   477.45
                              560.24   622.21   647.97   673.74   732.65
                              839.84   861.90   871.35  1088.36  1152.44
                             1322.08  1543.30  1637.13  1681.03  1741.50
                             1805.91  1933.93  1966.32  5408.50

 Zero-point correction=                           0.047202 (Hartree/Particle)
 Thermal correction to Energy=                    0.058146
 Thermal correction to Enthalpy=                  0.059091
 Thermal correction to Gibbs Free Energy=         0.009046
 Sum of electronic and zero-point Energies=          -1199.537108
 Sum of electronic and thermal Energies=             -1199.526163
 Sum of electronic and thermal Enthalpies=           -1199.525219
 Sum of electronic and thermal Free Energies=        -1199.575263

                     E (Thermal)             CV                S
                      KCal/Mol        Cal/Mol-Kelvin    Cal/Mol-Kelvin
 Total                   36.487             37.361            105.327
 Electronic               0.000              0.000              0.000
 Translational            0.889              2.981             41.783
 Rotational               0.889              2.981             30.329
 Vibrational             34.710             31.400             33.215
 Vibration     1          0.594              1.981              5.182
 Vibration     2          0.595              1.977              4.804
 Vibration     3          0.598              1.968              4.110
 Vibration     4          0.614              1.916              2.840
 Vibration     5          0.635              1.849              2.193
 Vibration     6          0.648              1.807              1.938
 Vibration     7          0.657              1.779              1.802
 Vibration     8          0.685              1.696              1.485
 Vibration     9          0.701              1.648              1.344
 Vibration    10          0.714              1.612              1.251
 Vibration    11          0.757              1.493              1.003
 Vibration    12          0.793              1.400              0.851
 Vibration    13          0.809              1.360              0.795
 Vibration    14          0.825              1.320              0.742
 Vibration    15          0.864              1.230              0.635
 Vibration    16          0.941              1.067              0.479
 Vibration    17          0.957              1.034              0.451
 Vibration    18          0.964              1.020              0.440

 Normal termination of Gaussian 16 at Fri May 23 05:33:34 2025.
