 Gaussian 16, Revision C.01,
 Gaussian 16:  ES64L-G16RevC.01  3-Jul-2019

 ----------------------------------------------------------------------
 #P wb97xd/6-311++G(d,p) Symm(None) scf(xqc) pop(None) opt(NoFreeze,TS,
 CalcAll,NoEigentest,MaxCycle=999)
 ----------------------------------------------------------------------

 ------------------------------
 Gaussian input prepared by ASE
 ------------------------------
 Symbolic Z-matrix:
 Charge =  0 Multiplicity = 1

 SCF Done:  E(RwB97XD) =  -1199.63398480     A.U. after   21 cycles
 SCF Done:  E(RwB97XD) =  -1199.64021738     A.U. after   18 cycles
 SCF Done:  E(RwB97XD) =  -1199.64268091     A.U. after   19 cycles
 SCF Done:  E(RwB97XD) =  -1199.64332918     A.U. after   17 cycles
 SCF Done:  E(RwB97XD) =  -1199.64337429     A.U. after   18 cycles
 SCF Done:  E(RwB97XD) =  -1199.64338073     A.U. after   14 cycles
 SCF Done:  E(RwB97XD) =  -1199.64338077     A.U. after   12 cycles

 Isotropic polarizability for W=    0.000000       67.97 Bohr**3.
 End of Minotr F.D. properties file   721 does not exist.

 Optimization completed.
    -- Stationary point found.

                          Input orientation:
 ---------------------------------------------------------------------
 Center     Atomic      Atomic             Coordinates (Angstroms)
 Number     Number       Type             X           Y           Z
 ---------------------------------------------------------------------
      1          6           0       -0.758501   -1.265030   -0.004496
      2          6           0       -0.062574    0.108390   -0.047193
      3          9           0       -0.425209    0.742601   -1.171991
      4          9           0       -0.474187    0.861253    1.000761
      5         16           0        2.015518    0.120738   -0.176877
      6          8           0        1.957800   -0.872055    1.008478
      7          8           0        3.501239   -0.330111    0.184262
      8          8           0        2.067094    1.632172    0.400801
      9          9           0       -0.209055   -2.059631   -0.925849
     10          9           0       -0.632909   -1.828813    1.187739
     11          9           0       -2.057335   -1.140866   -0.277514
     12          1           0        1.306452    1.846321    0.958499
 ---------------------------------------------------------------------

 ******    1 imaginary frequencies (negative Signs) ******

                      1                      2                      3
                      A                      A                      A
 Frequencies --   -807.5719                55.0735                60.2686
 Red. masses --     18.3299                14.7166                17.3861
 Frc consts  --      7.0432                 0.0263                 0.0372
 IR Inten    --    283.5546                 1.3090                 0.3457

                      4                      5                      6
                      A                      A                      A
 Frequencies --    115.8077               170.6195               198.0355
 Red. masses --     16.4494                17.7293                 1.7997
 Frc consts  --      0.1300                 0.3041                 0.0416
 IR Inten    --      1.0950                 3.2328                52.1097

                      7                      8                      9
                      A                      A                      A
 Frequencies --    210.7690               234.6632               251.7669
 Red. masses --      5.8196                14.5637                 5.5109
 Frc consts  --      0.1523                 0.4725                 0.2058
 IR Inten    --     28.5415                 5.5171                13.6670

                     10                     11                     12
                      A                      A                      A
 Frequencies --    283.0706               303.1979               369.4785
 Red. masses --     13.0113                15.6201                11.1193
 Frc consts  --      0.6143                 0.8460                 0.8943
 IR Inten    --      6.8315                 5.7932                 6.0922

                     13                     14                     15
                      A                      A                      A
 Frequencies --    381.8682               435.7395               457.6741
 Red. masses --      7.4581                 9.0144                 9.3096
 Frc consts  --      0.6408                 1.0084                 1.1489
 IR Inten    --     20.1782                 1.3237                 4.2455

                     16                     17                     18
                      A                      A                      A
 Frequencies --    538.1168               592.0289               628.4539
 Red. masses --     17.6388                17.8712                16.6465
 Frc consts  --      3.0093                 3.6905                 3.8737
 IR Inten    --      4.2516                 2.1844                 9.7377

                     19                     20                     21
                      A                      A                      A
 Frequencies --    733.9429               745.1119               804.8723
 Red. masses --     16.4171                16.4689                17.3072
 Frc consts  --      5.2104                 5.3871                 6.6059
 IR Inten    --     76.6306                35.6494               146.3632

                     22                     23                     24
                      A                      A                      A
 Frequencies --    914.1937              1021.0943              1104.7519
 Red. masses --     13.7573                16.6338                 4.3103
 Frc consts  --      6.7743                10.2182                 3.0995
 IR Inten    --    124.8591                64.6179               275.7278

                     25                     26                     27
                      A                      A                      A
 Frequencies --   1146.2093              1181.6339              1210.7887
 Red. masses --      2.9238                 2.1927                11.4796
 Frc consts  --      2.2632                 1.8038                 9.9155
 IR Inten    --     87.2210                86.0558               223.7353

                     28                     29                     30
                      A                      A                      A
 Frequencies --   1243.4835              1336.0220              3793.4971
 Red. masses --     13.0726                12.4716                 1.0666
 Frc consts  --     11.9094                13.1160                 9.0435
 IR Inten    --    308.5817               254.1066               115.4969

 - Thermochemistry -
 -------------------
 Temperature   298.150 Kelvin.  Pressure   1.00000 Atm.
 Atom     1 has atomic number  6 and mass  12.00000

 Molecular mass:   199.95666 amu.
 Principal axes and moments of inertia in atomic units:
                           1         2         3
     Eigenvalues --  1095.455522378.813722720.98845
           X            0.92374  -0.36473  -0.11698
           Y            0.37492   0.92350   0.08118
           Z            0.07842  -0.11885   0.98981
 This molecule is an asymmetric top.
 Rotational symmetry number  1.
 Warning -- assumption of classical behavior for rotation
           may cause significant error
 Rotational temperatures (Kelvin)      0.07907     0.03641     0.03183
 Rotational constants (GHZ):           1.64748     0.75867     0.66327
    1 imaginary frequencies ignored.
 Zero-point vibrational energy     122750.2 (Joules/Mol)
                                   29.33801 (Kcal/Mol)
 Warning -- explicit consideration of  16 degrees of freedom as
           vibrations may cause significant error
 Vibrational temperatures:     79.24    86.71   166.62   245.48   284.93
          (Kelvin)            303.25   337.63   362.24   407.28   436.23
                              531.60   549.42   626.93   658.49   774.23
                              851.80   904.21  1055.98  1072.05  1158.03
                             1315.32  1469.13  1589.49  1649.14  1700.11
                             1742.05  1789.10  1922.24  5458.00

 Zero-point correction=                           0.046753 (Hartree/Particle)
 Thermal correction to Energy=                    0.057663
 Thermal correction to Enthalpy=                  0.058608
 Thermal correction to Gibbs Free Energy=         0.009277
 Sum of electronic and zero-point Energies=          -1199.596628
 Sum of electronic and thermal Energies=             -1199.585717
 Sum of electronic and thermal Enthalpies=           -1199.584773
 Sum of electronic and thermal Free Energies=        -1199.634103

                     E (Thermal)             CV                S
                      KCal/Mol        Cal/Mol-Kelvin    Cal/Mol-Kelvin
 Total                   36.184             37.512            103.824
 Electronic               0.000              0.000              0.000
 Translational            0.889              2.981             41.783
 Rotational               0.889              2.981             30.340
 Vibrational             34.407             31.550             31.700
 Vibration     1          0.596              1.976              4.626
 Vibration     2          0.597              1.973              4.448
 Vibration     3          0.608              1.936              3.169
 Vibration     4          0.626              1.879              2.429
 Vibration     5          0.637              1.843              2.151
 Vibration     6          0.643              1.824              2.037
 Vibration     7          0.654              1.788              1.843
 Vibration     8          0.664              1.760              1.718
 Vibration     9          0.682              1.705              1.515
 Vibration    10          0.695              1.668              1.399
 Vibration    11          0.742              1.535              1.082
 Vibration    12          0.751              1.509              1.032
 Vibration    13          0.796              1.392              0.840
 Vibration    14          0.816              1.344              0.773
 Vibration    15          0.893              1.166              0.569
 Vibration    16          0.950              1.049              0.464

 Normal termination of Gaussian 16 at Fri May 23 04:47:07 2025.
