 Gaussian 16, Revision C.01,
 Gaussian 16:  ES64L-G16RevC.01  3-Jul-2019

 ----------------------------------------------------------------------
 #P wb97xd/6-311++G(d,p) Symm(None) scf(xqc) pop(None) freq opt(CalcFC,
  Tight)
 ----------------------------------------------------------------------

 ------------------------------
 Gaussian input prepared by ASE
 ------------------------------
 Symbolic Z-matrix:
 Charge =  0 Multiplicity = 1

 SCF Done:  E(RwB97XD) =  -1199.61057589     A.U. after   16 cycles
 SCF Done:  E(RwB97XD) =  -1199.61057608     A.U. after    9 cycles
 SCF Done:  E(RwB97XD) =  -1199.61057608     A.U. after    5 cycles
 Optimization completed.
    -- Stationary point found.
 Normal termination of Gaussian 16 at Fri May 23 05:17:26 2025.

 ----------------------------------------------------------------------
 #P Geom=AllCheck Guess=TCheck SCRF=Check GenChk RwB97XD/6-311++G(d,p)
 Freq
 ----------------------------------------------------------------------

 Structure from the checkpoint file:  "/tmp/Gau-263051.chk"
 ------------------------------
 Gaussian input prepared by ASE
 ------------------------------
 Charge =  0 Multiplicity = 1

                          Input orientation:
 ---------------------------------------------------------------------
 Center     Atomic      Atomic             Coordinates (Angstroms)
 Number     Number       Type             X           Y           Z
 ---------------------------------------------------------------------
      1          6           0        2.668474    0.077250   -2.624707
      2          6           0        2.649040   -0.510840   -1.243112
      3          9           0       -0.414712    0.542719   -1.231436
      4          9           0        2.867034   -1.841374   -1.242479
      5         16           0        1.709884   -0.000185    0.000162
      6          8           0       -0.000008   -0.000169    0.000545
      7          8           0        1.910826   -0.679860    1.242508
      8          8           0        1.816480    1.576590    0.000352
      9          9           0        2.561607    1.415485   -2.595398
     10          9           0        3.830420   -0.231389   -3.206846
     11          9           0        1.696566   -0.387080   -3.418967
     12          1           0        2.723404    1.856272   -0.184839
 ---------------------------------------------------------------------

 SCF Done:  E(RwB97XD) =  -1199.61057608     A.U. after    1 cycles

 Isotropic polarizability for W=    0.000000       62.44 Bohr**3.
 End of Minotr F.D. properties file   721 does not exist.

                      1                      2                      3
                      A                      A                      A
 Frequencies --     39.0263                71.0288                92.2984
 Red. masses --     16.4669                17.3227                16.7936
 Frc consts  --      0.0148                 0.0515                 0.0843
 IR Inten    --      0.3623                 0.3005                 1.3469

                      4                      5                      6
                      A                      A                      A
 Frequencies --    176.1126               192.5289               202.3936
 Red. masses --     10.8795                13.3833                15.4467
 Frc consts  --      0.1988                 0.2923                 0.3728
 IR Inten    --      1.3310                10.9216                 2.7513

                      7                      8                      9
                      A                      A                      A
 Frequencies --    244.1555               307.0394               324.2073
 Red. masses --     17.1722                13.6104                17.5200
 Frc consts  --      0.6031                 0.7560                 1.0850
 IR Inten    --      3.2481                 1.2222                 4.5273

                     10                     11                     12
                      A                      A                      A
 Frequencies --    332.7914               379.8365               405.4405
 Red. masses --     10.2149                 2.4224                 1.8776
 Frc consts  --      0.6665                 0.2059                 0.1818
 IR Inten    --      1.3374                43.3380                94.5889

                     13                     14                     15
                      A                      A                      A
 Frequencies --    452.6171               463.7493               474.8761
 Red. masses --      8.1647                14.5468                17.3494
 Frc consts  --      0.9855                 1.8433                 2.3051
 IR Inten    --     20.0652                 1.1676                21.2503

                     16                     17                     18
                      A                      A                      A
 Frequencies --    555.1575               595.7502               603.7677
 Red. masses --     16.2363                16.1238                16.8011
 Frc consts  --      2.9483                 3.3717                 3.6085
 IR Inten    --     18.9267                 5.7602                10.5043

                     19                     20                     21
                      A                      A                      A
 Frequencies --    676.5391               765.1154               881.0880
 Red. masses --     14.1499                16.8911                17.5970
 Frc consts  --      3.8158                 5.8259                 8.0487
 IR Inten    --    232.8469                39.6129               161.0395

                     22                     23                     24
                      A                      A                      A
 Frequencies --    969.7756              1071.1428              1144.6943
 Red. masses --     16.9730                 5.6139                 1.3340
 Frc consts  --      9.4048                 3.7950                 1.0299
 IR Inten    --     14.5872                83.7718               185.0020

                     25                     26                     27
                      A                      A                      A
 Frequencies --   1174.3144              1193.5083              1257.9073
 Red. masses --     12.6493                12.8420                13.7542
 Frc consts  --     10.2775                10.7779                12.8228
 IR Inten    --    293.1662               296.5422                13.1578

                     28                     29                     30
                      A                      A                      A
 Frequencies --   1332.3137              1363.1569              3823.0181
 Red. masses --     12.3089                17.0643                 1.0660
 Frc consts  --     12.8731                18.6823                 9.1797
 IR Inten    --    448.0210               189.6592               160.9720

 - Thermochemistry -
 -------------------
 Temperature   298.150 Kelvin.  Pressure   1.00000 Atm.
 Atom     1 has atomic number  6 and mass  12.00000

 Molecular mass:   199.95666 amu.
 Principal axes and moments of inertia in atomic units:
                           1         2         3
     Eigenvalues --  1260.964212260.390392609.59642
           X           -0.52406   0.65212   0.54781
           Y            0.06287  -0.61183   0.78849
           Z            0.84936   0.44766   0.27964
 This molecule is an asymmetric top.
 Rotational symmetry number  1.
 Warning -- assumption of classical behavior for rotation
           may cause significant error
 Rotational temperatures (Kelvin)      0.06869     0.03832     0.03319
 Rotational constants (GHZ):           1.43124     0.79842     0.69158
 Zero-point vibrational energy     128989.4 (Joules/Mol)
                                   30.82922 (Kcal/Mol)
 Warning -- explicit consideration of  18 degrees of freedom as
           vibrations may cause significant error
 Vibrational temperatures:     56.15   102.19   132.80   253.39   277.01
          (Kelvin)            291.20   351.29   441.76   466.46   478.81
                              546.50   583.34   651.22   667.23   683.24
                              798.75   857.15   868.69   973.39  1100.83
                             1267.69  1395.29  1541.14  1646.96  1689.58
                             1717.19  1809.85  1916.90  1961.28  5500.47

 Zero-point correction=                           0.049129 (Hartree/Particle)
 Thermal correction to Energy=                    0.060092
 Thermal correction to Enthalpy=                  0.061036
 Thermal correction to Gibbs Free Energy=         0.011440
 Sum of electronic and zero-point Energies=          -1199.561447
 Sum of electronic and thermal Energies=             -1199.550484
 Sum of electronic and thermal Enthalpies=           -1199.549540
 Sum of electronic and thermal Free Energies=        -1199.599136

                     E (Thermal)             CV                S
                      KCal/Mol        Cal/Mol-Kelvin    Cal/Mol-Kelvin
 Total                   37.708             38.176            104.384
 Electronic               0.000              0.000              0.000
 Translational            0.889              2.981             41.783
 Rotational               0.889              2.981             30.387
 Vibrational             35.931             32.215             32.214
 Vibration     1          0.594              1.981              5.308
 Vibration     2          0.598              1.968              4.125
 Vibration     3          0.602              1.955              3.611
 Vibration     4          0.628              1.872              2.369
 Vibration     5          0.635              1.850              2.203
 Vibration     6          0.639              1.836              2.111
 Vibration     7          0.659              1.772              1.772
 Vibration     8          0.697              1.660              1.378
 Vibration     9          0.709              1.627              1.289
 Vibration    10          0.715              1.610              1.246
 Vibration    11          0.750              1.513              1.040
 Vibration    12          0.770              1.458              0.943
 Vibration    13          0.811              1.355              0.788
 Vibration    14          0.821              1.330              0.755
 Vibration    15          0.832              1.306              0.724
 Vibration    16          0.911              1.128              0.534
 Vibration    17          0.954              1.041              0.457
 Vibration    18          0.962              1.024              0.443

 Optimization completed.
    -- Stationary point found.
 Normal termination of Gaussian 16 at Fri May 23 05:18:50 2025.
