 Gaussian 16, Revision C.01,
 Gaussian 16:  ES64L-G16RevC.01  3-Jul-2019

 ----------------------------------------------------------------------
 #P wb97xd/6-311++G(d,p) Symm(None) scf(xqc) pop(None) freq opt(CalcFC,
  Tight)
 ----------------------------------------------------------------------

 ------------------------------
 Gaussian input prepared by ASE
 ------------------------------
 Symbolic Z-matrix:
 Charge =  0 Multiplicity = 1

 SCF Done:  E(RwB97XD) =  -1199.82905550     A.U. after   14 cycles
 SCF Done:  E(RwB97XD) =  -1199.82905576     A.U. after   10 cycles
 SCF Done:  E(RwB97XD) =  -1199.82905576     A.U. after    7 cycles
 Optimization completed on the basis of negligible forces.
    -- Stationary point found.
 Normal termination of Gaussian 16 at Fri May 23 04:29:39 2025.

 ----------------------------------------------------------------------
 #P Geom=AllCheck Guess=TCheck SCRF=Check GenChk RwB97XD/6-311++G(d,p)
 Freq
 ----------------------------------------------------------------------

 Structure from the checkpoint file:  "/tmp/Gau-280618.chk"
 ------------------------------
 Gaussian input prepared by ASE
 ------------------------------
 Charge =  0 Multiplicity = 1

                          Input orientation:
 ---------------------------------------------------------------------
 Center     Atomic      Atomic             Coordinates (Angstroms)
 Number     Number       Type             X           Y           Z
 ---------------------------------------------------------------------
      1          6           0        0.000284   -0.001770   -0.001350
      2          6           0        1.558236    0.000318    0.000374
      3          9           0        1.862591   -2.301400    1.179064
      4          9           0        1.955532   -0.724938   -1.074432
      5         16           0        2.327298   -0.803651    1.507934
      6          8           0        1.633327   -0.404630    2.688085
      7          8           0        3.743376   -0.766353    1.359771
      8          8           0        2.072261    1.245496    0.001334
      9          9           0       -0.499327   -1.224606   -0.012400
     10          9           0       -0.483417    0.665422    1.034213
     11          9           0       -0.388252    0.633044   -1.121169
     12          1           0        1.650654    1.789881   -0.673357
 ---------------------------------------------------------------------

 SCF Done:  E(RwB97XD) =  -1199.82905576     A.U. after    1 cycles

 Isotropic polarizability for W=    0.000000       55.81 Bohr**3.
 End of Minotr F.D. properties file   721 does not exist.

                      1                      2                      3
                      A                      A                      A
 Frequencies --     20.4488                72.3489               139.3293
 Red. masses --     17.4622                16.0029                16.8863
 Frc consts  --      0.0043                 0.0494                 0.1931
 IR Inten    --      0.2616                 0.2864                 1.1628

                      4                      5                      6
                      A                      A                      A
 Frequencies --    196.3579               227.4041               239.0562
 Red. masses --     12.4093                15.4963                12.0129
 Frc consts  --      0.2819                 0.4721                 0.4045
 IR Inten    --      0.5441                 2.7662                 1.8766

                      7                      8                      9
                      A                      A                      A
 Frequencies --    280.2460               298.8311               317.8764
 Red. masses --      9.9790                 2.6575                 9.9267
 Frc consts  --      0.4618                 0.1398                 0.5910
 IR Inten    --     10.2162                48.2899                 3.7612

                     10                     11                     12
                      A                      A                      A
 Frequencies --    327.6040               381.5255               437.2679
 Red. masses --      1.9542                 9.2693                13.4902
 Frc consts  --      0.1236                 0.7950                 1.5197
 IR Inten    --     57.4972                 7.8246                23.9683

                     13                     14                     15
                      A                      A                      A
 Frequencies --    451.1116               496.5422               536.3206
 Red. masses --     17.0608                17.2290                14.3778
 Frc consts  --      2.0456                 2.5028                 2.4366
 IR Inten    --     24.0792                 4.8098                35.0781

                     16                     17                     18
                      A                      A                      A
 Frequencies --    598.7873               607.1513               662.9796
 Red. masses --     18.1245                16.3114                13.3830
 Frc consts  --      3.8288                 3.5427                 3.4658
 IR Inten    --     21.4201                98.1145                25.9006

                     19                     20                     21
                      A                      A                      A
 Frequencies --    747.0568               780.9210               932.1409
 Red. masses --     12.6643                18.8661                 4.5219
 Frc consts  --      4.1643                 6.7787                 2.3149
 IR Inten    --    125.0859                87.7211                55.9867

                     22                     23                     24
                      A                      A                      A
 Frequencies --   1103.0594              1201.2875              1214.0735
 Red. masses --     10.4993                12.7018                 5.5289
 Frc consts  --      7.5268                10.7996                 4.8015
 IR Inten    --    142.9718               169.5660               308.7660

                     25                     26                     27
                      A                      A                      A
 Frequencies --   1227.1032              1273.2501              1344.3487
 Red. masses --     14.0290                12.7729                 9.5218
 Frc consts  --     12.4463                12.2002                10.1390
 IR Inten    --    146.9980               373.5387                61.4274

                     28                     29                     30
                      A                      A                      A
 Frequencies --   1355.2142              1457.4136              3847.2766
 Red. masses --      1.8383                20.1616                 1.0660
 Frc consts  --      1.9892                25.2314                 9.2965
 IR Inten    --      9.7365               284.8465               134.8046

 - Thermochemistry -
 -------------------
 Temperature   298.150 Kelvin.  Pressure   1.00000 Atm.
 Atom     1 has atomic number  6 and mass  12.00000

 Molecular mass:   199.95666 amu.
 Principal axes and moments of inertia in atomic units:
                           1         2         3
     Eigenvalues --  1142.880202167.423642292.39653
           X            0.77993  -0.62516   0.02989
           Y           -0.33960  -0.38260   0.85924
           Z            0.52573   0.68029   0.51070
 This molecule is an asymmetric top.
 Rotational symmetry number  1.
 Warning -- assumption of classical behavior for rotation
           may cause significant error
 Rotational temperatures (Kelvin)      0.07579     0.03996     0.03778
 Rotational constants (GHZ):           1.57912     0.83267     0.78727
 Zero-point vibrational energy     136220.8 (Joules/Mol)
                                   32.55755 (Kcal/Mol)
 Warning -- explicit consideration of  17 degrees of freedom as
           vibrations may cause significant error
 Vibrational temperatures:     29.42   104.09   200.46   282.52   327.18
          (Kelvin)            343.95   403.21   429.95   457.35   471.35
                              548.93   629.13   649.05   714.41   771.65
                              861.52   873.56   953.88  1074.85  1123.57
                             1341.14  1587.06  1728.38  1746.78  1765.53
                             1831.92  1934.22  1949.85  2096.89  5535.37

 Zero-point correction=                           0.051884 (Hartree/Particle)
 Thermal correction to Energy=                    0.062377
 Thermal correction to Enthalpy=                  0.063321
 Thermal correction to Gibbs Free Energy=         0.014463
 Sum of electronic and zero-point Energies=          -1199.777172
 Sum of electronic and thermal Energies=             -1199.766679
 Sum of electronic and thermal Enthalpies=           -1199.765735
 Sum of electronic and thermal Free Energies=        -1199.814593

                     E (Thermal)             CV                S
                      KCal/Mol        Cal/Mol-Kelvin    Cal/Mol-Kelvin
 Total                   39.142             36.783            102.831
 Electronic               0.000              0.000              0.000
 Translational            0.889              2.981             41.783
 Rotational               0.889              2.981             30.119
 Vibrational             37.365             30.821             30.928
 Vibration     1          0.593              1.986              6.590
 Vibration     2          0.598              1.967              4.088
 Vibration     3          0.615              1.914              2.813
 Vibration     4          0.636              1.845              2.167
 Vibration     5          0.651              1.799              1.899
 Vibration     6          0.657              1.781              1.810
 Vibration     7          0.680              1.710              1.532
 Vibration     8          0.692              1.676              1.423
 Vibration     9          0.704              1.639              1.321
 Vibration    10          0.711              1.620              1.272
 Vibration    11          0.751              1.510              1.033
 Vibration    12          0.798              1.389              0.835
 Vibration    13          0.810              1.358              0.792
 Vibration    14          0.852              1.258              0.667
 Vibration    15          0.891              1.170              0.573
 Vibration    16          0.957              1.034              0.452
 Vibration    17          0.966              1.017              0.438

 Optimization completed on the basis of negligible forces.
    -- Stationary point found.
 Normal termination of Gaussian 16 at Fri May 23 04:31:06 2025.
