 Gaussian 16, Revision C.01,
 Gaussian 16:  ES64L-G16RevC.01  3-Jul-2019

 ----------------------------------------------------------------------
 #P wb97xd/6-311++G(d,p) Symm(None) scf(xqc) pop(None) opt(NoFreeze,TS,
 CalcAll,NoEigentest,MaxCycle=999)
 ----------------------------------------------------------------------

 ------------------------------
 Gaussian input prepared by ASE
 ------------------------------
 Symbolic Z-matrix:
 Charge =  0 Multiplicity = 1

 SCF Done:  E(RwB97XD) =  -1199.56410632     A.U. after   20 cycles
 SCF Done:  E(RwB97XD) =  -1199.58002494     A.U. after   18 cycles
 SCF Done:  E(RwB97XD) =  -1199.58390451     A.U. after   17 cycles
 SCF Done:  E(RwB97XD) =  -1199.58421523     A.U. after   16 cycles
 SCF Done:  E(RwB97XD) =  -1199.58430172     A.U. after   15 cycles
 SCF Done:  E(RwB97XD) =  -1199.58430937     A.U. after   14 cycles
 SCF Done:  E(RwB97XD) =  -1199.58430944     A.U. after   12 cycles

 Isotropic polarizability for W=    0.000000       72.65 Bohr**3.
 End of Minotr F.D. properties file   721 does not exist.

 Optimization completed.
    -- Stationary point found.

                          Input orientation:
 ---------------------------------------------------------------------
 Center     Atomic      Atomic             Coordinates (Angstroms)
 Number     Number       Type             X           Y           Z
 ---------------------------------------------------------------------
      1          6           0        1.921215   -0.836505   -1.182831
      2          6           0        2.017817    0.034769    0.037664
      3          9           0       -0.554927    1.033313   -0.505194
      4          9           0        1.936598   -0.631372    1.186944
      5         16           0        1.762425    1.670932    0.207667
      6          8           0        0.309665    2.037082    0.584940
      7          8           0        2.586822    2.290253    1.190238
      8          8           0        1.997036    2.290068   -1.214793
      9          9           0        1.746285   -0.124943   -2.302922
     10          9           0        3.044908   -1.549770   -1.323859
     11          9           0        0.916696   -1.705162   -1.077092
     12          1           0        1.242210    2.124054   -1.803123
 ---------------------------------------------------------------------

 ******    1 imaginary frequencies (negative Signs) ******

                      1                      2                      3
                      A                      A                      A
 Frequencies --   -526.4424                41.5802                50.3203
 Red. masses --     17.0895                17.6573                16.4052
 Frc consts  --      2.7905                 0.0180                 0.0245
 IR Inten    --    540.5116                 0.0952                 0.6875

                      4                      5                      6
                      A                      A                      A
 Frequencies --     71.6496               137.5564               193.9057
 Red. masses --     12.6120                14.7743                13.2265
 Frc consts  --      0.0381                 0.1647                 0.2930
 IR Inten    --      2.6464                 1.3641                 5.9594

                      7                      8                      9
                      A                      A                      A
 Frequencies --    222.5968               240.1009               288.1042
 Red. masses --     15.8356                15.8304                 9.9381
 Frc consts  --      0.4623                 0.5377                 0.4860
 IR Inten    --     15.8205                 2.4105                 3.1313

                     10                     11                     12
                      A                      A                      A
 Frequencies --    313.5217               331.9185               390.7012
 Red. masses --     13.7945                15.6971                 2.0897
 Frc consts  --      0.7989                 1.0189                 0.1879
 IR Inten    --     11.6585                 0.7977                50.6873

                     13                     14                     15
                      A                      A                      A
 Frequencies --    432.5290               450.9288               469.1852
 Red. masses --     12.7459                 4.2553                 2.9661
 Frc consts  --      1.4049                 0.5098                 0.3847
 IR Inten    --      9.2950                31.2894                42.3903

                     16                     17                     18
                      A                      A                      A
 Frequencies --    509.2270               583.7080               599.0425
 Red. masses --     16.1360                15.9304                17.2262
 Frc consts  --      2.4653                 3.1979                 3.6421
 IR Inten    --     59.9443                12.4113                 7.3079

                     19                     20                     21
                      A                      A                      A
 Frequencies --    605.6338               756.4566               800.9682
 Red. masses --     15.6190                17.3234                17.9867
 Frc consts  --      3.3754                 5.8405                 6.7988
 IR Inten    --    163.0231                 7.2110                 3.7131

                     22                     23                     24
                      A                      A                      A
 Frequencies --    918.9446              1072.6919              1137.9254
 Red. masses --     17.9652                10.4783                 1.2347
 Frc consts  --      8.9384                 7.1038                 0.9419
 IR Inten    --    183.7008               170.1564               163.0296

                     25                     26                     27
                      A                      A                      A
 Frequencies --   1168.3639              1210.4051              1255.1738
 Red. masses --     11.2146                12.4984                13.1882
 Frc consts  --      9.0196                10.7886                12.2418
 IR Inten    --    273.7920               341.7408                38.8876

                     28                     29                     30
                      A                      A                      A
 Frequencies --   1344.1899              1366.6168              3759.1428
 Red. masses --     12.1443                12.6104                 1.0658
 Frc consts  --     12.9284                13.8763                 8.8738
 IR Inten    --    384.3553               177.6889               146.1907

 - Thermochemistry -
 -------------------
 Temperature   298.150 Kelvin.  Pressure   1.00000 Atm.
 Atom     1 has atomic number  6 and mass  12.00000

 Molecular mass:   199.95666 amu.
 Principal axes and moments of inertia in atomic units:
                           1         2         3
     Eigenvalues --  1238.143882308.177072454.03578
           X           -0.15953   0.80894  -0.56584
           Y            0.88448  -0.13745  -0.44588
           Z            0.43846   0.57160   0.69356
 This molecule is an asymmetric top.
 Rotational symmetry number  1.
 Warning -- assumption of classical behavior for rotation
           may cause significant error
 Rotational temperatures (Kelvin)      0.06995     0.03752     0.03529
 Rotational constants (GHZ):           1.45762     0.78189     0.73542
    1 imaginary frequencies ignored.
 Zero-point vibrational energy     123951.6 (Joules/Mol)
                                   29.62514 (Kcal/Mol)
 Warning -- explicit consideration of  18 degrees of freedom as
           vibrations may cause significant error
 Vibrational temperatures:     59.82    72.40   103.09   197.91   278.99
          (Kelvin)            320.27   345.45   414.52   451.09   477.56
                              562.13   622.31   648.79   675.05   732.66
                              839.83   861.89   871.37  1088.37  1152.41
                             1322.16  1543.36  1637.22  1681.02  1741.50
                             1805.92  1933.99  1966.26  5408.57

 Zero-point correction=                           0.047211 (Hartree/Particle)
 Thermal correction to Energy=                    0.058151
 Thermal correction to Enthalpy=                  0.059096
 Thermal correction to Gibbs Free Energy=         0.009060
 Sum of electronic and zero-point Energies=          -1199.537099
 Sum of electronic and thermal Energies=             -1199.526158
 Sum of electronic and thermal Enthalpies=           -1199.525214
 Sum of electronic and thermal Free Energies=        -1199.575249

                     E (Thermal)             CV                S
                      KCal/Mol        Cal/Mol-Kelvin    Cal/Mol-Kelvin
 Total                   36.491             37.354            105.308
 Electronic               0.000              0.000              0.000
 Translational            0.889              2.981             41.783
 Rotational               0.889              2.981             30.329
 Vibrational             34.713             31.392             33.196
 Vibration     1          0.594              1.981              5.182
 Vibration     2          0.595              1.977              4.805
 Vibration     3          0.598              1.968              4.108
 Vibration     4          0.614              1.916              2.838
 Vibration     5          0.635              1.848              2.190
 Vibration     6          0.648              1.807              1.938
 Vibration     7          0.657              1.779              1.802
 Vibration     8          0.685              1.696              1.485
 Vibration     9          0.701              1.648              1.344
 Vibration    10          0.714              1.612              1.251
 Vibration    11          0.758              1.490              0.997
 Vibration    12          0.793              1.399              0.850
 Vibration    13          0.810              1.359              0.793
 Vibration    14          0.826              1.318              0.740
 Vibration    15          0.864              1.230              0.635
 Vibration    16          0.941              1.067              0.479
 Vibration    17          0.957              1.034              0.451
 Vibration    18          0.964              1.020              0.440

 Normal termination of Gaussian 16 at Fri May 23 05:34:34 2025.
