 Gaussian 16, Revision C.01,
 Gaussian 16:  ES64L-G16RevC.01  3-Jul-2019

 ----------------------------------------------------------------------
 #P wb97xd/6-311++G(d,p) Symm(None) scf(xqc) pop(None) freq opt(CalcFC,
  Tight)
 ----------------------------------------------------------------------

 ------------------------------
 Gaussian input prepared by ASE
 ------------------------------
 Symbolic Z-matrix:
 Charge =  0 Multiplicity = 1

 SCF Done:  E(RwB97XD) =  -1199.73235356     A.U. after   16 cycles
 SCF Done:  E(RwB97XD) =  -1199.73573652     A.U. after   16 cycles
 SCF Done:  E(RwB97XD) =  -1199.72927351     A.U. after   16 cycles
 SCF Done:  E(RwB97XD) =  -1199.73677216     A.U. after   14 cycles
 SCF Done:  E(RwB97XD) =  -1199.73717434     A.U. after   13 cycles
 SCF Done:  E(RwB97XD) =  -1199.73782086     A.U. after   16 cycles
 SCF Done:  E(RwB97XD) =  -1199.73836620     A.U. after   12 cycles
 SCF Done:  E(RwB97XD) =  -1199.73893237     A.U. after   14 cycles
 SCF Done:  E(RwB97XD) =  -1199.73886624     A.U. after   13 cycles
 SCF Done:  E(RwB97XD) =  -1199.73903626     A.U. after   13 cycles
 SCF Done:  E(RwB97XD) =  -1199.73907412     A.U. after   12 cycles
 SCF Done:  E(RwB97XD) =  -1199.73907869     A.U. after   11 cycles
 SCF Done:  E(RwB97XD) =  -1199.73907906     A.U. after   10 cycles
 SCF Done:  E(RwB97XD) =  -1199.73907913     A.U. after    9 cycles
 SCF Done:  E(RwB97XD) =  -1199.73907914     A.U. after    7 cycles
 SCF Done:  E(RwB97XD) =  -1199.73907914     A.U. after    6 cycles
 Optimization completed.
    -- Stationary point found.
 Normal termination of Gaussian 16 at Fri May 23 05:25:21 2025.

 ----------------------------------------------------------------------
 #P Geom=AllCheck Guess=TCheck SCRF=Check GenChk RwB97XD/6-311++G(d,p)
 Freq
 ----------------------------------------------------------------------

 Structure from the checkpoint file:  "/tmp/Gau-201617.chk"
 ------------------------------
 Gaussian input prepared by ASE
 ------------------------------
 Charge =  0 Multiplicity = 1

                          Input orientation:
 ---------------------------------------------------------------------
 Center     Atomic      Atomic             Coordinates (Angstroms)
 Number     Number       Type             X           Y           Z
 ---------------------------------------------------------------------
      1          6           0        5.160699    1.013682   -0.974280
      2          6           0        3.787133    0.768111   -0.304974
      3          9           0        3.661165   -0.520466   -0.015139
      4          9           0        3.716983    1.504650    0.804292
      5         16           0        2.377810    1.286900   -1.523305
      6          8           0        0.992928    0.643903    0.545299
      7          8           0        1.969414    0.025568   -2.143455
      8          8           0        1.275196    1.718626   -0.339863
      9          9           0        5.234322    0.346218   -2.123505
     10          9           0        5.304456    2.314934   -1.229486
     11          9           0        6.147564    0.619436   -0.181368
     12          1           0        0.285626    0.175452    0.081321
 ---------------------------------------------------------------------

 SCF Done:  E(RwB97XD) =  -1199.73907914     A.U. after    1 cycles

 Isotropic polarizability for W=    0.000000       60.43 Bohr**3.
 End of Minotr F.D. properties file   721 does not exist.

                      1                      2                      3
                      A                      A                      A
 Frequencies --     39.8514                55.9750               107.5871
 Red. masses --     14.8351                15.6937                 8.9953
 Frc consts  --      0.0139                 0.0290                 0.0613
 IR Inten    --      0.0488                 0.0344                 1.2559

                      4                      5                      6
                      A                      A                      A
 Frequencies --    136.3338               189.5028               207.2115
 Red. masses --     14.3008                 6.7814                 6.5033
 Frc consts  --      0.1566                 0.1435                 0.1645
 IR Inten    --      5.1439                14.0907                 7.6548

                      7                      8                      9
                      A                      A                      A
 Frequencies --    231.5610               265.1402               285.8758
 Red. masses --      9.7635                 4.1695                12.0779
 Frc consts  --      0.3085                 0.1727                 0.5816
 IR Inten    --      7.1822                25.5510                 1.4033

                     10                     11                     12
                      A                      A                      A
 Frequencies --    305.7736               357.3013               366.4175
 Red. masses --      3.5427                 4.3574                18.4765
 Frc consts  --      0.1952                 0.3278                 1.4616
 IR Inten    --     50.1625                57.2999                 0.8231

                     13                     14                     15
                      A                      A                      A
 Frequencies --    441.8641               472.3061               542.2570
 Red. masses --     10.1564                13.0564                18.1486
 Frc consts  --      1.1683                 1.7160                 3.1442
 IR Inten    --     17.1860                20.3314                 3.1630

                     16                     17                     18
                      A                      A                      A
 Frequencies --    556.1911               599.0885               644.7838
 Red. masses --     14.4375                17.8300                18.2739
 Frc consts  --      2.6314                 3.7704                 4.4762
 IR Inten    --     28.5741                 2.2521                33.5650

                     19                     20                     21
                      A                      A                      A
 Frequencies --    668.2170               758.2382               949.6552
 Red. masses --     17.4336                17.1783                13.7605
 Frc consts  --      4.5864                 5.8189                 7.3117
 IR Inten    --     52.9153                18.1853                96.4585

                     22                     23                     24
                      A                      A                      A
 Frequencies --    955.8286              1161.3375              1213.0331
 Red. masses --     15.1175                13.6711                17.0225
 Frc consts  --      8.1375                10.8635                14.7577
 IR Inten    --     28.1439               192.2603                 6.9674

                     25                     26                     27
                      A                      A                      A
 Frequencies --   1226.4635              1239.7844              1252.6419
 Red. masses --     12.9527                13.0963                14.1208
 Frc consts  --     11.4794                11.8602                13.0546
 IR Inten    --    104.0395               228.3245               477.5075

                     28                     29                     30
                      A                      A                      A
 Frequencies --   1353.8084              1437.2253              3807.7999
 Red. masses --     12.6675                 1.1065                 1.0685
 Frc consts  --     13.6790                 1.3467                 9.1283
 IR Inten    --    137.5277                54.4005                75.2522

 - Thermochemistry -
 -------------------
 Temperature   298.150 Kelvin.  Pressure   1.00000 Atm.
 Atom     1 has atomic number  6 and mass  12.00000

 Molecular mass:   199.95666 amu.
 Principal axes and moments of inertia in atomic units:
                           1         2         3
     Eigenvalues --  1081.252572421.841382648.10534
           X            0.99556   0.09131  -0.02295
           Y            0.01493   0.08759   0.99604
           Z           -0.09296   0.99196  -0.08584
 This molecule is an asymmetric top.
 Rotational symmetry number  1.
 Warning -- assumption of classical behavior for rotation
           may cause significant error
 Rotational temperatures (Kelvin)      0.08011     0.03576     0.03271
 Rotational constants (GHZ):           1.66912     0.74519     0.68152
 Zero-point vibrational energy     130566.7 (Joules/Mol)
                                   31.20620 (Kcal/Mol)
 Warning -- explicit consideration of  17 degrees of freedom as
           vibrations may cause significant error
 Vibrational temperatures:     57.34    80.54   154.79   196.15   272.65
          (Kelvin)            298.13   333.16   381.48   411.31   439.94
                              514.08   527.19   635.74   679.54   780.19
                              800.23   861.95   927.70   961.42  1090.94
                             1366.34  1375.22  1670.91  1745.28  1764.61
                             1783.77  1802.27  1947.83  2067.85  5478.57

 Zero-point correction=                           0.049730 (Hartree/Particle)
 Thermal correction to Energy=                    0.060876
 Thermal correction to Enthalpy=                  0.061820
 Thermal correction to Gibbs Free Energy=         0.011667
 Sum of electronic and zero-point Energies=          -1199.689349
 Sum of electronic and thermal Energies=             -1199.678203
 Sum of electronic and thermal Enthalpies=           -1199.677259
 Sum of electronic and thermal Free Energies=        -1199.727412

                     E (Thermal)             CV                S
                      KCal/Mol        Cal/Mol-Kelvin    Cal/Mol-Kelvin
 Total                   38.200             38.065            105.556
 Electronic               0.000              0.000              0.000
 Translational            0.889              2.981             41.783
 Rotational               0.889              2.981             30.318
 Vibrational             36.423             32.103             33.455
 Vibration     1          0.594              1.981              5.266
 Vibration     2          0.596              1.975              4.594
 Vibration     3          0.606              1.943              3.312
 Vibration     4          0.614              1.917              2.855
 Vibration     5          0.633              1.854              2.233
 Vibration     6          0.641              1.830              2.068
 Vibration     7          0.653              1.793              1.867
 Vibration     8          0.671              1.737              1.628
 Vibration     9          0.684              1.700              1.498
 Vibration    10          0.696              1.663              1.385
 Vibration    11          0.732              1.560              1.134
 Vibration    12          0.739              1.541              1.095
 Vibration    13          0.802              1.379              0.821
 Vibration    14          0.829              1.311              0.731
 Vibration    15          0.897              1.157              0.560
 Vibration    16          0.912              1.126              0.531
 Vibration    17          0.957              1.034              0.451

 Optimization completed.
    -- Stationary point found.
 Normal termination of Gaussian 16 at Fri May 23 05:26:38 2025.
