 Gaussian 16, Revision C.01,
 Gaussian 16:  ES64L-G16RevC.01  3-Jul-2019

 ------------------------------------------
 #P am1 Symm(None) scf(xqc) pop(None) force
 ------------------------------------------

 ------------------------------
 Gaussian input prepared by ASE
 ------------------------------
 Symbolic Z-matrix:
 Charge =  0 Multiplicity = 1

                          Input orientation:
 ---------------------------------------------------------------------
 Center     Atomic      Atomic             Coordinates (Angstroms)
 Number     Number       Type             X           Y           Z
 ---------------------------------------------------------------------
      1          6           0       -0.992981    0.382059    1.334426
      2          6           0       -0.004606    0.345359    0.136883
      3          9           0        0.814959   -0.723371    0.157621
      4          9           0       -0.626152    0.269902   -1.050581
      5         16           0        2.341715    0.004252   -0.036404
      6          8           0        2.979103   -0.605936    1.080444
      7          8           0        2.567505   -0.384133   -1.387378
      8          8           0        2.070218    1.479884    0.148806
      9          9           0       -2.013950   -0.457959    1.244747
     10          9           0       -0.390678    0.113171    2.491233
     11          9           0       -1.521268    1.600497    1.467775
     12          1           0        0.826556    1.574313    0.230723
 ---------------------------------------------------------------------

 SCF Done:  E(RAM1) =  0.917382635954     A.U. after   15 cycles
 Normal termination of Gaussian 16 at Fri May 23 04:47:41 2025.
