 Gaussian 16, Revision C.01,
 Gaussian 16:  ES64L-G16RevC.01  3-Jul-2019

 ----------------------------------------------------------------------
 #P wb97xd/6-311++G(d,p) Symm(None) scf(xqc) pop(None) freq opt(CalcFC,
  Tight)
 ----------------------------------------------------------------------

 ------------------------------
 Gaussian input prepared by ASE
 ------------------------------
 Symbolic Z-matrix:
 Charge =  0 Multiplicity = 1

 SCF Done:  E(RwB97XD) =  -1199.71680631     A.U. after   16 cycles
 SCF Done:  E(RwB97XD) =  -1199.72206558     A.U. after   15 cycles
 SCF Done:  E(RwB97XD) =  -1199.73297920     A.U. after   15 cycles
 SCF Done:  E(RwB97XD) =  -1199.73439058     A.U. after   15 cycles
 SCF Done:  E(RwB97XD) =  -1199.73442355     A.U. after   13 cycles
 SCF Done:  E(RwB97XD) =  -1199.73464132     A.U. after   12 cycles
 SCF Done:  E(RwB97XD) =  -1199.73464453     A.U. after   12 cycles
 SCF Done:  E(RwB97XD) =  -1199.73465109     A.U. after   10 cycles
 SCF Done:  E(RwB97XD) =  -1199.73468778     A.U. after   11 cycles
 SCF Done:  E(RwB97XD) =  -1199.73470712     A.U. after   11 cycles
 SCF Done:  E(RwB97XD) =  -1199.73471016     A.U. after   10 cycles
 SCF Done:  E(RwB97XD) =  -1199.73471024     A.U. after    9 cycles
 SCF Done:  E(RwB97XD) =  -1199.73471026     A.U. after    7 cycles
 SCF Done:  E(RwB97XD) =  -1199.73471026     A.U. after    6 cycles
 Optimization completed.
    -- Stationary point found.
 Normal termination of Gaussian 16 at Fri May 23 05:26:14 2025.

 ----------------------------------------------------------------------
 #P Geom=AllCheck Guess=TCheck SCRF=Check GenChk RwB97XD/6-311++G(d,p)
 Freq
 ----------------------------------------------------------------------

 Structure from the checkpoint file:  "/tmp/Gau-299449.chk"
 ------------------------------
 Gaussian input prepared by ASE
 ------------------------------
 Charge =  0 Multiplicity = 1

                          Input orientation:
 ---------------------------------------------------------------------
 Center     Atomic      Atomic             Coordinates (Angstroms)
 Number     Number       Type             X           Y           Z
 ---------------------------------------------------------------------
      1          6           0       -0.623950    5.010343    0.089263
      2          6           0        0.295818    3.774609    0.263315
      3          9           0        1.513563    4.063918   -0.184574
      4          9           0        0.351591    3.465700    1.567649
      5         16           0       -0.421046    2.241222   -0.628755
      6          8           0        0.679973    0.048910   -0.075424
      7          8           0       -0.419165    2.561682   -2.050810
      8          8           0        1.009258    1.425731   -0.208756
      9          9           0       -0.584854    5.459799   -1.153855
     10          9           0       -1.880670    4.665645    0.388097
     11          9           0       -0.242234    5.980860    0.912433
     12          1           0        0.820480   -0.085084    0.869909
 ---------------------------------------------------------------------

 SCF Done:  E(RwB97XD) =  -1199.73471026     A.U. after    1 cycles

 Isotropic polarizability for W=    0.000000       61.25 Bohr**3.
 End of Minotr F.D. properties file   721 does not exist.

                      1                      2                      3
                      A                      A                      A
 Frequencies --     33.5385                53.3432                71.2903
 Red. masses --     12.0743                11.4291                 9.0920
 Frc consts  --      0.0080                 0.0192                 0.0272
 IR Inten    --      2.1158                 3.4698                 2.3129

                      4                      5                      6
                      A                      A                      A
 Frequencies --    121.6560               194.3857               197.1176
 Red. masses --     17.4000                16.4738                13.9275
 Frc consts  --      0.1517                 0.3668                 0.3188
 IR Inten    --      3.2532                 4.2369                 4.7547

                      7                      8                      9
                      A                      A                      A
 Frequencies --    226.1875               270.3237               303.1705
 Red. masses --     18.2167                 8.7516                 1.9200
 Frc consts  --      0.5491                 0.3768                 0.1040
 IR Inten    --      1.4868                 4.3435                68.9788

                     10                     11                     12
                      A                      A                      A
 Frequencies --    318.8258               320.7674               369.7325
 Red. masses --     14.1688                 3.2846                18.3998
 Frc consts  --      0.8486                 0.1991                 1.4820
 IR Inten    --      9.5294                19.0752                 0.0865

                     13                     14                     15
                      A                      A                      A
 Frequencies --    403.3816               427.7575               516.3846
 Red. masses --      7.2153                19.5820                16.6042
 Frc consts  --      0.6917                 2.1111                 2.6086
 IR Inten    --     46.2165                16.4521                31.2545

                     16                     17                     18
                      A                      A                      A
 Frequencies --    552.3914               601.5433               629.4121
 Red. masses --     18.8119                17.8327                16.7852
 Frc consts  --      3.3820                 3.8019                 3.9179
 IR Inten    --      8.0020                 9.9778                43.8700

                     19                     20                     21
                      A                      A                      A
 Frequencies --    699.0885               759.2911               962.1500
 Red. masses --     17.8721                17.2476                13.6394
 Frc consts  --      5.1462                 5.8586                 7.4393
 IR Inten    --     58.0440                21.3025               107.6309

                     22                     23                     24
                      A                      A                      A
 Frequencies --    998.9781              1153.0895              1218.2116
 Red. masses --     14.6696                13.5322                13.7005
 Frc consts  --      8.6254                10.6009                11.9793
 IR Inten    --     13.4385               176.5606                36.3487

                     25                     26                     27
                      A                      A                      A
 Frequencies --   1221.6438              1236.8193              1264.9454
 Red. masses --     13.3068                15.1802                14.9128
 Frc consts  --     11.7007                13.6817                14.0589
 IR Inten    --    305.5047                33.5678               471.5717

                     28                     29                     30
                      A                      A                      A
 Frequencies --   1349.3741              1425.2582              3831.6253
 Red. masses --     12.6575                 1.1085                 1.0687
 Frc consts  --     13.5788                 1.3267                 9.2447
 IR Inten    --    155.4099                59.7040                81.2250

 - Thermochemistry -
 -------------------
 Temperature   298.150 Kelvin.  Pressure   1.00000 Atm.
 Atom     1 has atomic number  6 and mass  12.00000

 Molecular mass:   199.95666 amu.
 Principal axes and moments of inertia in atomic units:
                           1         2         3
     Eigenvalues --  1031.262972617.375332894.44190
           X           -0.24155   0.53796   0.80762
           Y            0.96019   0.01218   0.27907
           Z            0.14029   0.84288  -0.51949
 This molecule is an asymmetric top.
 Rotational symmetry number  1.
 Warning -- assumption of classical behavior for rotation
           may cause significant error
 Rotational temperatures (Kelvin)      0.08399     0.03309     0.02992
 Rotational constants (GHZ):           1.75003     0.68952     0.62352
 Zero-point vibrational energy     129984.3 (Joules/Mol)
                                   31.06700 (Kcal/Mol)
 Warning -- explicit consideration of  17 degrees of freedom as
           vibrations may cause significant error
 Vibrational temperatures:     48.25    76.75   102.57   175.04   279.68
          (Kelvin)            283.61   325.43   388.94   436.19   458.72
                              461.51   531.96   580.38   615.45   742.96
                              794.77   865.49   905.58  1005.83  1092.45
                             1384.32  1437.31  1659.04  1752.73  1757.67
                             1779.51  1819.97  1941.45  2050.63  5512.85

 Zero-point correction=                           0.049508 (Hartree/Particle)
 Thermal correction to Energy=                    0.060858
 Thermal correction to Enthalpy=                  0.061802
 Thermal correction to Gibbs Free Energy=         0.010740
 Sum of electronic and zero-point Energies=          -1199.685202
 Sum of electronic and thermal Energies=             -1199.673853
 Sum of electronic and thermal Enthalpies=           -1199.672909
 Sum of electronic and thermal Free Energies=        -1199.723970

                     E (Thermal)             CV                S
                      KCal/Mol        Cal/Mol-Kelvin    Cal/Mol-Kelvin
 Total                   38.189             38.276            107.467
 Electronic               0.000              0.000              0.000
 Translational            0.889              2.981             41.783
 Rotational               0.889              2.981             30.436
 Vibrational             36.411             32.314             35.248
 Vibration     1          0.594              1.983              5.608
 Vibration     2          0.596              1.976              4.689
 Vibration     3          0.598              1.968              4.117
 Vibration     4          0.609              1.931              3.074
 Vibration     5          0.635              1.848              2.186
 Vibration     6          0.637              1.844              2.160
 Vibration     7          0.650              1.801              1.909
 Vibration     8          0.674              1.728              1.594
 Vibration     9          0.695              1.668              1.399
 Vibration    10          0.705              1.638              1.316
 Vibration    11          0.706              1.634              1.306
 Vibration    12          0.742              1.534              1.081
 Vibration    13          0.769              1.463              0.950
 Vibration    14          0.789              1.410              0.866
 Vibration    15          0.871              1.214              0.618
 Vibration    16          0.908              1.134              0.539
 Vibration    17          0.960              1.029              0.447

 Optimization completed.
    -- Stationary point found.
 Normal termination of Gaussian 16 at Fri May 23 05:27:21 2025.
