 Gaussian 16, Revision C.01,
 Gaussian 16:  ES64L-G16RevC.01  3-Jul-2019

 ------------------------------------------
 #P am1 Symm(None) scf(xqc) pop(None) force
 ------------------------------------------

 ------------------------------
 Gaussian input prepared by ASE
 ------------------------------
 Symbolic Z-matrix:
 Charge =  0 Multiplicity = 1

                          Input orientation:
 ---------------------------------------------------------------------
 Center     Atomic      Atomic             Coordinates (Angstroms)
 Number     Number       Type             X           Y           Z
 ---------------------------------------------------------------------
      1          6           0       -1.004825    0.403360    1.318171
      2          6           0        0.000866    0.318717    0.137593
      3          9           0        0.840827   -0.729822    0.234206
      4          9           0       -0.601918    0.163488   -1.051792
      5         16           0        2.352169    0.008821   -0.026559
      6          8           0        3.081834   -0.667759    0.991169
      7          8           0        2.474914   -0.280975   -1.415050
      8          8           0        2.064621    1.459963    0.284902
      9          9           0       -2.045122   -0.412404    1.226742
     10          9           0       -0.428793    0.141277    2.489825
     11          9           0       -1.504901    1.636656    1.419990
     12          1           0        0.820750    1.556716    0.209098
 ---------------------------------------------------------------------

 SCF Done:  E(RAM1) =  0.933599754536     A.U. after   15 cycles
 Normal termination of Gaussian 16 at Fri May 23 04:47:22 2025.
