 Gaussian 16, Revision C.01,
 Gaussian 16:  ES64L-G16RevC.01  3-Jul-2019

 ----------------------------------------------------------------------
 #P wb97xd/6-311++G(d,p) Symm(None) scf(xqc) pop(None) opt(NoFreeze,TS,
 CalcAll,NoEigentest,MaxCycle=999)
 ----------------------------------------------------------------------

 ------------------------------
 Gaussian input prepared by ASE
 ------------------------------
 Symbolic Z-matrix:
 Charge =  0 Multiplicity = 1

 SCF Done:  E(RwB97XD) =  -1199.65435431     A.U. after   17 cycles

 Isotropic polarizability for W=    0.000000       64.98 Bohr**3.
 End of Minotr F.D. properties file   721 does not exist.

 Optimization completed.
    -- Stationary point found.

                          Input orientation:
 ---------------------------------------------------------------------
 Center     Atomic      Atomic             Coordinates (Angstroms)
 Number     Number       Type             X           Y           Z
 ---------------------------------------------------------------------
      1          6           0       -0.384271   -0.376863    1.543875
      2          6           0       -0.051196    0.942422   -0.505803
      3          9           0       -0.632507    0.267485   -1.396428
      4          9           0       -0.617981    2.039440   -0.257057
      5         16           0        1.315653    0.266729    0.528396
      6          8           0        1.706394    1.097291    1.645766
      7          8           0        1.692774   -1.097783    0.233194
      8          8           0        2.165838    1.073056   -0.733245
      9          9           0        0.063456   -1.046256    2.587559
     10          9           0       -1.161546    0.626842    1.986544
     11          9           0       -1.167082   -1.195356    0.819934
     12          1           0        3.120893    1.001029   -0.634440
 ---------------------------------------------------------------------

 ******    1 imaginary frequencies (negative Signs) ******

                      1                      2                      3
                      A                      A                      A
 Frequencies --   -315.8508                37.5014                98.5457
 Red. masses --     15.8970                13.5077                 4.9551
 Frc consts  --      0.9344                 0.0112                 0.0284
 IR Inten    --     46.7105                 0.5007                 9.9395

                      4                      5                      6
                      A                      A                      A
 Frequencies --    112.8395               136.4234               160.8006
 Red. masses --     11.8377                 1.4782                18.0537
 Frc consts  --      0.0888                 0.0162                 0.2750
 IR Inten    --      7.6190                63.6279                 1.8462

                      7                      8                      9
                      A                      A                      A
 Frequencies --    186.6376               198.6906               271.2841
 Red. masses --      8.7607                14.0959                16.1622
 Frc consts  --      0.1798                 0.3279                 0.7008
 IR Inten    --      3.9680                 8.7734                 2.9273

                     10                     11                     12
                      A                      A                      A
 Frequencies --    281.0403               290.2947               387.5041
 Red. masses --      7.7886                14.3395                16.2532
 Frc consts  --      0.3625                 0.7120                 1.4379
 IR Inten    --     21.6637                 2.1042                 0.1232

                     13                     14                     15
                      A                      A                      A
 Frequencies --    443.7797               504.8816               545.9911
 Red. masses --     17.5839                15.5275                18.0931
 Frc consts  --      2.0403                 2.3320                 3.1779
 IR Inten    --     18.2297                22.8377                 1.2066

                     16                     17                     18
                      A                      A                      A
 Frequencies --    547.7512               552.2365               572.0002
 Red. masses --     10.1169                11.2755                12.3033
 Frc consts  --      1.7884                 2.0260                 2.3717
 IR Inten    --      2.0684                 0.1211               200.7971

                     19                     20                     21
                      A                      A                      A
 Frequencies --    669.2486               722.4827               729.9965
 Red. masses --     14.0793                17.0837                16.7536
 Frc consts  --      3.7154                 5.2540                 5.2602
 IR Inten    --    301.1237                 7.2164                 3.4378

                     22                     23                     24
                      A                      A                      A
 Frequencies --   1042.7283              1075.7756              1130.6780
 Red. masses --     11.5209                 2.0949                 2.5573
 Frc consts  --      7.3804                 1.4284                 1.9262
 IR Inten    --    335.9981                55.7308               132.0536

                     25                     26                     27
                      A                      A                      A
 Frequencies --   1147.8448              1229.9811              1380.1135
 Red. masses --     13.2156                13.4385                20.5051
 Frc consts  --     10.2590                11.9784                23.0114
 IR Inten    --    175.2958               277.7483               214.9569

                     28                     29                     30
                      A                      A                      A
 Frequencies --   1386.7057              1461.0886              3870.2478
 Red. masses --     13.2358                13.5129                 1.0658
 Frc consts  --     14.9958                16.9962                 9.4055
 IR Inten    --    357.9953               372.3840               121.6143

 - Thermochemistry -
 -------------------
 Temperature   298.150 Kelvin.  Pressure   1.00000 Atm.
 Atom     1 has atomic number  6 and mass  12.00000

 Molecular mass:   199.95666 amu.
 Principal axes and moments of inertia in atomic units:
                           1         2         3
     Eigenvalues --  1422.650161782.095492196.82880
           X           -0.49067   0.87133   0.00560
           Y           -0.47012  -0.27014   0.84024
           Z            0.73364   0.40965   0.54218
 This molecule is an asymmetric top.
 Rotational symmetry number  1.
 Warning -- assumption of classical behavior for rotation
           may cause significant error
 Rotational temperatures (Kelvin)      0.06088     0.04860     0.03943
 Rotational constants (GHZ):           1.26858     1.01271     0.82152
    1 imaginary frequencies ignored.
 Zero-point vibrational energy     126655.2 (Joules/Mol)
                                   30.27132 (Kcal/Mol)
 Warning -- explicit consideration of  17 degrees of freedom as
           vibrations may cause significant error
 Vibrational temperatures:     53.96   141.79   162.35   196.28   231.36
          (Kelvin)            268.53   285.87   390.32   404.35   417.67
                              557.53   638.50   726.41   785.56   788.09
                              794.55   822.98   962.90  1039.49  1050.30
                             1500.25  1547.80  1626.79  1651.49  1769.67
                             1985.68  1995.16  2102.18  5568.42

 Zero-point correction=                           0.048240 (Hartree/Particle)
 Thermal correction to Energy=                    0.059181
 Thermal correction to Enthalpy=                  0.060125
 Thermal correction to Gibbs Free Energy=         0.010610
 Sum of electronic and zero-point Energies=          -1199.606114
 Sum of electronic and thermal Energies=             -1199.595174
 Sum of electronic and thermal Enthalpies=           -1199.594230
 Sum of electronic and thermal Free Energies=        -1199.643744

                     E (Thermal)             CV                S
                      KCal/Mol        Cal/Mol-Kelvin    Cal/Mol-Kelvin
 Total                   37.136             37.172            104.212
 Electronic               0.000              0.000              0.000
 Translational            0.889              2.981             41.783
 Rotational               0.889              2.981             30.100
 Vibrational             35.359             31.210             32.329
 Vibration     1          0.594              1.982              5.387
 Vibration     2          0.604              1.950              3.483
 Vibration     3          0.607              1.939              3.219
 Vibration     4          0.614              1.917              2.853
 Vibration     5          0.622              1.890              2.540
 Vibration     6          0.632              1.858              2.261
 Vibration     7          0.637              1.842              2.145
 Vibration     8          0.675              1.726              1.588
 Vibration     9          0.681              1.709              1.527
 Vibration    10          0.686              1.692              1.472
 Vibration    11          0.756              1.497              1.010
 Vibration    12          0.803              1.375              0.815
 Vibration    13          0.860              1.239              0.646
 Vibration    14          0.901              1.148              0.553
 Vibration    15          0.903              1.145              0.549
 Vibration    16          0.908              1.135              0.540
 Vibration    17          0.928              1.092              0.500

 Normal termination of Gaussian 16 at Fri May 23 04:19:23 2025.
