 Gaussian 16, Revision C.01,
 Gaussian 16:  ES64L-G16RevC.01  3-Jul-2019

 ----------------------------------------------------------------------
 #P wb97xd/6-311++G(d,p) Symm(None) scf(xqc) pop(None) freq opt(CalcFC,
  Tight)
 ----------------------------------------------------------------------

 ------------------------------
 Gaussian input prepared by ASE
 ------------------------------
 Symbolic Z-matrix:
 Charge =  0 Multiplicity = 1

 SCF Done:  E(RwB97XD) =  -1199.71325300     A.U. after   16 cycles
 SCF Done:  E(RwB97XD) =  -1199.72118582     A.U. after   15 cycles
 SCF Done:  E(RwB97XD) =  -1199.71913347     A.U. after   15 cycles
 SCF Done:  E(RwB97XD) =  -1199.72980106     A.U. after   14 cycles
 SCF Done:  E(RwB97XD) =  -1199.73102996     A.U. after   14 cycles
 SCF Done:  E(RwB97XD) =  -1199.73091219     A.U. after   14 cycles
 SCF Done:  E(RwB97XD) =  -1199.72934129     A.U. after   14 cycles
 SCF Done:  E(RwB97XD) =  -1199.72903145     A.U. after   13 cycles
 SCF Done:  E(RwB97XD) =  -1199.73144527     A.U. after   12 cycles
 SCF Done:  E(RwB97XD) =  -1199.73221480     A.U. after   13 cycles
 SCF Done:  E(RwB97XD) =  -1199.73483466     A.U. after   12 cycles
 SCF Done:  E(RwB97XD) =  -1199.73483538     A.U. after   11 cycles
 SCF Done:  E(RwB97XD) =  -1199.73483590     A.U. after   10 cycles
 SCF Done:  E(RwB97XD) =  -1199.73483591     A.U. after    8 cycles
 SCF Done:  E(RwB97XD) =  -1199.73483591     A.U. after    6 cycles
 SCF Done:  E(RwB97XD) =  -1199.73483592     A.U. after    6 cycles
 SCF Done:  E(RwB97XD) =  -1199.73483592     A.U. after    5 cycles
 SCF Done:  E(RwB97XD) =  -1199.73483592     A.U. after    6 cycles
 SCF Done:  E(RwB97XD) =  -1199.73483592     A.U. after    5 cycles
 Optimization completed.
    -- Stationary point found.
 Normal termination of Gaussian 16 at Fri May 23 05:29:49 2025.

 ----------------------------------------------------------------------
 #P Geom=AllCheck Guess=TCheck SCRF=Check GenChk RwB97XD/6-311++G(d,p)
 Freq
 ----------------------------------------------------------------------

 Structure from the checkpoint file:  "/tmp/Gau-218615.chk"
 ------------------------------
 Gaussian input prepared by ASE
 ------------------------------
 Charge =  0 Multiplicity = 1

                          Input orientation:
 ---------------------------------------------------------------------
 Center     Atomic      Atomic             Coordinates (Angstroms)
 Number     Number       Type             X           Y           Z
 ---------------------------------------------------------------------
      1          6           0        2.241496    0.476083   -3.907544
      2          6           0        1.316445    0.618676   -2.677769
      3          9           0        0.161942    1.163303   -3.040366
      4          9           0        1.094613   -0.609306   -2.167442
      5         16           0        2.107294    1.667735   -1.278988
      6          8           0        1.294904    0.287930    0.683861
      7          8           0        1.882928    3.048599   -1.689464
      8          8           0        0.833220    1.291052   -0.207073
      9          9           0        2.446258    1.657331   -4.473333
     10          9           0        3.416837   -0.022491   -3.514614
     11          9           0        1.705869   -0.346319   -4.801806
     12          1           0        0.801529   -0.482933    0.375813
 ---------------------------------------------------------------------

 SCF Done:  E(RwB97XD) =  -1199.73483592     A.U. after    1 cycles

 Isotropic polarizability for W=    0.000000       60.96 Bohr**3.
 End of Minotr F.D. properties file   721 does not exist.

                      1                      2                      3
                      A                      A                      A
 Frequencies --     24.7970                54.8094                83.7424
 Red. masses --     13.8371                16.0253                 7.6674
 Frc consts  --      0.0050                 0.0284                 0.0317
 IR Inten    --      1.1466                 0.8566                 3.4826

                      4                      5                      6
                      A                      A                      A
 Frequencies --    124.8374               190.3921               213.6284
 Red. masses --     15.7672                10.7886                 9.8632
 Frc consts  --      0.1448                 0.2304                 0.2652
 IR Inten    --      3.7765                 4.8766                 7.4732

                      7                      8                      9
                      A                      A                      A
 Frequencies --    226.2518               262.1427               291.4974
 Red. masses --     15.0511                17.7132                17.2117
 Frc consts  --      0.4539                 0.7172                 0.8617
 IR Inten    --      2.2113                 5.4697                 6.6917

                     10                     11                     12
                      A                      A                      A
 Frequencies --    318.2027               355.4095               369.9135
 Red. masses --     14.3403                 1.9186                 9.2835
 Frc consts  --      0.8555                 0.1428                 0.7484
 IR Inten    --      0.4656                79.8287                14.1019

                     13                     14                     15
                      A                      A                      A
 Frequencies --    411.5316               420.3405               511.7162
 Red. masses --      5.3486                 4.9443                19.5611
 Frc consts  --      0.5337                 0.5147                 3.0179
 IR Inten    --     16.9935                40.1327                33.6720

                     16                     17                     18
                      A                      A                      A
 Frequencies --    546.9521               600.4116               639.4686
 Red. masses --     18.4974                18.0773                17.0574
 Frc consts  --      3.2603                 3.8396                 4.1096
 IR Inten    --      3.2442                 7.0957                44.9179

                     19                     20                     21
                      A                      A                      A
 Frequencies --    694.4221               758.2298               959.7764
 Red. masses --     17.6777                17.1850                13.4947
 Frc consts  --      5.0225                 5.8211                 7.3241
 IR Inten    --     65.2179                18.7605               103.9911

                     22                     23                     24
                      A                      A                      A
 Frequencies --    995.8884              1143.3488              1217.1867
 Red. masses --     14.8959                13.3389                14.0765
 Frc consts  --      8.7044                10.2737                12.2874
 IR Inten    --      1.9491               160.8554               121.9549

                     25                     26                     27
                      A                      A                      A
 Frequencies --   1224.7339              1231.9075              1259.2778
 Red. masses --     13.1466                14.8360                14.7931
 Frc consts  --     11.6185                13.2655                13.8214
 IR Inten    --    246.7046                 7.7937               476.9442

                     28                     29                     30
                      A                      A                      A
 Frequencies --   1353.3154              1430.1649              3821.4098
 Red. masses --     12.6937                 1.1059                 1.0687
 Frc consts  --     13.6974                 1.3327                 9.1949
 IR Inten    --    148.6363                54.6878                66.6109

 - Thermochemistry -
 -------------------
 Temperature   298.150 Kelvin.  Pressure   1.00000 Atm.
 Atom     1 has atomic number  6 and mass  12.00000

 Molecular mass:   199.95666 amu.
 Principal axes and moments of inertia in atomic units:
                           1         2         3
     Eigenvalues --  1127.067672466.578972756.84532
           X           -0.20938   0.31084   0.92711
           Y            0.19816   0.94194  -0.27107
           Z            0.95755  -0.12696   0.25882
 This molecule is an asymmetric top.
 Rotational symmetry number  1.
 Warning -- assumption of classical behavior for rotation
           may cause significant error
 Rotational temperatures (Kelvin)      0.07685     0.03512     0.03142
 Rotational constants (GHZ):           1.60127     0.73168     0.65464
 Zero-point vibrational energy     130008.4 (Joules/Mol)
                                   31.07275 (Kcal/Mol)
 Warning -- explicit consideration of  17 degrees of freedom as
           vibrations may cause significant error
 Vibrational temperatures:     35.68    78.86   120.49   179.61   273.93
          (Kelvin)            307.36   325.53   377.16   419.40   457.82
                              511.35   532.22   592.10   604.78   736.25
                              786.94   863.86   920.05   999.12  1090.92
                             1380.90  1432.86  1645.02  1751.26  1762.12
                             1772.44  1811.82  1947.12  2057.69  5498.16

 Zero-point correction=                           0.049518 (Hartree/Particle)
 Thermal correction to Energy=                    0.060825
 Thermal correction to Enthalpy=                  0.061769
 Thermal correction to Gibbs Free Energy=         0.010696
 Sum of electronic and zero-point Energies=          -1199.685318
 Sum of electronic and thermal Energies=             -1199.674011
 Sum of electronic and thermal Enthalpies=           -1199.673067
 Sum of electronic and thermal Free Energies=        -1199.724140

                     E (Thermal)             CV                S
                      KCal/Mol        Cal/Mol-Kelvin    Cal/Mol-Kelvin
 Total                   38.168             38.244            107.492
 Electronic               0.000              0.000              0.000
 Translational            0.889              2.981             41.783
 Rotational               0.889              2.981             30.417
 Vibrational             36.391             32.283             35.292
 Vibration     1          0.593              1.985              6.207
 Vibration     2          0.596              1.976              4.636
 Vibration     3          0.601              1.960              3.801
 Vibration     4          0.610              1.928              3.024
 Vibration     5          0.634              1.853              2.224
 Vibration     6          0.644              1.820              2.012
 Vibration     7          0.650              1.801              1.908
 Vibration     8          0.669              1.742              1.647
 Vibration     9          0.687              1.690              1.465
 Vibration    10          0.705              1.639              1.319
 Vibration    11          0.731              1.564              1.142
 Vibration    12          0.742              1.534              1.080
 Vibration    13          0.776              1.445              0.921
 Vibration    14          0.783              1.426              0.891
 Vibration    15          0.867              1.224              0.629
 Vibration    16          0.902              1.146              0.551
 Vibration    17          0.959              1.031              0.449

 Optimization completed.
    -- Stationary point found.
 Normal termination of Gaussian 16 at Fri May 23 05:31:11 2025.
