 Gaussian 16, Revision C.01,
 Gaussian 16:  ES64L-G16RevC.01  3-Jul-2019

 ----------------------------------------------------------------------
 #P wb97xd/6-311++G(d,p) Symm(None) scf(xqc) pop(None) freq opt(CalcFC,
  Tight)
 ----------------------------------------------------------------------

 ------------------------------
 Gaussian input prepared by ASE
 ------------------------------
 Symbolic Z-matrix:
 Charge =  0 Multiplicity = 1

 SCF Done:  E(RwB97XD) =  -1199.73187412     A.U. after   16 cycles
 SCF Done:  E(RwB97XD) =  -1199.73420595     A.U. after   14 cycles
 SCF Done:  E(RwB97XD) =  -1199.73342115     A.U. after   15 cycles
 SCF Done:  E(RwB97XD) =  -1199.73483699     A.U. after   13 cycles
 SCF Done:  E(RwB97XD) =  -1199.73493465     A.U. after   12 cycles
 SCF Done:  E(RwB97XD) =  -1199.73497245     A.U. after   13 cycles
 SCF Done:  E(RwB97XD) =  -1199.73497661     A.U. after   11 cycles
 SCF Done:  E(RwB97XD) =  -1199.73497718     A.U. after    9 cycles
 SCF Done:  E(RwB97XD) =  -1199.73497741     A.U. after    9 cycles
 SCF Done:  E(RwB97XD) =  -1199.73497746     A.U. after   10 cycles
 SCF Done:  E(RwB97XD) =  -1199.73497746     A.U. after    7 cycles
 SCF Done:  E(RwB97XD) =  -1199.73497746     A.U. after    6 cycles
 Optimization completed.
    -- Stationary point found.
 Normal termination of Gaussian 16 at Fri May 23 05:24:58 2025.

 ----------------------------------------------------------------------
 #P Geom=AllCheck Guess=TCheck SCRF=Check GenChk RwB97XD/6-311++G(d,p)
 Freq
 ----------------------------------------------------------------------

 Structure from the checkpoint file:  "/tmp/Gau-64863.chk"
 ------------------------------
 Gaussian input prepared by ASE
 ------------------------------
 Charge =  0 Multiplicity = 1

                          Input orientation:
 ---------------------------------------------------------------------
 Center     Atomic      Atomic             Coordinates (Angstroms)
 Number     Number       Type             X           Y           Z
 ---------------------------------------------------------------------
      1          6           0        0.238060    1.891652    3.936472
      2          6           0        0.140090    1.704168    2.403313
      3          9           0       -0.515382    0.564060    2.140086
      4          9           0       -0.545074    2.728787    1.879332
      5         16           0        1.857372    1.725412    1.551236
      6          8           0        0.957095    0.020058   -0.200463
      7          8           0        2.576936    0.581025    2.097959
      8          8           0        1.242707    1.391523    0.008767
      9          9           0        0.736118    0.810477    4.512614
     10          9           0        1.036201    2.931477    4.195457
     11          9           0       -0.963463    2.139768    4.447248
     12          1           0        0.002495   -0.016080   -0.055452
 ---------------------------------------------------------------------

 SCF Done:  E(RwB97XD) =  -1199.73497746     A.U. after    1 cycles

 Isotropic polarizability for W=    0.000000       60.48 Bohr**3.
 End of Minotr F.D. properties file   721 does not exist.

                      1                      2                      3
                      A                      A                      A
 Frequencies --     20.2742                58.4592               115.3141
 Red. masses --     10.6150                17.8098                 7.8534
 Frc consts  --      0.0026                 0.0359                 0.0615
 IR Inten    --      0.7536                 0.4222                 5.0824

                      4                      5                      6
                      A                      A                      A
 Frequencies --    122.9317               191.7491               200.9978
 Red. masses --      8.8813                 9.0856                 7.3149
 Frc consts  --      0.0791                 0.1968                 0.1741
 IR Inten    --     11.4326                 9.6422                17.7407

                      7                      8                      9
                      A                      A                      A
 Frequencies --    226.5725               252.0187               276.6604
 Red. masses --     15.3596                11.6573                16.9931
 Frc consts  --      0.4646                 0.4362                 0.7663
 IR Inten    --      4.3573                11.8819                 2.6101

                     10                     11                     12
                      A                      A                      A
 Frequencies --    316.3958               346.0226               372.8002
 Red. masses --      3.9351                 2.4038                14.5860
 Frc consts  --      0.2321                 0.1696                 1.1944
 IR Inten    --     34.2652                45.4585                 1.2296

                     13                     14                     15
                      A                      A                      A
 Frequencies --    426.7348               469.7206               544.9248
 Red. masses --      7.5190                14.9371                18.0094
 Frc consts  --      0.8067                 1.9418                 3.1508
 IR Inten    --     30.7318                54.6999                 1.0718

                     16                     17                     18
                      A                      A                      A
 Frequencies --    564.2397               600.5695               618.8916
 Red. masses --     17.6614                18.2414                17.2130
 Frc consts  --      3.3128                 3.8765                 3.8845
 IR Inten    --     28.1488                33.8736                29.8555

                     19                     20                     21
                      A                      A                      A
 Frequencies --    648.7351               758.2326               964.1327
 Red. masses --     16.9426                17.1555                14.0390
 Frc consts  --      4.2011                 5.8111                 7.6888
 IR Inten    --     28.2249                17.4511                53.8464

                     22                     23                     24
                      A                      A                      A
 Frequencies --    966.9110              1153.6041              1200.2019
 Red. masses --     14.5945                13.4056                12.9462
 Frc consts  --      8.0392                10.5111                10.9875
 IR Inten    --     44.5958               180.1183               106.1341

                     25                     26                     27
                      A                      A                      A
 Frequencies --   1219.4750              1234.3113              1261.8228
 Red. masses --     13.8829                15.4564                14.4467
 Frc consts  --     12.1640                13.8742                13.5523
 IR Inten    --    157.3879               115.4020               441.7319

                     28                     29                     30
                      A                      A                      A
 Frequencies --   1346.7621              1435.1868              3813.1644
 Red. masses --     12.0003                 1.1069                 1.0685
 Frc consts  --     12.8240                 1.3433                 9.1540
 IR Inten    --    140.5720                47.4531                56.5647

 - Thermochemistry -
 -------------------
 Temperature   298.150 Kelvin.  Pressure   1.00000 Atm.
 Atom     1 has atomic number  6 and mass  12.00000

 Molecular mass:   199.95666 amu.
 Principal axes and moments of inertia in atomic units:
                           1         2         3
     Eigenvalues --  1079.653592453.188052684.22205
           X           -0.33239   0.92582   0.17991
           Y            0.28584  -0.08290   0.95469
           Z            0.89878   0.36876  -0.23708
 This molecule is an asymmetric top.
 Rotational symmetry number  1.
 Warning -- assumption of classical behavior for rotation
           may cause significant error
 Rotational temperatures (Kelvin)      0.08022     0.03531     0.03227
 Rotational constants (GHZ):           1.67159     0.73567     0.67235
 Zero-point vibrational energy     129961.2 (Joules/Mol)
                                   31.06147 (Kcal/Mol)
 Warning -- explicit consideration of  18 degrees of freedom as
           vibrations may cause significant error
 Vibrational temperatures:     29.17    84.11   165.91   176.87   275.88
          (Kelvin)            289.19   325.99   362.60   398.05   455.22
                              497.85   536.38   613.98   675.82   784.03
                              811.82   864.09   890.45   933.39  1090.93
                             1387.17  1391.17  1659.78  1726.82  1754.55
                             1775.90  1815.48  1937.69  2064.91  5486.29

 Zero-point correction=                           0.049500 (Hartree/Particle)
 Thermal correction to Energy=                    0.060756
 Thermal correction to Enthalpy=                  0.061700
 Thermal correction to Gibbs Free Energy=         0.010777
 Sum of electronic and zero-point Energies=          -1199.685478
 Sum of electronic and thermal Energies=             -1199.674221
 Sum of electronic and thermal Enthalpies=           -1199.673277
 Sum of electronic and thermal Free Energies=        -1199.724201

                     E (Thermal)             CV                S
                      KCal/Mol        Cal/Mol-Kelvin    Cal/Mol-Kelvin
 Total                   38.125             38.211            107.178
 Electronic               0.000              0.000              0.000
 Translational            0.889              2.981             41.783
 Rotational               0.889              2.981             30.342
 Vibrational             36.348             32.249             35.052
 Vibration     1          0.593              1.986              6.607
 Vibration     2          0.596              1.974              4.509
 Vibration     3          0.608              1.937              3.177
 Vibration     4          0.610              1.930              3.054
 Vibration     5          0.634              1.851              2.211
 Vibration     6          0.638              1.838              2.124
 Vibration     7          0.650              1.801              1.906
 Vibration     8          0.664              1.759              1.716
 Vibration     9          0.678              1.717              1.554
 Vibration    10          0.703              1.642              1.329
 Vibration    11          0.724              1.583              1.184
 Vibration    12          0.744              1.528              1.068
 Vibration    13          0.788              1.412              0.869
 Vibration    14          0.827              1.317              0.738
 Vibration    15          0.900              1.151              0.555
 Vibration    16          0.920              1.109              0.515
 Vibration    17          0.959              1.031              0.449
 Vibration    18          0.979              0.992              0.418

 Optimization completed.
    -- Stationary point found.
 Normal termination of Gaussian 16 at Fri May 23 05:26:14 2025.
