 Gaussian 16, Revision C.01,
 Gaussian 16:  ES64L-G16RevC.01  3-Jul-2019

 ----------------------------------------------------------------------
 #P wb97xd/6-311++G(d,p) Symm(None) scf(xqc) pop(None) freq opt(CalcFC,
  Tight)
 ----------------------------------------------------------------------

 ------------------------------
 Gaussian input prepared by ASE
 ------------------------------
 Symbolic Z-matrix:
 Charge =  0 Multiplicity = 1

 SCF Done:  E(RwB97XD) =  -1199.58984088     A.U. after   18 cycles
 SCF Done:  E(RwB97XD) =  -1199.59913180     A.U. after   20 cycles
 SCF Done:  E(RwB97XD) =  -1199.59722076     A.U. after   18 cycles
 SCF Done:  E(RwB97XD) =  -1199.60093373     A.U. after   19 cycles
 SCF Done:  E(RwB97XD) =  -1199.60204801     A.U. after   20 cycles
 SCF Done:  E(RwB97XD) =  -1199.60277898     A.U. after   16 cycles
 SCF Done:  E(RwB97XD) =  -1199.60299217     A.U. after   17 cycles
 SCF Done:  E(RwB97XD) =  -1199.60308095     A.U. after   18 cycles
 SCF Done:  E(RwB97XD) =  -1199.60326690     A.U. after   17 cycles
 SCF Done:  E(RwB97XD) =  -1199.60316243     A.U. after   20 cycles
 SCF Done:  E(RwB97XD) =  -1199.60349825     A.U. after   17 cycles
 SCF Done:  E(RwB97XD) =  -1199.60354363     A.U. after   16 cycles
 SCF Done:  E(RwB97XD) =  -1199.60356993     A.U. after   14 cycles
 SCF Done:  E(RwB97XD) =  -1199.60357368     A.U. after   15 cycles
 SCF Done:  E(RwB97XD) =  -1199.60357437     A.U. after   12 cycles
 SCF Done:  E(RwB97XD) =  -1199.60357451     A.U. after   11 cycles
 SCF Done:  E(RwB97XD) =  -1199.60357455     A.U. after   10 cycles
 SCF Done:  E(RwB97XD) =  -1199.60357455     A.U. after   10 cycles
 SCF Done:  E(RwB97XD) =  -1199.60357455     A.U. after    9 cycles
 Optimization completed.
    -- Stationary point found.
 Normal termination of Gaussian 16 at Fri May 23 07:37:27 2025.

 ----------------------------------------------------------------------
 #P Geom=AllCheck Guess=TCheck SCRF=Check GenChk RwB97XD/6-311++G(d,p)
 Freq
 ----------------------------------------------------------------------

 Structure from the checkpoint file:  "/tmp/Gau-95002.chk"
 ------------------------------
 Gaussian input prepared by ASE
 ------------------------------
 Charge =  0 Multiplicity = 1

                          Input orientation:
 ---------------------------------------------------------------------
 Center     Atomic      Atomic             Coordinates (Angstroms)
 Number     Number       Type             X           Y           Z
 ---------------------------------------------------------------------
      1          6           0       -0.693793    0.524352   -1.355729
      2          6           0       -0.215713    0.078990    0.060375
      3          9           0       -0.831111    0.779683    0.990580
      4          9           0       -0.643284   -1.258449    0.179639
      5         16           0        1.655843    0.021362    0.450266
      6          8           0       -0.016653   -1.884332    1.580428
      7          8           0        2.249046   -0.931161   -0.473800
      8          8           0        1.766627    1.557326   -0.194598
      9          9           0       -0.674554    1.843148   -1.441890
     10          9           0        0.074212    0.000217   -2.294735
     11          9           0       -1.947041    0.107488   -1.539862
     12          1           0        2.497681    2.025765    0.220844
 ---------------------------------------------------------------------

 SCF Done:  E(RwB97XD) =  -1199.60357455     A.U. after    1 cycles

 Isotropic polarizability for W=    0.000000       61.96 Bohr**3.
 End of Minotr F.D. properties file   721 does not exist.

                      1                      2                      3
                      A                      A                      A
 Frequencies --     39.0830                82.2726               104.7725
 Red. masses --     13.0233                11.7709                16.3074
 Frc consts  --      0.0117                 0.0469                 0.1055
 IR Inten    --      1.4689                 3.3321                 1.6537

                      4                      5                      6
                      A                      A                      A
 Frequencies --    141.2139               157.1737               191.0333
 Red. masses --     14.3065                12.0695                12.3894
 Frc consts  --      0.1681                 0.1757                 0.2664
 IR Inten    --      0.2334                 6.5769                 7.9683

                      7                      8                      9
                      A                      A                      A
 Frequencies --    205.6371               232.0419               251.4186
 Red. masses --      2.1470                 6.5242                 3.6577
 Frc consts  --      0.0535                 0.2070                 0.1362
 IR Inten    --     65.5032                23.5760                19.9959

                     10                     11                     12
                      A                      A                      A
 Frequencies --    286.3327               321.4515               357.7590
 Red. masses --     16.7507                 8.1271                12.2401
 Frc consts  --      0.8091                 0.4948                 0.9230
 IR Inten    --      1.3874                10.2345                 1.2913

                     13                     14                     15
                      A                      A                      A
 Frequencies --    407.8449               430.7842               476.1157
 Red. masses --      9.8166                14.1859                14.4962
 Frc consts  --      0.9621                 1.5511                 1.9361
 IR Inten    --     26.8899                13.7203                12.0021

                     16                     17                     18
                      A                      A                      A
 Frequencies --    533.3247               557.9912               595.8373
 Red. masses --     17.9047                17.3614                17.5459
 Frc consts  --      3.0005                 3.1849                 3.6701
 IR Inten    --     11.5120                35.2967                23.9122

                     19                     20                     21
                      A                      A                      A
 Frequencies --    630.2109               720.9736               757.1384
 Red. masses --     16.6322                15.1581                16.6277
 Frc consts  --      3.8920                 4.6423                 5.6161
 IR Inten    --      3.8892               130.1218                49.6325

                     22                     23                     24
                      A                      A                      A
 Frequencies --    974.7655               996.3395              1102.4790
 Red. masses --      9.2821                 9.2413                 1.2346
 Frc consts  --      5.1963                 5.4050                 0.8842
 IR Inten    --    221.1044                69.1742                74.4044

                     25                     26                     27
                      A                      A                      A
 Frequencies --   1213.3588              1224.8978              1245.9981
 Red. masses --     12.6543                13.0443                15.8741
 Frc consts  --     10.9766                11.5311                14.5203
 IR Inten    --    149.2159               221.6010                81.4132

                     28                     29                     30
                      A                      A                      A
 Frequencies --   1276.2420              1327.5927              3878.7576
 Red. masses --     14.2678                12.5458                 1.0674
 Frc consts  --     13.6922                13.0280                 9.4613
 IR Inten    --    482.7893               130.7402               163.6931

 - Thermochemistry -
 -------------------
 Temperature   298.150 Kelvin.  Pressure   1.00000 Atm.
 Atom     1 has atomic number  6 and mass  12.00000

 Molecular mass:   199.95666 amu.
 Principal axes and moments of inertia in atomic units:
                           1         2         3
     Eigenvalues --  1443.770901924.723612383.91876
           X            0.70891   0.66903  -0.22326
           Y           -0.36371   0.61799   0.69700
           Z            0.60429  -0.41290   0.68143
 This molecule is an asymmetric top.
 Rotational symmetry number  1.
 Warning -- assumption of classical behavior for rotation
           may cause significant error
 Rotational temperatures (Kelvin)      0.05999     0.04500     0.03633
 Rotational constants (GHZ):           1.25002     0.93766     0.75705
 Zero-point vibrational energy     123938.2 (Joules/Mol)
                                   29.62193 (Kcal/Mol)
 Warning -- explicit consideration of  18 degrees of freedom as
           vibrations may cause significant error
 Vibrational temperatures:     56.23   118.37   150.74   203.18   226.14
          (Kelvin)            274.85   295.87   333.86   361.74   411.97
                              462.50   514.74   586.80   619.80   685.02
                              767.34   802.82   857.28   906.73  1037.32
                             1089.35  1402.47  1433.51  1586.22  1745.75
                             1762.35  1792.71  1836.23  1910.11  5580.67

 Zero-point correction=                           0.047206 (Hartree/Particle)
 Thermal correction to Energy=                    0.058871
 Thermal correction to Enthalpy=                  0.059815
 Thermal correction to Gibbs Free Energy=         0.008893
 Sum of electronic and zero-point Energies=          -1199.556369
 Sum of electronic and thermal Energies=             -1199.544704
 Sum of electronic and thermal Enthalpies=           -1199.543760
 Sum of electronic and thermal Free Energies=        -1199.594681

                     E (Thermal)             CV                S
                      KCal/Mol        Cal/Mol-Kelvin    Cal/Mol-Kelvin
 Total                   36.942             39.686            107.173
 Electronic               0.000              0.000              0.000
 Translational            0.889              2.981             41.783
 Rotational               0.889              2.981             30.272
 Vibrational             35.165             33.725             35.118
 Vibration     1          0.594              1.981              5.305
 Vibration     2          0.600              1.961              3.836
 Vibration     3          0.605              1.945              3.364
 Vibration     4          0.615              1.912              2.787
 Vibration     5          0.621              1.895              2.584
 Vibration     6          0.634              1.852              2.218
 Vibration     7          0.640              1.832              2.082
 Vibration     8          0.653              1.792              1.863
 Vibration     9          0.663              1.760              1.721
 Vibration    10          0.684              1.699              1.496
 Vibration    11          0.707              1.632              1.303
 Vibration    12          0.733              1.559              1.132
 Vibration    13          0.772              1.453              0.934
 Vibration    14          0.792              1.403              0.856
 Vibration    15          0.833              1.303              0.721
 Vibration    16          0.888              1.176              0.580
 Vibration    17          0.914              1.122              0.528
 Vibration    18          0.954              1.041              0.457

 Optimization completed.
    -- Stationary point found.
 Normal termination of Gaussian 16 at Fri May 23 07:38:50 2025.
