 Gaussian 16, Revision C.01,
 Gaussian 16:  ES64L-G16RevC.01  3-Jul-2019

 ----------------------------------------------------------------------
 #P wb97xd/6-311++G(d,p) Symm(None) scf(xqc) pop(None) opt(NoFreeze,TS,
 CalcAll,NoEigentest,MaxCycle=999)
 ----------------------------------------------------------------------

 ------------------------------
 Gaussian input prepared by ASE
 ------------------------------
 Symbolic Z-matrix:
 Charge =  0 Multiplicity = 1

 SCF Done:  E(RwB97XD) =  -1199.57990384     A.U. after   29 cycles
 SCF Done:  E(RwB97XD) =  -1199.59125018     A.U. after   25 cycles
 SCF Done:  E(RwB97XD) =  -1199.59451075     A.U. after   22 cycles
 SCF Done:  E(RwB97XD) =  -1199.59626317     A.U. after   21 cycles
 SCF Done:  E(RwB97XD) =  -1199.59651012     A.U. after   21 cycles
 SCF Done:  E(RwB97XD) =  -1199.59651381     A.U. after   20 cycles

 Isotropic polarizability for W=    0.000000       74.43 Bohr**3.
 End of Minotr F.D. properties file   721 does not exist.

 Optimization completed.
    -- Stationary point found.

                          Input orientation:
 ---------------------------------------------------------------------
 Center     Atomic      Atomic             Coordinates (Angstroms)
 Number     Number       Type             X           Y           Z
 ---------------------------------------------------------------------
      1          6           0       -0.592155   -1.449616   -0.148843
      2          6           0       -0.038669   -0.021264    0.044552
      3          9           0       -0.570387    0.816408   -0.829749
      4          9           0       -0.310625    0.398920    1.294711
      5         16           0        1.887584    0.050968    0.026099
      6          8           0        1.348627    1.176956    2.396436
      7          8           0        2.358098   -0.532072   -1.218732
      8          8           0        1.961262    1.657178   -0.107834
      9          9           0       -0.449412   -1.825258   -1.408969
     10          9           0        0.079814   -2.287529    0.640108
     11          9           0       -1.879836   -1.494394    0.174320
     12          1           0        1.907647    1.977460    0.820234
 ---------------------------------------------------------------------

 ******    1 imaginary frequencies (negative Signs) ******

                      1                      2                      3
                      A                      A                      A
 Frequencies --   -298.0179                51.3701                61.1527
 Red. masses --     17.0838                16.9602                16.2414
 Frc consts  --      0.8940                 0.0264                 0.0358
 IR Inten    --     58.7630                 0.3190                 0.0656

                      4                      5                      6
                      A                      A                      A
 Frequencies --    121.6017               156.4604               196.4982
 Red. masses --     16.3005                10.7511                14.3662
 Frc consts  --      0.1420                 0.1551                 0.3268
 IR Inten    --      0.5494                 6.9546                 9.8278

                      7                      8                      9
                      A                      A                      A
 Frequencies --    226.8203               236.2758               270.8777
 Red. masses --     17.5439                14.5617                15.3415
 Frc consts  --      0.5318                 0.4790                 0.6632
 IR Inten    --      2.8877                 2.4194                 5.2977

                     10                     11                     12
                      A                      A                      A
 Frequencies --    286.8084               342.7000               375.8821
 Red. masses --     11.5869                17.6944                18.3562
 Frc consts  --      0.5616                 1.2244                 1.5280
 IR Inten    --      7.1765                 1.2479                 1.1620

                     13                     14                     15
                      A                      A                      A
 Frequencies --    409.3628               438.6292               506.2948
 Red. masses --     15.3919                11.6702                16.1939
 Frc consts  --      1.5197                 1.3229                 2.4457
 IR Inten    --     16.1126                19.2947                34.2480

                     16                     17                     18
                      A                      A                      A
 Frequencies --    544.5008               601.4003               634.1429
 Red. masses --     17.8525                17.5944                 6.7019
 Frc consts  --      3.1185                 3.7493                 1.5879
 IR Inten    --      2.0175                 6.2524                42.9741

                     19                     20                     21
                      A                      A                      A
 Frequencies --    641.8755               759.5630               785.4816
 Red. masses --      1.1993                16.5198                 9.7163
 Frc consts  --      0.2911                 5.6154                 3.5320
 IR Inten    --     92.6671                32.2801                89.1392

                     22                     23                     24
                      A                      A                      A
 Frequencies --    938.2741              1094.9690              1180.7784
 Red. masses --     13.1642                12.7198                 1.4601
 Frc consts  --      6.8282                 8.9853                 1.1994
 IR Inten    --    101.0316                33.2952               199.8913

                     25                     26                     27
                      A                      A                      A
 Frequencies --   1224.1189              1229.8010              1248.2189
 Red. masses --     12.3171                10.3156                10.1575
 Frc consts  --     10.8744                 9.1921                 9.3243
 IR Inten    --    319.8044                64.0529               132.7931

                     28                     29                     30
                      A                      A                      A
 Frequencies --   1277.9883              1351.0336              3507.0927
 Red. masses --      6.5519                12.2694                 1.0645
 Frc consts  --      6.3048                13.1949                 7.7143
 IR Inten    --    270.5986               218.3125                 5.2511

 - Thermochemistry -
 -------------------
 Temperature   298.150 Kelvin.  Pressure   1.00000 Atm.
 Atom     1 has atomic number  6 and mass  12.00000

 Molecular mass:   199.95666 amu.
 Principal axes and moments of inertia in atomic units:
                           1         2         3
     Eigenvalues --  1293.904022212.428552582.54748
           X            0.71713  -0.52587  -0.45737
           Y            0.66870   0.33427   0.66415
           Z            0.19638   0.78212  -0.59137
 This molecule is an asymmetric top.
 Rotational symmetry number  1.
 Warning -- assumption of classical behavior for rotation
           may cause significant error
 Rotational temperatures (Kelvin)      0.06694     0.03915     0.03354
 Rotational constants (GHZ):           1.39480     0.81573     0.69882
    1 imaginary frequencies ignored.
 Zero-point vibrational energy     123813.3 (Joules/Mol)
                                   29.59210 (Kcal/Mol)
 Warning -- explicit consideration of  16 degrees of freedom as
           vibrations may cause significant error
 Vibrational temperatures:     73.91    87.99   174.96   225.11   282.72
          (Kelvin)            326.34   339.95   389.73   412.65   493.07
                              540.81   588.98   631.09   728.45   783.42
                              865.28   912.39   923.52  1092.84  1130.13
                             1349.97  1575.42  1698.88  1761.23  1769.41
                             1795.91  1838.74  1943.84  5045.92

 Zero-point correction=                           0.047158 (Hartree/Particle)
 Thermal correction to Energy=                    0.057906
 Thermal correction to Enthalpy=                  0.058850
 Thermal correction to Gibbs Free Energy=         0.009775
 Sum of electronic and zero-point Energies=          -1199.549356
 Sum of electronic and thermal Energies=             -1199.538608
 Sum of electronic and thermal Enthalpies=           -1199.537664
 Sum of electronic and thermal Free Energies=        -1199.586739

                     E (Thermal)             CV                S
                      KCal/Mol        Cal/Mol-Kelvin    Cal/Mol-Kelvin
 Total                   36.336             37.044            103.287
 Electronic               0.000              0.000              0.000
 Translational            0.889              2.981             41.783
 Rotational               0.889              2.981             30.381
 Vibrational             34.559             31.082             31.123
 Vibration     1          0.596              1.977              4.764
 Vibration     2          0.597              1.973              4.420
 Vibration     3          0.609              1.931              3.075
 Vibration     4          0.620              1.895              2.592
 Vibration     5          0.636              1.845              2.166
 Vibration     6          0.650              1.800              1.904
 Vibration     7          0.655              1.785              1.831
 Vibration     8          0.675              1.727              1.591
 Vibration     9          0.684              1.698              1.493
 Vibration    10          0.722              1.590              1.200
 Vibration    11          0.747              1.521              1.056
 Vibration    12          0.774              1.450              0.929
 Vibration    13          0.799              1.386              0.831
 Vibration    14          0.862              1.236              0.643
 Vibration    15          0.900              1.152              0.556
 Vibration    16          0.960              1.029              0.447

 Normal termination of Gaussian 16 at Fri May 23 07:47:22 2025.
