 Gaussian 16, Revision C.01,
 Gaussian 16:  ES64L-G16RevC.01  3-Jul-2019

 ----------------------------------------------------------------------
 #P wb97xd/6-311++G(d,p) Symm(None) scf(xqc) pop(None) opt(NoFreeze,TS,
 CalcAll,NoEigentest,MaxCycle=999)
 ----------------------------------------------------------------------

 ------------------------------
 Gaussian input prepared by ASE
 ------------------------------
 Symbolic Z-matrix:
 Charge =  0 Multiplicity = 1

 SCF Done:  E(RwB97XD) =  -1199.60619839     A.U. after   20 cycles
 SCF Done:  E(RwB97XD) =  -1199.63501527     A.U. after   17 cycles
 SCF Done:  E(RwB97XD) =  -1199.65776015     A.U. after   17 cycles
 SCF Done:  E(RwB97XD) =  -1199.66297129     A.U. after   16 cycles
 SCF Done:  E(RwB97XD) =  -1199.66363077     A.U. after   15 cycles
 SCF Done:  E(RwB97XD) =  -1199.66366804     A.U. after   14 cycles
 SCF Done:  E(RwB97XD) =  -1199.66366991     A.U. after   12 cycles
 SCF Done:  E(RwB97XD) =  -1199.66366992     A.U. after   10 cycles

 Isotropic polarizability for W=    0.000000       72.61 Bohr**3.
 End of Minotr F.D. properties file   721 does not exist.

 Optimization completed.
    -- Stationary point found.

                          Input orientation:
 ---------------------------------------------------------------------
 Center     Atomic      Atomic             Coordinates (Angstroms)
 Number     Number       Type             X           Y           Z
 ---------------------------------------------------------------------
      1          6           0       -0.259470   -1.227003    0.124741
      2          6           0        0.132512    0.111878    0.043087
      3          9           0       -0.100243    0.742161   -1.089862
      4          9           0       -0.090275    0.862337    1.113140
      5         16           0        2.512497   -0.213505   -0.000111
      6          8           0        3.324160   -0.332329    1.184309
      7          8           0        2.810653   -0.515462   -1.366767
      8          8           0        2.290093    1.428145   -0.064841
      9          9           0       -0.579295   -1.777515    1.229240
     10          9           0        1.723703   -1.891656    0.333361
     11          9           0       -0.465553   -1.924944   -0.920123
     12          1           0        2.472769    1.786393    0.813250
 ---------------------------------------------------------------------

 ******    1 imaginary frequencies (negative Signs) ******

                      1                      2                      3
                      A                      A                      A
 Frequencies --   -574.9248                32.7920                61.7005
 Red. masses --     12.7370                15.3956                12.1409
 Frc consts  --      2.4805                 0.0098                 0.0272
 IR Inten    --    194.2994                 1.8054                 2.7077

                      4                      5                      6
                      A                      A                      A
 Frequencies --    160.7038               170.2783               203.1525
 Red. masses --     18.7797                17.1108                17.4700
 Frc consts  --      0.2858                 0.2923                 0.4248
 IR Inten    --     17.3297                10.9212                 0.1751

                      7                      8                      9
                      A                      A                      A
 Frequencies --    211.1001               240.4484               274.3239
 Red. masses --     17.4721                15.8881                11.0479
 Frc consts  --      0.4587                 0.5412                 0.4898
 IR Inten    --      1.9798                 3.1829                 8.2123

                     10                     11                     12
                      A                      A                      A
 Frequencies --    318.8625               371.2384               388.6166
 Red. masses --      8.4627                 1.8816                12.9483
 Frc consts  --      0.5070                 0.1528                 1.1521
 IR Inten    --      9.8355                31.4873                15.8171

                     13                     14                     15
                      A                      A                      A
 Frequencies --    406.7301               444.1208               481.7815
 Red. masses --     15.7185                 5.3756                 3.6732
 Frc consts  --      1.5321                 0.6247                 0.5023
 IR Inten    --     27.3082               224.1196                 3.6942

                     16                     17                     18
                      A                      A                      A
 Frequencies --    512.6034               548.3415               559.9761
 Red. masses --      9.9295                16.7452                14.2921
 Frc consts  --      1.5372                 2.9665                 2.6405
 IR Inten    --    240.7401                 1.3712               140.6147

                     19                     20                     21
                      A                      A                      A
 Frequencies --    594.4284               646.2191               717.8569
 Red. masses --     16.5383                13.2634                16.7245
 Frc consts  --      3.4430                 3.2633                 5.0778
 IR Inten    --      4.2495                 9.0874               183.0164

                     22                     23                     24
                      A                      A                      A
 Frequencies --    812.9190              1116.6673              1149.3234
 Red. masses --     17.7503                10.5451                 1.2589
 Frc consts  --      6.9112                 7.7472                 0.9798
 IR Inten    --     59.2194               230.6597                98.5575

                     25                     26                     27
                      A                      A                      A
 Frequencies --   1209.7464              1305.9604              1422.6365
 Red. masses --     13.7540                13.1081                12.3526
 Frc consts  --     11.8595                13.1719                14.7298
 IR Inten    --    321.4638               155.4680               189.7882

                     28                     29                     30
                      A                      A                      A
 Frequencies --   1478.8661              1606.0591              3838.2766
 Red. masses --     13.2361                12.4007                 1.0664
 Frc consts  --     17.0557                18.8460                 9.2561
 IR Inten    --    339.4550               812.5452               166.0076

 - Thermochemistry -
 -------------------
 Temperature   298.150 Kelvin.  Pressure   1.00000 Atm.
 Atom     1 has atomic number  6 and mass  12.00000

 Molecular mass:   199.95666 amu.
 Principal axes and moments of inertia in atomic units:
                           1         2         3
     Eigenvalues --  1312.162082074.125062351.84254
           X            0.93554  -0.35322   0.00190
           Y            0.35181   0.93227   0.08430
           Z           -0.03155  -0.07819   0.99644
 This molecule is an asymmetric top.
 Rotational symmetry number  1.
 Warning -- assumption of classical behavior for rotation
           may cause significant error
 Rotational temperatures (Kelvin)      0.06601     0.04176     0.03683
 Rotational constants (GHZ):           1.37540     0.87012     0.76737
    1 imaginary frequencies ignored.
 Zero-point vibrational energy     127316.9 (Joules/Mol)
                                   30.42948 (Kcal/Mol)
 Warning -- explicit consideration of  18 degrees of freedom as
           vibrations may cause significant error
 Vibrational temperatures:     47.18    88.77   231.22   244.99   292.29
          (Kelvin)            303.73   345.95   394.69   458.77   534.13
                              559.13   585.19   638.99   693.18   737.52
                              788.94   805.68   855.25   929.77  1032.84
                             1169.61  1606.64  1653.62  1740.56  1878.99
                             2046.86  2127.76  2310.76  5522.42

 Zero-point correction=                           0.048492 (Hartree/Particle)
 Thermal correction to Energy=                    0.059314
 Thermal correction to Enthalpy=                  0.060258
 Thermal correction to Gibbs Free Energy=         0.011015
 Sum of electronic and zero-point Energies=          -1199.615177
 Sum of electronic and thermal Energies=             -1199.604356
 Sum of electronic and thermal Enthalpies=           -1199.603412
 Sum of electronic and thermal Free Energies=        -1199.652654

                     E (Thermal)             CV                S
                      KCal/Mol        Cal/Mol-Kelvin    Cal/Mol-Kelvin
 Total                   37.220             37.596            103.640
 Electronic               0.000              0.000              0.000
 Translational            0.889              2.981             41.783
 Rotational               0.889              2.981             30.238
 Vibrational             35.443             31.635             31.619
 Vibration     1          0.594              1.983              5.653
 Vibration     2          0.597              1.973              4.402
 Vibration     3          0.622              1.891              2.541
 Vibration     4          0.625              1.879              2.432
 Vibration     5          0.639              1.835              2.104
 Vibration     6          0.643              1.824              2.034
 Vibration     7          0.658              1.778              1.800
 Vibration     8          0.677              1.721              1.569
 Vibration     9          0.705              1.638              1.316
 Vibration    10          0.743              1.531              1.075
 Vibration    11          0.757              1.495              1.005
 Vibration    12          0.772              1.456              0.938
 Vibration    13          0.804              1.374              0.814
 Vibration    14          0.838              1.290              0.705
 Vibration    15          0.868              1.222              0.627
 Vibration    16          0.904              1.143              0.548
 Vibration    17          0.916              1.118              0.524
 Vibration    18          0.952              1.044              0.459

 Normal termination of Gaussian 16 at Fri May 23 05:05:33 2025.
