 Gaussian 16, Revision C.01,
 Gaussian 16:  ES64L-G16RevC.01  3-Jul-2019

 ----------------------------------------------------------------------
 #P wb97xd/6-311++G(d,p) Symm(None) scf(xqc) pop(None) opt(NoFreeze,TS,
 CalcAll,NoEigentest,MaxCycle=999)
 ----------------------------------------------------------------------

 ------------------------------
 Gaussian input prepared by ASE
 ------------------------------
 Symbolic Z-matrix:
 Charge =  0 Multiplicity = 1

 SCF Done:  E(RwB97XD) =  -1199.64508143     A.U. after   21 cycles
 SCF Done:  E(RwB97XD) =  -1199.64508191     A.U. after   13 cycles

 Isotropic polarizability for W=    0.000000       68.86 Bohr**3.
 End of Minotr F.D. properties file   721 does not exist.

 Optimization completed.
    -- Stationary point found.

                          Input orientation:
 ---------------------------------------------------------------------
 Center     Atomic      Atomic             Coordinates (Angstroms)
 Number     Number       Type             X           Y           Z
 ---------------------------------------------------------------------
      1          6           0       -0.818012    0.550859    1.190548
      2          6           0        0.000031    0.001193   -0.000109
      3          9           0       -0.325731   -1.282357   -0.206051
      4          9           0       -0.312114    0.702844   -1.098460
      5         16           0        2.041877   -0.000291    0.000366
      6          8           0        1.950908   -0.512910    1.456241
      7          8           0        3.534137   -0.267882    0.578895
      8          8           0        2.055942    1.620991   -0.001666
      9          9           0       -0.641915   -0.204788    2.267946
     10          9           0       -0.451953    1.797510    1.472657
     11          9           0       -2.117780    0.552004    0.886423
     12          1           0        2.888301    1.927707    0.380076
 ---------------------------------------------------------------------

 ******    1 imaginary frequencies (negative Signs) ******

                      1                      2                      3
                      A                      A                      A
 Frequencies --   -870.9578                39.4660                76.9958
 Red. masses --     18.0280                15.3519                14.0867
 Frc consts  --      8.0573                 0.0141                 0.0492
 IR Inten    --    395.8109                 0.3022                 0.6033

                      4                      5                      6
                      A                      A                      A
 Frequencies --    109.2960               159.4916               202.6615
 Red. masses --     14.0549                11.2344                 6.2122
 Frc consts  --      0.0989                 0.1684                 0.1503
 IR Inten    --      0.7443                 2.3729                10.7557

                      7                      8                      9
                      A                      A                      A
 Frequencies --    223.1963               231.7651               275.0089
 Red. masses --     18.0868                12.7481                 3.1114
 Frc consts  --      0.5309                 0.4035                 0.1386
 IR Inten    --      1.0649                 1.0968                36.6844

                     10                     11                     12
                      A                      A                      A
 Frequencies --    292.8177               319.4151               358.5482
 Red. masses --     17.8038                 1.9055                16.5164
 Frc consts  --      0.8994                 0.1145                 1.2510
 IR Inten    --      2.5059                66.5989                11.2621

                     13                     14                     15
                      A                      A                      A
 Frequencies --    381.4998               431.9794               444.6274
 Red. masses --     13.9166                 7.0918                15.1748
 Frc consts  --      1.1934                 0.7797                 1.7675
 IR Inten    --     17.4581                31.5022                 0.2339

                     16                     17                     18
                      A                      A                      A
 Frequencies --    540.4298               593.3054               633.1952
 Red. masses --     17.7635                17.7400                17.1985
 Frc consts  --      3.0567                 3.6793                 4.0627
 IR Inten    --      4.1800                 0.9650                 6.8617

                     19                     20                     21
                      A                      A                      A
 Frequencies --    687.6329               749.3750               804.6141
 Red. masses --     17.0094                16.6778                17.0306
 Frc consts  --      4.7386                 5.5181                 6.4961
 IR Inten    --    103.4088                28.1330               138.8832

                     22                     23                     24
                      A                      A                      A
 Frequencies --    922.2123              1012.9741              1126.9988
 Red. masses --     13.5280                13.9168                 3.8992
 Frc consts  --      6.7787                 8.4137                 2.9179
 IR Inten    --    123.7243                55.0142               194.1532

                     25                     26                     27
                      A                      A                      A
 Frequencies --   1139.1652              1192.8373              1214.6017
 Red. masses --      1.7478                 6.0864                13.0758
 Frc consts  --      1.3363                 5.1024                11.3654
 IR Inten    --    130.6592                84.4826               255.9707

                     28                     29                     30
                      A                      A                      A
 Frequencies --   1242.8166              1324.1063              3833.7352
 Red. masses --     13.1110                12.1112                 1.0662
 Frc consts  --     11.9317                12.5107                 9.2324
 IR Inten    --    305.5058               304.3160               150.1351

 - Thermochemistry -
 -------------------
 Temperature   298.150 Kelvin.  Pressure   1.00000 Atm.
 Atom     1 has atomic number  6 and mass  12.00000

 Molecular mass:   199.95666 amu.
 Principal axes and moments of inertia in atomic units:
                           1         2         3
     Eigenvalues --  1106.569732436.869342497.82405
           X            0.98223   0.16610   0.08738
           Y           -0.09549   0.04150   0.99456
           Z           -0.16157   0.98523  -0.05663
 This molecule is an asymmetric top.
 Rotational symmetry number  1.
 Warning -- assumption of classical behavior for rotation
           may cause significant error
 Rotational temperatures (Kelvin)      0.07827     0.03554     0.03468
 Rotational constants (GHZ):           1.63093     0.74060     0.72253
    1 imaginary frequencies ignored.
 Zero-point vibrational energy     123004.6 (Joules/Mol)
                                   29.39881 (Kcal/Mol)
 Warning -- explicit consideration of  16 degrees of freedom as
           vibrations may cause significant error
 Vibrational temperatures:     56.78   110.78   157.25   229.47   291.58
          (Kelvin)            321.13   333.46   395.68   421.30   459.57
                              515.87   548.89   621.52   639.72   777.56
                              853.63   911.03   989.35  1078.18  1157.66
                             1326.86  1457.44  1621.50  1639.00  1716.23
                             1747.54  1788.14  1905.09  5515.89

 Zero-point correction=                           0.046850 (Hartree/Particle)
 Thermal correction to Energy=                    0.057740
 Thermal correction to Enthalpy=                  0.058685
 Thermal correction to Gibbs Free Energy=         0.009321
 Sum of electronic and zero-point Energies=          -1199.598232
 Sum of electronic and thermal Energies=             -1199.587342
 Sum of electronic and thermal Enthalpies=           -1199.586397
 Sum of electronic and thermal Free Energies=        -1199.635761

                     E (Thermal)             CV                S
                      KCal/Mol        Cal/Mol-Kelvin    Cal/Mol-Kelvin
 Total                   36.233             37.522            103.895
 Electronic               0.000              0.000              0.000
 Translational            0.889              2.981             41.783
 Rotational               0.889              2.981             30.289
 Vibrational             34.455             31.560             31.823
 Vibration     1          0.594              1.981              5.286
 Vibration     2          0.599              1.964              3.966
 Vibration     3          0.606              1.942              3.281
 Vibration     4          0.621              1.892              2.556
 Vibration     5          0.639              1.836              2.109
 Vibration     6          0.649              1.806              1.933
 Vibration     7          0.653              1.792              1.865
 Vibration     8          0.677              1.720              1.565
 Vibration     9          0.688              1.687              1.458
 Vibration    10          0.705              1.636              1.313
 Vibration    11          0.733              1.558              1.128
 Vibration    12          0.751              1.510              1.033
 Vibration    13          0.793              1.401              0.852
 Vibration    14          0.804              1.373              0.812
 Vibration    15          0.895              1.161              0.564
 Vibration    16          0.951              1.046              0.461

 Normal termination of Gaussian 16 at Fri May 23 04:39:40 2025.
