 Gaussian 16, Revision C.01,
 Gaussian 16:  ES64L-G16RevC.01  3-Jul-2019

 ----------------------------------------------------------------------
 #P wb97xd/6-311++G(d,p) Symm(None) scf(xqc) pop(None) freq opt(CalcFC,
  Tight)
 ----------------------------------------------------------------------

 ------------------------------
 Gaussian input prepared by ASE
 ------------------------------
 Symbolic Z-matrix:
 Charge =  0 Multiplicity = 1

 SCF Done:  E(RwB97XD) =  -1199.57115025     A.U. after   20 cycles
 SCF Done:  E(RwB97XD) =  -1199.57584022     A.U. after   18 cycles
 SCF Done:  E(RwB97XD) =  -1199.58087978     A.U. after   18 cycles
 SCF Done:  E(RwB97XD) =  -1199.59567757     A.U. after   19 cycles
 SCF Done:  E(RwB97XD) =  -1199.59303048     A.U. after   20 cycles
 SCF Done:  E(RwB97XD) =  -1199.59986795     A.U. after   19 cycles
 SCF Done:  E(RwB97XD) =  -1199.60033656     A.U. after   18 cycles
 SCF Done:  E(RwB97XD) =  -1199.60153521     A.U. after   18 cycles
 SCF Done:  E(RwB97XD) =  -1199.60181269     A.U. after   17 cycles
 SCF Done:  E(RwB97XD) =  -1199.60197815     A.U. after   17 cycles
 SCF Done:  E(RwB97XD) =  -1199.60314568     A.U. after   15 cycles
 SCF Done:  E(RwB97XD) =  -1199.60315135     A.U. after   15 cycles
 SCF Done:  E(RwB97XD) =  -1199.60315430     A.U. after   15 cycles
 SCF Done:  E(RwB97XD) =  -1199.60315458     A.U. after   12 cycles
 SCF Done:  E(RwB97XD) =  -1199.60315460     A.U. after   10 cycles
 SCF Done:  E(RwB97XD) =  -1199.60315460     A.U. after    9 cycles
 SCF Done:  E(RwB97XD) =  -1199.60315460     A.U. after    5 cycles
 SCF Done:  E(RwB97XD) =  -1199.60315460     A.U. after    5 cycles
 SCF Done:  E(RwB97XD) =  -1199.60315460     A.U. after    4 cycles
 Optimization completed.
    -- Stationary point found.
 Normal termination of Gaussian 16 at Fri May 23 07:42:02 2025.

 ----------------------------------------------------------------------
 #P Geom=AllCheck Guess=TCheck SCRF=Check GenChk RwB97XD/6-311++G(d,p)
 Freq
 ----------------------------------------------------------------------

 Structure from the checkpoint file:  "/tmp/Gau-83657.chk"
 ------------------------------
 Gaussian input prepared by ASE
 ------------------------------
 Charge =  0 Multiplicity = 1

                          Input orientation:
 ---------------------------------------------------------------------
 Center     Atomic      Atomic             Coordinates (Angstroms)
 Number     Number       Type             X           Y           Z
 ---------------------------------------------------------------------
      1          6           0       -0.741480    0.946418    1.106600
      2          6           0       -0.077197    0.142136   -0.047408
      3          9           0       -0.554063   -1.082327   -0.105949
      4          9           0       -0.309848    0.766566   -1.270852
      5         16           0        1.843240    0.010702    0.062963
      6          8           0       -1.946573    1.036669   -1.605679
      7          8           0        2.194011   -0.628479   -1.201931
      8          8           0        2.101140    1.622465   -0.013791
      9          9           0       -0.051246    0.663081    2.222538
     10          9           0       -0.667778    2.246089    0.880502
     11          9           0       -1.995516    0.590672    1.296465
     12          1           0        1.869824    1.988565   -0.880188
 ---------------------------------------------------------------------

 SCF Done:  E(RwB97XD) =  -1199.60315460     A.U. after    1 cycles

 Isotropic polarizability for W=    0.000000       63.08 Bohr**3.
 End of Minotr F.D. properties file   721 does not exist.

                      1                      2                      3
                      A                      A                      A
 Frequencies --     53.3611                67.9519                79.9530
 Red. masses --     10.3524                17.5457                15.6884
 Frc consts  --      0.0174                 0.0477                 0.0591
 IR Inten    --      0.7795                 0.3906                 1.6947

                      4                      5                      6
                      A                      A                      A
 Frequencies --    131.4898               139.0805               188.5738
 Red. masses --     17.3278                12.6253                 9.7250
 Frc consts  --      0.1765                 0.1439                 0.2038
 IR Inten    --      3.2280                 4.0013                 2.6891

                      7                      8                      9
                      A                      A                      A
 Frequencies --    221.9738               238.2359               259.4856
 Red. masses --     15.1558                17.2549                 9.2512
 Frc consts  --      0.4400                 0.5770                 0.3670
 IR Inten    --      2.7553                 3.1454                 6.7041

                     10                     11                     12
                      A                      A                      A
 Frequencies --    316.7271               347.0682               362.5375
 Red. masses --      8.8204                 2.4232                10.3889
 Frc consts  --      0.5213                 0.1720                 0.8045
 IR Inten    --      4.1605                21.3262                 4.7482

                     13                     14                     15
                      A                      A                      A
 Frequencies --    415.5117               447.1847               474.3420
 Red. masses --     15.7650                12.1731                 2.3380
 Frc consts  --      1.6037                 1.4343                 0.3099
 IR Inten    --      3.6856                 5.2095               163.0842

                     16                     17                     18
                      A                      A                      A
 Frequencies --    536.5544               542.5833               593.1086
 Red. masses --     14.0694                17.2144                17.2087
 Frc consts  --      2.3865                 2.9859                 3.5667
 IR Inten    --     98.4923                 4.3962                15.6818

                     19                     20                     21
                      A                      A                      A
 Frequencies --    630.2456               757.6456               769.6379
 Red. masses --     17.4088                17.0189                15.7501
 Frc consts  --      4.0742                 5.7559                 5.4968
 IR Inten    --     24.2798                26.7397               155.8028

                     22                     23                     24
                      A                      A                      A
 Frequencies --    958.7259              1021.0248              1114.1705
 Red. masses --     13.1205                13.1253                 1.2664
 Frc consts  --      7.1054                 8.0618                 0.9263
 IR Inten    --     50.6712               181.6496                58.6909

                     25                     26                     27
                      A                      A                      A
 Frequencies --   1183.4564              1233.4505              1248.5388
 Red. masses --     13.0774                10.3757                10.4029
 Frc consts  --     10.7913                 9.3006                 9.5545
 IR Inten    --    166.2864               122.5735               369.8329

                     28                     29                     30
                      A                      A                      A
 Frequencies --   1274.7909              1349.9919              3785.9400
 Red. masses --     12.9976                12.8810                 1.0659
 Frc consts  --     12.4449                13.8312                 9.0016
 IR Inten    --    216.4517               146.4318               106.7485

 - Thermochemistry -
 -------------------
 Temperature   298.150 Kelvin.  Pressure   1.00000 Atm.
 Atom     1 has atomic number  6 and mass  12.00000

 Molecular mass:   199.95666 amu.
 Principal axes and moments of inertia in atomic units:
                           1         2         3
     Eigenvalues --  1353.618882118.679432461.44186
           X            0.91914   0.36991   0.13546
           Y           -0.24185   0.25847   0.93525
           Z           -0.31095   0.89239  -0.32703
 This molecule is an asymmetric top.
 Rotational symmetry number  1.
 Warning -- assumption of classical behavior for rotation
           may cause significant error
 Rotational temperatures (Kelvin)      0.06399     0.04088     0.03519
 Rotational constants (GHZ):           1.33327     0.85182     0.73320
 Zero-point vibrational energy     124072.7 (Joules/Mol)
                                   29.65410 (Kcal/Mol)
 Warning -- explicit consideration of  18 degrees of freedom as
           vibrations may cause significant error
 Vibrational temperatures:     76.77    97.77   115.03   189.18   200.11
          (Kelvin)            271.32   319.37   342.77   373.34   455.70
                              499.35   521.61   597.83   643.40   682.47
                              771.98   780.66   853.35   906.78  1090.08
                             1107.34  1379.39  1469.03  1603.04  1702.73
                             1774.66  1796.37  1834.14  1942.34  5447.12

 Zero-point correction=                           0.047257 (Hartree/Particle)
 Thermal correction to Energy=                    0.058875
 Thermal correction to Enthalpy=                  0.059819
 Thermal correction to Gibbs Free Energy=         0.008853
 Sum of electronic and zero-point Energies=          -1199.555898
 Sum of electronic and thermal Energies=             -1199.544280
 Sum of electronic and thermal Enthalpies=           -1199.543336
 Sum of electronic and thermal Free Energies=        -1199.594302

                     E (Thermal)             CV                S
                      KCal/Mol        Cal/Mol-Kelvin    Cal/Mol-Kelvin
 Total                   36.944             39.455            107.267
 Electronic               0.000              0.000              0.000
 Translational            0.889              2.981             41.783
 Rotational               0.889              2.981             30.335
 Vibrational             35.167             33.493             35.149
 Vibration     1          0.596              1.976              4.689
 Vibration     2          0.598              1.969              4.212
 Vibration     3          0.600              1.963              3.892
 Vibration     4          0.612              1.922              2.924
 Vibration     5          0.615              1.914              2.816
 Vibration     6          0.633              1.856              2.242
 Vibration     7          0.648              1.808              1.943
 Vibration     8          0.656              1.782              1.816
 Vibration     9          0.668              1.747              1.665
 Vibration    10          0.704              1.642              1.327
 Vibration    11          0.725              1.581              1.179
 Vibration    12          0.736              1.549              1.111
 Vibration    13          0.779              1.437              0.907
 Vibration    14          0.806              1.367              0.804
 Vibration    15          0.831              1.307              0.725
 Vibration    16          0.892              1.169              0.573
 Vibration    17          0.898              1.156              0.560
 Vibration    18          0.951              1.046              0.462

 Optimization completed.
    -- Stationary point found.
 Normal termination of Gaussian 16 at Fri May 23 07:43:20 2025.
