 Gaussian 16, Revision C.01,
 Gaussian 16:  ES64L-G16RevC.01  3-Jul-2019

 ----------------------------------------------------------------------
 #P wb97xd/6-311++G(d,p) Symm(None) scf(xqc) pop(None) freq opt(CalcFC,
  Tight)
 ----------------------------------------------------------------------

 ------------------------------
 Gaussian input prepared by ASE
 ------------------------------
 Symbolic Z-matrix:
 Charge =  0 Multiplicity = 1

 SCF Done:  E(RwB97XD) =  -1199.72878246     A.U. after   16 cycles
 SCF Done:  E(RwB97XD) =  -1199.73412385     A.U. after   15 cycles
 SCF Done:  E(RwB97XD) =  -1199.73295377     A.U. after   15 cycles
 SCF Done:  E(RwB97XD) =  -1199.73484393     A.U. after   13 cycles
 SCF Done:  E(RwB97XD) =  -1199.73489951     A.U. after   12 cycles
 SCF Done:  E(RwB97XD) =  -1199.73492000     A.U. after   11 cycles
 SCF Done:  E(RwB97XD) =  -1199.73492288     A.U. after   11 cycles
 SCF Done:  E(RwB97XD) =  -1199.73492339     A.U. after   10 cycles
 SCF Done:  E(RwB97XD) =  -1199.73492342     A.U. after    9 cycles
 SCF Done:  E(RwB97XD) =  -1199.73492343     A.U. after    7 cycles
 Optimization completed.
    -- Stationary point found.
 Normal termination of Gaussian 16 at Fri May 23 05:22:47 2025.

 ----------------------------------------------------------------------
 #P Geom=AllCheck Guess=TCheck SCRF=Check GenChk RwB97XD/6-311++G(d,p)
 Freq
 ----------------------------------------------------------------------

 Structure from the checkpoint file:  "/tmp/Gau-105476.chk"
 ------------------------------
 Gaussian input prepared by ASE
 ------------------------------
 Charge =  0 Multiplicity = 1

                          Input orientation:
 ---------------------------------------------------------------------
 Center     Atomic      Atomic             Coordinates (Angstroms)
 Number     Number       Type             X           Y           Z
 ---------------------------------------------------------------------
      1          6           0        2.134837    4.206072    0.158227
      2          6           0        2.049717    3.482491   -1.216110
      3          9           0        0.830053    3.670633   -1.740639
      4          9           0        2.964499    4.016846   -2.033449
      5         16           0        2.389873    1.604052   -1.313099
      6          8           0        0.965317    0.036649    0.036188
      7          8           0        3.790361    1.400505   -0.975148
      8          8           0        1.396831    1.392469    0.044375
      9          9           0        1.065443    3.949746    0.898075
     10          9           0        3.225024    3.830215    0.811645
     11          9           0        2.192695    5.521419   -0.051748
     12          1           0        0.015258    0.147017   -0.092905
 ---------------------------------------------------------------------

 SCF Done:  E(RwB97XD) =  -1199.73492343     A.U. after    1 cycles

 Isotropic polarizability for W=    0.000000       61.34 Bohr**3.
 End of Minotr F.D. properties file   721 does not exist.

                      1                      2                      3
                      A                      A                      A
 Frequencies --     29.0049                72.0766                88.0902
 Red. masses --     12.8853                15.6939                 7.1697
 Frc consts  --      0.0064                 0.0480                 0.0328
 IR Inten    --      1.4614                 0.9118                 6.4413

                      4                      5                      6
                      A                      A                      A
 Frequencies --    130.4991               172.0459               223.8334
 Red. masses --     15.3751                17.3140                16.9940
 Frc consts  --      0.1543                 0.3020                 0.5016
 IR Inten    --      1.5592                 2.4956                 6.6781

                      7                      8                      9
                      A                      A                      A
 Frequencies --    229.5399               291.9094               300.2253
 Red. masses --     18.2393                 2.0184                 9.7036
 Frc consts  --      0.5662                 0.1013                 0.5153
 IR Inten    --      1.7075                47.4761                24.6781

                     10                     11                     12
                      A                      A                      A
 Frequencies --    311.8344               317.6009               363.5860
 Red. masses --      3.4356                 6.4074                15.6104
 Frc consts  --      0.1968                 0.3808                 1.2158
 IR Inten    --     27.3531                 7.1935                 1.6338

                     13                     14                     15
                      A                      A                      A
 Frequencies --    421.1593               442.8042               488.5283
 Red. masses --      9.8911                18.6234                16.8581
 Frc consts  --      1.0337                 2.1515                 2.3705
 IR Inten    --     30.7442                18.3396                41.1406

                     16                     17                     18
                      A                      A                      A
 Frequencies --    546.0743               596.4409               635.8175
 Red. masses --     18.2758                17.8746                16.8838
 Frc consts  --      3.2109                 3.7465                 4.0215
 IR Inten    --      3.5073                 2.7167                17.2520

                     19                     20                     21
                      A                      A                      A
 Frequencies --    708.7320               762.4388               987.6118
 Red. masses --     17.3622                17.3092                13.7079
 Frc consts  --      5.1383                 5.9284                 7.8776
 IR Inten    --     77.6726                14.6978                80.6314

                     22                     23                     24
                      A                      A                      A
 Frequencies --    993.9981              1142.8818              1196.2225
 Red. masses --     14.7959                13.6214                13.5012
 Frc consts  --      8.6132                10.4827                11.3827
 IR Inten    --     11.6842               176.8201                85.9559

                     25                     26                     27
                      A                      A                      A
 Frequencies --   1222.8955              1241.4468              1267.9989
 Red. masses --     13.3085                14.7385                15.1643
 Frc consts  --     11.7262                13.3832                14.3652
 IR Inten    --    266.1205                59.5620               517.2300

                     28                     29                     30
                      A                      A                      A
 Frequencies --   1330.9318              1425.8549              3832.2645
 Red. masses --     13.0134                 1.1096                 1.0687
 Frc consts  --     13.5817                 1.3292                 9.2473
 IR Inten    --    137.7166                61.1779                84.8918

 - Thermochemistry -
 -------------------
 Temperature   298.150 Kelvin.  Pressure   1.00000 Atm.
 Atom     1 has atomic number  6 and mass  12.00000

 Molecular mass:   199.95666 amu.
 Principal axes and moments of inertia in atomic units:
                           1         2         3
     Eigenvalues --  1278.166862292.713782538.18866
           X            0.06897  -0.59612   0.79993
           Y            0.99198  -0.04414  -0.11842
           Z            0.10590   0.80168   0.58830
 This molecule is an asymmetric top.
 Rotational symmetry number  1.
 Warning -- assumption of classical behavior for rotation
           may cause significant error
 Rotational temperatures (Kelvin)      0.06776     0.03778     0.03412
 Rotational constants (GHZ):           1.41198     0.78716     0.71104
 Zero-point vibrational energy     130239.5 (Joules/Mol)
                                   31.12799 (Kcal/Mol)
 Warning -- explicit consideration of  17 degrees of freedom as
           vibrations may cause significant error
 Vibrational temperatures:     41.73   103.70   126.74   187.76   247.54
          (Kelvin)            322.05   330.26   419.99   431.96   448.66
                              456.96   523.12   605.95   637.10   702.88
                              785.68   858.15   914.80  1019.71  1096.98
                             1420.95  1430.14  1644.35  1721.10  1759.47
                             1786.17  1824.37  1914.91  2051.49  5513.77

 Zero-point correction=                           0.049606 (Hartree/Particle)
 Thermal correction to Energy=                    0.060850
 Thermal correction to Enthalpy=                  0.061794
 Thermal correction to Gibbs Free Energy=         0.011216
 Sum of electronic and zero-point Energies=          -1199.685318
 Sum of electronic and thermal Energies=             -1199.674074
 Sum of electronic and thermal Enthalpies=           -1199.673130
 Sum of electronic and thermal Free Energies=        -1199.723707

                     E (Thermal)             CV                S
                      KCal/Mol        Cal/Mol-Kelvin    Cal/Mol-Kelvin
 Total                   38.184             38.211            106.449
 Electronic               0.000              0.000              0.000
 Translational            0.889              2.981             41.783
 Rotational               0.889              2.981             30.387
 Vibrational             36.406             32.250             34.278
 Vibration     1          0.593              1.984              5.896
 Vibration     2          0.598              1.967              4.096
 Vibration     3          0.601              1.958              3.702
 Vibration     4          0.612              1.923              2.939
 Vibration     5          0.626              1.877              2.413
 Vibration     6          0.649              1.805              1.928
 Vibration     7          0.652              1.796              1.883
 Vibration     8          0.687              1.689              1.463
 Vibration     9          0.693              1.673              1.416
 Vibration    10          0.700              1.651              1.353
 Vibration    11          0.704              1.640              1.322
 Vibration    12          0.737              1.547              1.107
 Vibration    13          0.784              1.424              0.888
 Vibration    14          0.802              1.377              0.818
 Vibration    15          0.844              1.275              0.687
 Vibration    16          0.901              1.148              0.552
 Vibration    17          0.954              1.039              0.456

 Optimization completed.
    -- Stationary point found.
 Normal termination of Gaussian 16 at Fri May 23 05:24:03 2025.
