 Gaussian 16, Revision C.01,
 Gaussian 16:  ES64L-G16RevC.01  3-Jul-2019

 ----------------------------------------------------------------------
 #P wb97xd/6-311++G(d,p) Symm(None) scf(xqc) pop(None) opt(NoFreeze,TS,
 CalcAll,NoEigentest,MaxCycle=999)
 ----------------------------------------------------------------------

 ------------------------------
 Gaussian input prepared by ASE
 ------------------------------
 Symbolic Z-matrix:
 Charge =  0 Multiplicity = 1

 SCF Done:  E(RwB97XD) =  -1199.57629725     A.U. after   22 cycles
 SCF Done:  E(RwB97XD) =  -1199.59879454     A.U. after   19 cycles
 SCF Done:  E(RwB97XD) =  -1199.63513167     A.U. after   18 cycles
 SCF Done:  E(RwB97XD) =  -1199.64908228     A.U. after   16 cycles
 SCF Done:  E(RwB97XD) =  -1199.65617025     A.U. after   16 cycles
 SCF Done:  E(RwB97XD) =  -1199.66072418     A.U. after   16 cycles
 SCF Done:  E(RwB97XD) =  -1199.66288082     A.U. after   16 cycles
 SCF Done:  E(RwB97XD) =  -1199.66356142     A.U. after   16 cycles
 SCF Done:  E(RwB97XD) =  -1199.66365656     A.U. after   14 cycles
 SCF Done:  E(RwB97XD) =  -1199.66366992     A.U. after   14 cycles
 SCF Done:  E(RwB97XD) =  -1199.66367065     A.U. after   12 cycles

 Isotropic polarizability for W=    0.000000       72.63 Bohr**3.
 End of Minotr F.D. properties file   721 does not exist.

 Optimization completed.
    -- Stationary point found.

                          Input orientation:
 ---------------------------------------------------------------------
 Center     Atomic      Atomic             Coordinates (Angstroms)
 Number     Number       Type             X           Y           Z
 ---------------------------------------------------------------------
      1          6           0       -0.235686   -1.158534    0.271802
      2          6           0        0.206781    0.134148   -0.022004
      3          9           0       -0.079080    0.614732   -1.214632
      4          9           0        0.093487    1.034669    0.944429
      5         16           0        2.561058   -0.319153   -0.174305
      6          8           0        3.451414   -0.317445    0.958475
      7          8           0        2.745175   -0.821107   -1.501721
      8          8           0        2.405847    1.307622   -0.453666
      9          9           0       -0.499515   -1.535049    1.460872
     10          9           0        1.726725   -1.891268    0.443632
     11          9           0       -0.545571   -1.981139   -0.649392
     12          1           0        2.668336    1.772345    0.351249
 ---------------------------------------------------------------------

 ******    1 imaginary frequencies (negative Signs) ******

                      1                      2                      3
                      A                      A                      A
 Frequencies --   -575.1455                30.8383                61.4326
 Red. masses --     12.7449                15.4101                12.1692
 Frc consts  --      2.4839                 0.0086                 0.0271
 IR Inten    --    194.6414                 1.7363                 2.6823

                      4                      5                      6
                      A                      A                      A
 Frequencies --    160.5718               170.2479               202.9319
 Red. masses --     18.7682                17.1225                17.4715
 Frc consts  --      0.2851                 0.2924                 0.4239
 IR Inten    --     18.1648                10.3162                 0.1572

                      7                      8                      9
                      A                      A                      A
 Frequencies --    210.9444               240.2102               274.3687
 Red. masses --     17.4968                15.8965                11.1601
 Frc consts  --      0.4587                 0.5404                 0.4950
 IR Inten    --      1.9736                 3.1154                 8.0639

                     10                     11                     12
                      A                      A                      A
 Frequencies --    319.0029               372.5097               388.7027
 Red. masses --      8.6665                 1.8918                13.0725
 Frc consts  --      0.5196                 0.1547                 1.1637
 IR Inten    --     10.6400                31.8725                15.2667

                     13                     14                     15
                      A                      A                      A
 Frequencies --    406.7880               444.4447               482.0200
 Red. masses --     15.7517                 5.3319                 3.6323
 Frc consts  --      1.5357                 0.6205                 0.4972
 IR Inten    --     26.9795               223.4593                 3.8695

                     16                     17                     18
                      A                      A                      A
 Frequencies --    512.6874               548.3086               559.8283
 Red. masses --      9.6581                16.7459                14.2184
 Frc consts  --      1.4957                 2.9663                 2.6255
 IR Inten    --    241.6554                 1.3682               140.0159

                     19                     20                     21
                      A                      A                      A
 Frequencies --    594.5136               645.8510               717.7304
 Red. masses --     16.5339                13.2615                16.7272
 Frc consts  --      3.4431                 3.2592                 5.0769
 IR Inten    --      4.3279                 9.1028               183.4802

                     22                     23                     24
                      A                      A                      A
 Frequencies --    812.9272              1113.9866              1149.4786
 Red. masses --     17.7485                10.3412                 1.2623
 Frc consts  --      6.9106                 7.5610                 0.9827
 IR Inten    --     58.9959               229.9408                99.5617

                     25                     26                     27
                      A                      A                      A
 Frequencies --   1209.9710              1306.3416              1421.0727
 Red. masses --     13.7600                13.1075                12.3049
 Frc consts  --     11.8691                13.1790                14.6406
 IR Inten    --    321.8948               155.0916               190.3062

                     28                     29                     30
                      A                      A                      A
 Frequencies --   1478.8549              1605.8359              3838.3122
 Red. masses --     13.2365                12.4003                 1.0664
 Frc consts  --     17.0559                18.8402                 9.2563
 IR Inten    --    338.1560               813.6050               166.4640

 - Thermochemistry -
 -------------------
 Temperature   298.150 Kelvin.  Pressure   1.00000 Atm.
 Atom     1 has atomic number  6 and mass  12.00000

 Molecular mass:   199.95666 amu.
 Principal axes and moments of inertia in atomic units:
                           1         2         3
     Eigenvalues --  1312.078912074.047512351.79329
           X            0.94517  -0.31737   0.07703
           Y            0.29436   0.93004   0.21995
           Z           -0.14145  -0.18521   0.97247
 This molecule is an asymmetric top.
 Rotational symmetry number  1.
 Warning -- assumption of classical behavior for rotation
           may cause significant error
 Rotational temperatures (Kelvin)      0.06601     0.04176     0.03683
 Rotational constants (GHZ):           1.37548     0.87015     0.76739
    1 imaginary frequencies ignored.
 Zero-point vibrational energy     127286.9 (Joules/Mol)
                                   30.42231 (Kcal/Mol)
 Warning -- explicit consideration of  18 degrees of freedom as
           vibrations may cause significant error
 Vibrational temperatures:     44.37    88.39   231.03   244.95   291.97
          (Kelvin)            303.50   345.61   394.76   458.97   535.96
                              559.26   585.28   639.46   693.52   737.64
                              788.89   805.47   855.37   929.24  1032.65
                             1169.62  1602.78  1653.84  1740.88  1879.53
                             2044.61  2127.74  2310.44  5522.48

 Zero-point correction=                           0.048481 (Hartree/Particle)
 Thermal correction to Energy=                    0.059307
 Thermal correction to Enthalpy=                  0.060251
 Thermal correction to Gibbs Free Energy=         0.010946
 Sum of electronic and zero-point Energies=          -1199.615190
 Sum of electronic and thermal Energies=             -1199.604364
 Sum of electronic and thermal Enthalpies=           -1199.603419
 Sum of electronic and thermal Free Energies=        -1199.652724

                     E (Thermal)             CV                S
                      KCal/Mol        Cal/Mol-Kelvin    Cal/Mol-Kelvin
 Total                   37.216             37.597            103.771
 Electronic               0.000              0.000              0.000
 Translational            0.889              2.981             41.783
 Rotational               0.889              2.981             30.238
 Vibrational             35.438             31.635             31.749
 Vibration     1          0.594              1.984              5.775
 Vibration     2          0.597              1.973              4.411
 Vibration     3          0.622              1.891              2.543
 Vibration     4          0.625              1.879              2.433
 Vibration     5          0.639              1.836              2.106
 Vibration     6          0.643              1.824              2.035
 Vibration     7          0.657              1.779              1.801
 Vibration     8          0.677              1.721              1.569
 Vibration     9          0.705              1.637              1.315
 Vibration    10          0.744              1.529              1.069
 Vibration    11          0.757              1.494              1.005
 Vibration    12          0.772              1.455              0.938
 Vibration    13          0.804              1.373              0.813
 Vibration    14          0.838              1.290              0.705
 Vibration    15          0.868              1.222              0.627
 Vibration    16          0.904              1.143              0.548
 Vibration    17          0.915              1.118              0.524
 Vibration    18          0.952              1.043              0.459

 Normal termination of Gaussian 16 at Fri May 23 05:11:01 2025.
