 Gaussian 16, Revision C.01,
 Gaussian 16:  ES64L-G16RevC.01  3-Jul-2019

 ----------------------------------------------------------------------
 #P wb97xd/6-311++G(d,p) Symm(None) scf(xqc) pop(None) freq opt(CalcFC,
  Tight)
 ----------------------------------------------------------------------

 ------------------------------
 Gaussian input prepared by ASE
 ------------------------------
 Symbolic Z-matrix:
 Charge =  0 Multiplicity = 1

 SCF Done:  E(RwB97XD) =  -1199.82031704     A.U. after   14 cycles
 SCF Done:  E(RwB97XD) =  -1199.82481894     A.U. after   13 cycles
 SCF Done:  E(RwB97XD) =  -1199.82110704     A.U. after   13 cycles
 SCF Done:  E(RwB97XD) =  -1199.82556568     A.U. after   13 cycles
 SCF Done:  E(RwB97XD) =  -1199.82574145     A.U. after   12 cycles
 SCF Done:  E(RwB97XD) =  -1199.82583934     A.U. after   12 cycles
 SCF Done:  E(RwB97XD) =  -1199.82597398     A.U. after   13 cycles
 SCF Done:  E(RwB97XD) =  -1199.82603820     A.U. after   12 cycles
 SCF Done:  E(RwB97XD) =  -1199.82604577     A.U. after   10 cycles
 SCF Done:  E(RwB97XD) =  -1199.82604493     A.U. after   11 cycles
 SCF Done:  E(RwB97XD) =  -1199.82604602     A.U. after   10 cycles
 SCF Done:  E(RwB97XD) =  -1199.82604615     A.U. after    9 cycles
 SCF Done:  E(RwB97XD) =  -1199.82604620     A.U. after    9 cycles
 SCF Done:  E(RwB97XD) =  -1199.82604621     A.U. after    6 cycles
 Optimization completed.
    -- Stationary point found.
 Normal termination of Gaussian 16 at Fri May 23 01:57:42 2025.

 ----------------------------------------------------------------------
 #P Geom=AllCheck Guess=TCheck SCRF=Check GenChk RwB97XD/6-311++G(d,p)
 Freq
 ----------------------------------------------------------------------

 Structure from the checkpoint file:  "/tmp/Gau-242875.chk"
 ------------------------------
 Gaussian input prepared by ASE
 ------------------------------
 Charge =  0 Multiplicity = 1

                          Input orientation:
 ---------------------------------------------------------------------
 Center     Atomic      Atomic             Coordinates (Angstroms)
 Number     Number       Type             X           Y           Z
 ---------------------------------------------------------------------
      1          6           0       -0.621352   -1.321388   -0.300440
      2          6           0        0.069804    0.058571   -0.107284
      3          9           0       -0.407723    0.918396   -1.002684
      4          9           0       -0.199229    0.508288    1.126604
      5         16           0        1.936237    0.004339   -0.287913
      6          8           0        2.428169   -0.942188    0.673728
      7          8           0        2.247704   -0.036831   -1.679489
      8          8           0        2.259830    1.490906    0.216948
      9          9           0       -0.243807   -1.864461   -1.450985
     10          9           0       -0.313588   -2.140498    0.693485
     11          9           0       -1.938348   -1.141962   -0.317995
     12          1           0        2.360709    1.506115    1.177839
 ---------------------------------------------------------------------

 SCF Done:  E(RwB97XD) =  -1199.82604621     A.U. after    1 cycles

 Isotropic polarizability for W=    0.000000       55.70 Bohr**3.
 End of Minotr F.D. properties file   721 does not exist.

                      1                      2                      3
                      A                      A                      A
 Frequencies --     29.5559                68.1379               131.5579
 Red. masses --     14.1904                14.4318                14.7601
 Frc consts  --      0.0073                 0.0395                 0.1505
 IR Inten    --      1.2568                 0.7280                 1.2705

                      4                      5                      6
                      A                      A                      A
 Frequencies --    193.8555               222.6578               234.4891
 Red. masses --      9.1482                17.9628                 8.1017
 Frc consts  --      0.2026                 0.5247                 0.2625
 IR Inten    --      8.4308                 1.1989                 9.5941

                      7                      8                      9
                      A                      A                      A
 Frequencies --    275.1545               311.2578               318.0245
 Red. masses --     15.2348                 5.1834                18.1757
 Frc consts  --      0.6796                 0.2959                 1.0831
 IR Inten    --      1.4298                16.0099                 0.3692

                     10                     11                     12
                      A                      A                      A
 Frequencies --    359.4650               371.4551               436.7237
 Red. masses --      1.8611                17.5916                 4.0932
 Frc consts  --      0.1417                 1.4301                 0.4600
 IR Inten    --     56.9449                 0.1890                31.3743

                     13                     14                     15
                      A                      A                      A
 Frequencies --    484.7378               489.5842               539.4000
 Red. masses --     13.0148                 8.4698                17.8442
 Frc consts  --      1.8018                 1.1961                 3.0589
 IR Inten    --     14.2556                21.0418                28.5878

                     16                     17                     18
                      A                      A                      A
 Frequencies --    600.3846               609.3578               653.6807
 Red. masses --     17.3783                20.1376                17.3546
 Frc consts  --      3.6908                 4.4056                 4.3692
 IR Inten    --      3.4920               118.5810                30.2245

                     19                     20                     21
                      A                      A                      A
 Frequencies --    764.6897               825.7282              1005.7683
 Red. masses --     17.1244                17.1172                13.8180
 Frc consts  --      5.8998                 6.8764                 8.2355
 IR Inten    --     40.8168               218.4254                52.4856

                     22                     23                     24
                      A                      A                      A
 Frequencies --   1131.4688              1158.0143              1202.9112
 Red. masses --      1.1966                11.9543                15.9955
 Frc consts  --      0.9026                 9.4450                13.6369
 IR Inten    --    110.3061               238.5572                 6.6110

                     25                     26                     27
                      A                      A                      A
 Frequencies --   1219.1896              1249.3412              1253.7460
 Red. masses --     13.1255                13.7615                13.1782
 Frc consts  --     11.4950                12.6554                12.2046
 IR Inten    --    109.9123               333.0870               261.5242

                     28                     29                     30
                      A                      A                      A
 Frequencies --   1344.6842              1445.8513              3832.5377
 Red. masses --     12.6484                14.3073                 1.0663
 Frc consts  --     13.4749                17.6220                 9.2275
 IR Inten    --    106.7703               312.9027               161.7148

 - Thermochemistry -
 -------------------
 Temperature   298.150 Kelvin.  Pressure   1.00000 Atm.
 Atom     1 has atomic number  6 and mass  12.00000

 Molecular mass:   199.95666 amu.
 Principal axes and moments of inertia in atomic units:
                           1         2         3
     Eigenvalues --  1133.497202197.532472320.24878
           X            0.87758  -0.47220   0.08292
           Y            0.47900   0.85634  -0.19297
           Z            0.02011   0.20906   0.97770
 This molecule is an asymmetric top.
 Rotational symmetry number  1.
 Warning -- assumption of classical behavior for rotation
           may cause significant error
 Rotational temperatures (Kelvin)      0.07641     0.03941     0.03733
 Rotational constants (GHZ):           1.59219     0.82126     0.77782
 Zero-point vibrational energy     136155.4 (Joules/Mol)
                                   32.54193 (Kcal/Mol)
 Warning -- explicit consideration of  17 degrees of freedom as
           vibrations may cause significant error
 Vibrational temperatures:     42.52    98.04   189.28   278.91   320.35
          (Kelvin)            337.38   395.89   447.83   457.57   517.19
                              534.44   628.35   697.43   704.40   776.08
                              863.82   876.73   940.50  1100.22  1188.04
                             1447.08  1627.93  1666.12  1730.72  1754.14
                             1797.52  1803.86  1934.70  2080.26  5514.17

 Zero-point correction=                           0.051859 (Hartree/Particle)
 Thermal correction to Energy=                    0.062294
 Thermal correction to Enthalpy=                  0.063238
 Thermal correction to Gibbs Free Energy=         0.014700
 Sum of electronic and zero-point Energies=          -1199.774187
 Sum of electronic and thermal Energies=             -1199.763752
 Sum of electronic and thermal Enthalpies=           -1199.762808
 Sum of electronic and thermal Free Energies=        -1199.811346

                     E (Thermal)             CV                S
                      KCal/Mol        Cal/Mol-Kelvin    Cal/Mol-Kelvin
 Total                   39.090             36.590            102.157
 Electronic               0.000              0.000              0.000
 Translational            0.889              2.981             41.783
 Rotational               0.889              2.981             30.137
 Vibrational             37.313             30.629             30.237
 Vibration     1          0.593              1.984              5.859
 Vibration     2          0.598              1.969              4.206
 Vibration     3          0.612              1.922              2.923
 Vibration     4          0.635              1.848              2.191
 Vibration     5          0.648              1.807              1.937
 Vibration     6          0.654              1.788              1.844
 Vibration     7          0.677              1.719              1.564
 Vibration     8          0.700              1.652              1.356
 Vibration     9          0.704              1.639              1.320
 Vibration    10          0.734              1.556              1.124
 Vibration    11          0.743              1.531              1.074
 Vibration    12          0.797              1.390              0.837
 Vibration    13          0.841              1.284              0.697
 Vibration    14          0.845              1.273              0.685
 Vibration    15          0.894              1.163              0.567
 Vibration    16          0.959              1.031              0.449
 Vibration    17          0.968              1.012              0.434

 Optimization completed.
    -- Stationary point found.
 Normal termination of Gaussian 16 at Fri May 23 01:58:57 2025.
