 Gaussian 16, Revision C.01,
 Gaussian 16:  ES64L-G16RevC.01  3-Jul-2019

 ------------------------------------------
 #P am1 Symm(None) scf(xqc) pop(None) force
 ------------------------------------------

 ------------------------------
 Gaussian input prepared by ASE
 ------------------------------
 Symbolic Z-matrix:
 Charge =  0 Multiplicity = 1

                          Input orientation:
 ---------------------------------------------------------------------
 Center     Atomic      Atomic             Coordinates (Angstroms)
 Number     Number       Type             X           Y           Z
 ---------------------------------------------------------------------
      1          6           0        1.856645   -0.785751   -1.208561
      2          6           0        1.869594    0.025923    0.055984
      3          9           0       -0.691476    0.867946    0.857680
      4          9           0        2.075063   -0.672966    1.169770
      5         16           0        1.706852    1.680859    0.132483
      6          8           0        0.209596    1.886755   -0.188061
      7          8           0        2.121052    2.461040    1.249798
      8          8           0        2.227670    2.349761   -1.187773
      9          9           0        1.738514   -0.032062   -2.308341
     10          9           0        2.963581   -1.509050   -1.415570
     11          9           0        0.855507   -1.661073   -1.288222
     12          1           0        1.994152    2.021339   -2.071550
 ---------------------------------------------------------------------

 SCF Done:  E(RAM1) =  0.644495200779     A.U. after   33 cycles
 SCF Done:  E(RAM1) =  0.644495180854     a.u. after    3 cycles
 Normal termination of Gaussian 16 at Fri May 23 05:15:57 2025.
