 Gaussian 16, Revision C.01,
 Gaussian 16:  ES64L-G16RevC.01  3-Jul-2019

 ----------------------------------------------------------------------
 #P wb97xd/6-311++G(d,p) Symm(None) scf(xqc) pop(None) opt(NoFreeze,TS,
 CalcAll,NoEigentest,MaxCycle=999)
 ----------------------------------------------------------------------

 ------------------------------
 Gaussian input prepared by ASE
 ------------------------------
 Symbolic Z-matrix:
 Charge =  0 Multiplicity = 1

 SCF Done:  E(RwB97XD) =  -1199.56463238     A.U. after   30 cycles
 SCF Done:  E(RwB97XD) =  -1199.58528395     A.U. after   24 cycles
 SCF Done:  E(RwB97XD) =  -1199.58885973     A.U. after   25 cycles
 SCF Done:  E(RwB97XD) =  -1199.59592892     A.U. after   26 cycles
 SCF Done:  E(RwB97XD) =  -1199.59639579     A.U. after   22 cycles
 SCF Done:  E(RwB97XD) =  -1199.59650160     A.U. after   20 cycles
 SCF Done:  E(RwB97XD) =  -1199.59650362     A.U. after   19 cycles

 Isotropic polarizability for W=    0.000000       74.38 Bohr**3.
 End of Minotr F.D. properties file   721 does not exist.

 Optimization completed.
    -- Stationary point found.

                          Input orientation:
 ---------------------------------------------------------------------
 Center     Atomic      Atomic             Coordinates (Angstroms)
 Number     Number       Type             X           Y           Z
 ---------------------------------------------------------------------
      1          6           0       -0.593552   -1.313272   -0.455072
      2          6           0        0.078168    0.036679   -0.122710
      3          9           0       -0.408900    1.007741   -0.876779
      4          9           0       -0.124489    0.329520    1.176041
      5         16           0        2.002801   -0.036650   -0.203066
      6          8           0        1.620155    0.848953    2.296556
      7          8           0        2.390952   -0.508595   -1.521241
      8          8           0        2.200710    1.564189   -0.160964
      9          9           0       -0.519342   -1.549861   -1.754251
     10          9           0        0.032351   -2.285856    0.207054
     11          9           0       -1.870412   -1.296975   -0.089045
     12          1           0        2.199504    1.781026    0.797821
 ---------------------------------------------------------------------

 ******    1 imaginary frequencies (negative Signs) ******

                      1                      2                      3
                      A                      A                      A
 Frequencies --   -298.6189                43.7309                60.8158
 Red. masses --     17.1260                15.3689                17.2904
 Frc consts  --      0.8998                 0.0173                 0.0377
 IR Inten    --     58.1663                 0.4198                 0.0374

                      4                      5                      6
                      A                      A                      A
 Frequencies --    122.5835               153.1775               194.4640
 Red. masses --     16.2019                10.2329                14.5348
 Frc consts  --      0.1434                 0.1415                 0.3238
 IR Inten    --      0.8025                 7.8371                11.2707

                      7                      8                      9
                      A                      A                      A
 Frequencies --    226.9990               236.3342               261.6190
 Red. masses --     17.3413                14.6762                12.2398
 Frc consts  --      0.5265                 0.4830                 0.4936
 IR Inten    --      3.0636                 2.2422                 8.5174

                     10                     11                     12
                      A                      A                      A
 Frequencies --    281.3946               342.3353               375.8543
 Red. masses --     13.7397                17.7837                18.3631
 Frc consts  --      0.6410                 1.2279                 1.5284
 IR Inten    --      2.6066                 1.2363                 1.1654

                     13                     14                     15
                      A                      A                      A
 Frequencies --    409.0221               434.6231               506.3014
 Red. masses --     15.3117                12.0927                16.4704
 Frc consts  --      1.5093                 1.3459                 2.4876
 IR Inten    --     16.2246                17.7611                35.2482

                     16                     17                     18
                      A                      A                      A
 Frequencies --    544.5795               601.3592               633.0372
 Red. masses --     17.7248                17.7026                 2.1379
 Frc consts  --      3.0971                 3.7719                 0.5048
 IR Inten    --      2.0495                 6.9823                89.9597

                     19                     20                     21
                      A                      A                      A
 Frequencies --    636.9861               759.5300               782.9600
 Red. masses --      1.9473                16.4778                 9.9929
 Frc consts  --      0.4655                 5.6007                 3.6093
 IR Inten    --     45.1167                33.2995                86.2476

                     22                     23                     24
                      A                      A                      A
 Frequencies --    938.3735              1094.6507              1178.7164
 Red. masses --     13.1632                12.6817                 1.4352
 Frc consts  --      6.8291                 8.9532                 1.1749
 IR Inten    --    100.9112                32.8575               200.7499

                     25                     26                     27
                      A                      A                      A
 Frequencies --   1224.1694              1229.8398              1248.1968
 Red. masses --     12.3577                10.5451                10.4944
 Frc consts  --     10.9111                 9.3972                 9.6333
 IR Inten    --    317.9490                62.3714               135.6636

                     28                     29                     30
                      A                      A                      A
 Frequencies --   1278.4440              1350.9941              3486.6368
 Red. masses --      6.8345                12.2936                 1.0661
 Frc consts  --      6.5814                13.2201                 7.6356
 IR Inten    --    270.7324               218.5225                 6.7151

 - Thermochemistry -
 -------------------
 Temperature   298.150 Kelvin.  Pressure   1.00000 Atm.
 Atom     1 has atomic number  6 and mass  12.00000

 Molecular mass:   199.95666 amu.
 Principal axes and moments of inertia in atomic units:
                           1         2         3
     Eigenvalues --  1294.072442212.585722582.88442
           X            0.77357  -0.47570  -0.41869
           Y            0.58500   0.28201   0.76043
           Z            0.24366   0.83317  -0.49644
 This molecule is an asymmetric top.
 Rotational symmetry number  1.
 Warning -- assumption of classical behavior for rotation
           may cause significant error
 Rotational temperatures (Kelvin)      0.06693     0.03915     0.03353
 Rotational constants (GHZ):           1.39462     0.81567     0.69873
    1 imaginary frequencies ignored.
 Zero-point vibrational energy     123441.0 (Joules/Mol)
                                   29.50311 (Kcal/Mol)
 Warning -- explicit consideration of  16 degrees of freedom as
           vibrations may cause significant error
 Vibrational temperatures:     62.92    87.50   176.37   220.39   279.79
          (Kelvin)            326.60   340.03   376.41   404.86   492.54
                              540.77   588.49   625.33   728.45   783.53
                              865.22   910.80   916.48  1092.79  1126.50
                             1350.11  1574.96  1695.91  1761.31  1769.47
                             1795.88  1839.40  1943.78  5016.49

 Zero-point correction=                           0.047016 (Hartree/Particle)
 Thermal correction to Energy=                    0.057815
 Thermal correction to Enthalpy=                  0.058759
 Thermal correction to Gibbs Free Energy=         0.009451
 Sum of electronic and zero-point Energies=          -1199.549487
 Sum of electronic and thermal Energies=             -1199.538688
 Sum of electronic and thermal Enthalpies=           -1199.537744
 Sum of electronic and thermal Free Energies=        -1199.587053

                     E (Thermal)             CV                S
                      KCal/Mol        Cal/Mol-Kelvin    Cal/Mol-Kelvin
 Total                   36.280             37.106            103.779
 Electronic               0.000              0.000              0.000
 Translational            0.889              2.981             41.783
 Rotational               0.889              2.981             30.382
 Vibrational             34.502             31.145             31.614
 Vibration     1          0.595              1.980              5.082
 Vibration     2          0.597              1.973              4.431
 Vibration     3          0.610              1.930              3.059
 Vibration     4          0.619              1.899              2.632
 Vibration     5          0.635              1.848              2.185
 Vibration     6          0.651              1.800              1.903
 Vibration     7          0.655              1.785              1.830
 Vibration     8          0.669              1.743              1.651
 Vibration     9          0.681              1.708              1.525
 Vibration    10          0.721              1.591              1.201
 Vibration    11          0.747              1.522              1.056
 Vibration    12          0.773              1.451              0.930
 Vibration    13          0.795              1.395              0.844
 Vibration    14          0.862              1.236              0.643
 Vibration    15          0.900              1.152              0.556
 Vibration    16          0.960              1.029              0.447

 Normal termination of Gaussian 16 at Fri May 23 07:44:12 2025.
