 Gaussian 16, Revision C.01,
 Gaussian 16:  ES64L-G16RevC.01  3-Jul-2019

 ----------------------------------------------------------------------
 #P wb97xd/6-311++G(d,p) Symm(None) scf(xqc) pop(None) freq opt(CalcFC,
  Tight)
 ----------------------------------------------------------------------

 ------------------------------
 Gaussian input prepared by ASE
 ------------------------------
 Symbolic Z-matrix:
 Charge =  0 Multiplicity = 1

 SCF Done:  E(RwB97XD) =  -1199.57630476     A.U. after   20 cycles
 SCF Done:  E(RwB97XD) =  -1199.58326723     A.U. after   17 cycles
 SCF Done:  E(RwB97XD) =  -1199.58591154     A.U. after   18 cycles
 SCF Done:  E(RwB97XD) =  -1199.59553264     A.U. after   19 cycles
 SCF Done:  E(RwB97XD) =  -1199.58969678     A.U. after   20 cycles
 SCF Done:  E(RwB97XD) =  -1199.59950690     A.U. after   19 cycles
 SCF Done:  E(RwB97XD) =  -1199.59960331     A.U. after   18 cycles
 SCF Done:  E(RwB97XD) =  -1199.59960872     A.U. after   19 cycles
 SCF Done:  E(RwB97XD) =  -1199.59969300     A.U. after   18 cycles
 SCF Done:  E(RwB97XD) =  -1199.59970432     A.U. after   13 cycles
 SCF Done:  E(RwB97XD) =  -1199.60157400     A.U. after   18 cycles
 SCF Done:  E(RwB97XD) =  -1199.60184495     A.U. after   17 cycles
 SCF Done:  E(RwB97XD) =  -1199.60185595     A.U. after   13 cycles
 SCF Done:  E(RwB97XD) =  -1199.60185703     A.U. after   13 cycles
 SCF Done:  E(RwB97XD) =  -1199.60185712     A.U. after   11 cycles
 SCF Done:  E(RwB97XD) =  -1199.60185713     A.U. after   10 cycles
 SCF Done:  E(RwB97XD) =  -1199.60185713     A.U. after   10 cycles
 SCF Done:  E(RwB97XD) =  -1199.60185713     A.U. after    9 cycles
 SCF Done:  E(RwB97XD) =  -1199.60185713     A.U. after    8 cycles
 Optimization completed.
    -- Stationary point found.
 Normal termination of Gaussian 16 at Fri May 23 07:44:02 2025.

 ----------------------------------------------------------------------
 #P Geom=AllCheck Guess=TCheck SCRF=Check GenChk RwB97XD/6-311++G(d,p)
 Freq
 ----------------------------------------------------------------------

 Structure from the checkpoint file:  "/tmp/Gau-104083.chk"
 ------------------------------
 Gaussian input prepared by ASE
 ------------------------------
 Charge =  0 Multiplicity = 1

                          Input orientation:
 ---------------------------------------------------------------------
 Center     Atomic      Atomic             Coordinates (Angstroms)
 Number     Number       Type             X           Y           Z
 ---------------------------------------------------------------------
      1          6           0       -0.626076   -1.450898    0.350665
      2          6           0       -0.060218   -0.027244    0.095259
      3          9           0       -0.603514    0.532002   -0.965266
      4          9           0       -0.307455    0.781504    1.199824
      5         16           0        1.868496    0.000558   -0.107084
      6          8           0       -1.946374    0.950383    1.577219
      7          8           0        2.051570   -0.390538   -1.502051
      8          8           0        1.973940    1.623340    0.026976
      9          9           0        0.017819   -2.299858   -0.455328
     10          9           0       -0.378948   -1.797880    1.608239
     11          9           0       -1.915084   -1.532716    0.101089
     12          1           0        1.590358    2.070131   -0.742480
 ---------------------------------------------------------------------

 SCF Done:  E(RwB97XD) =  -1199.60185713     A.U. after    1 cycles

 Isotropic polarizability for W=    0.000000       63.69 Bohr**3.
 End of Minotr F.D. properties file   721 does not exist.

                      1                      2                      3
                      A                      A                      A
 Frequencies --     30.8968                46.2718                80.5705
 Red. masses --     13.7783                12.3866                15.2807
 Frc consts  --      0.0077                 0.0156                 0.0584
 IR Inten    --      0.5607                 1.2374                 2.1973

                      4                      5                      6
                      A                      A                      A
 Frequencies --    129.7996               159.6532               197.9932
 Red. masses --     14.5929                16.7961                17.0540
 Frc consts  --      0.1449                 0.2522                 0.3939
 IR Inten    --      1.2538                 2.5412                 3.0172

                      7                      8                      9
                      A                      A                      A
 Frequencies --    226.5036               228.2311               266.9871
 Red. masses --     14.7033                 8.5940                11.9178
 Frc consts  --      0.4444                 0.2638                 0.5005
 IR Inten    --      2.2637                 4.1496                 4.9185

                     10                     11                     12
                      A                      A                      A
 Frequencies --    284.0369               344.9533               362.3672
 Red. masses --     12.9381                 2.1514                10.1923
 Frc consts  --      0.6150                 0.1508                 0.7885
 IR Inten    --      3.6424                27.2629                 1.3851

                     13                     14                     15
                      A                      A                      A
 Frequencies --    414.6940               473.8519               491.0152
 Red. masses --     14.1057                 2.6704                 9.0155
 Frc consts  --      1.4292                 0.3533                 1.2807
 IR Inten    --     11.9416                54.9628               196.7551

                     16                     17                     18
                      A                      A                      A
 Frequencies --    513.9173               549.6676               593.5433
 Red. masses --     12.2019                17.6668                17.9762
 Frc consts  --      1.8987                 3.1449                 3.7312
 IR Inten    --     11.3891                 5.5160                 6.4920

                     19                     20                     21
                      A                      A                      A
 Frequencies --    634.6767               760.6722               771.2798
 Red. masses --     15.2271                17.0998                15.9028
 Frc consts  --      3.6139                 5.8296                 5.5737
 IR Inten    --     28.0473                36.4047               171.0066

                     22                     23                     24
                      A                      A                      A
 Frequencies --    944.5834              1023.3957              1112.4468
 Red. masses --     12.8170                13.2571                 1.3139
 Frc consts  --      6.7378                 8.1806                 0.9580
 IR Inten    --     62.3695               170.8530                66.5081

                     25                     26                     27
                      A                      A                      A
 Frequencies --   1200.8120              1222.0214              1249.3142
 Red. masses --      9.9021                11.9134                 9.4223
 Frc consts  --      8.4126                10.4820                 8.6646
 IR Inten    --    105.3037               128.8470               432.7839

                     28                     29                     30
                      A                      A                      A
 Frequencies --   1273.0321              1353.1384              3782.0143
 Red. masses --     13.0135                12.8017                 1.0658
 Frc consts  --     12.4257                13.8103                 8.9819
 IR Inten    --    159.4504               152.4225               109.3598

 - Thermochemistry -
 -------------------
 Temperature   298.150 Kelvin.  Pressure   1.00000 Atm.
 Atom     1 has atomic number  6 and mass  12.00000

 Molecular mass:   199.95666 amu.
 Principal axes and moments of inertia in atomic units:
                           1         2         3
     Eigenvalues --  1337.192562078.980432663.88377
           X            0.85331  -0.26044   0.45169
           Y            0.39818   0.88480  -0.24205
           Z           -0.33662   0.38640   0.85871
 This molecule is an asymmetric top.
 Rotational symmetry number  1.
 Warning -- assumption of classical behavior for rotation
           may cause significant error
 Rotational temperatures (Kelvin)      0.06477     0.04166     0.03251
 Rotational constants (GHZ):           1.34965     0.86809     0.67748
 Zero-point vibrational energy     123947.1 (Joules/Mol)
                                   29.62407 (Kcal/Mol)
 Warning -- explicit consideration of  18 degrees of freedom as
           vibrations may cause significant error
 Vibrational temperatures:     44.45    66.57   115.92   186.75   229.71
          (Kelvin)            284.87   325.89   328.37   384.13   408.67
                              496.31   521.37   596.65   681.77   706.46
                              739.41   790.85   853.98   913.16  1094.44
                             1109.70  1359.04  1472.44  1600.56  1727.70
                             1758.22  1797.48  1831.61  1946.86  5441.48

 Zero-point correction=                           0.047209 (Hartree/Particle)
 Thermal correction to Energy=                    0.058886
 Thermal correction to Enthalpy=                  0.059830
 Thermal correction to Gibbs Free Energy=         0.008085
 Sum of electronic and zero-point Energies=          -1199.554648
 Sum of electronic and thermal Energies=             -1199.542971
 Sum of electronic and thermal Enthalpies=           -1199.542027
 Sum of electronic and thermal Free Energies=        -1199.593772

                     E (Thermal)             CV                S
                      KCal/Mol        Cal/Mol-Kelvin    Cal/Mol-Kelvin
 Total                   36.952             39.432            108.907
 Electronic               0.000              0.000              0.000
 Translational            0.889              2.981             41.783
 Rotational               0.889              2.981             30.383
 Vibrational             35.174             33.471             36.740
 Vibration     1          0.594              1.984              5.771
 Vibration     2          0.595              1.979              4.971
 Vibration     3          0.600              1.962              3.877
 Vibration     4          0.612              1.923              2.949
 Vibration     5          0.622              1.892              2.554
 Vibration     6          0.637              1.843              2.152
 Vibration     7          0.650              1.801              1.906
 Vibration     8          0.651              1.798              1.893
 Vibration     9          0.672              1.734              1.616
 Vibration    10          0.682              1.703              1.509
 Vibration    11          0.723              1.586              1.189
 Vibration    12          0.736              1.550              1.112
 Vibration    13          0.778              1.438              0.910
 Vibration    14          0.831              1.308              0.727
 Vibration    15          0.847              1.270              0.681
 Vibration    16          0.869              1.219              0.624
 Vibration    17          0.905              1.140              0.545
 Vibration    18          0.951              1.046              0.461

 Optimization completed.
    -- Stationary point found.
 Normal termination of Gaussian 16 at Fri May 23 07:45:22 2025.
