 Gaussian 16, Revision C.01,
 Gaussian 16:  ES64L-G16RevC.01  3-Jul-2019

 ----------------------------------------------------------------------
 #P wb97xd/6-311++G(d,p) Symm(None) scf(xqc) pop(None) opt(NoFreeze,TS,
 CalcAll,NoEigentest,MaxCycle=999)
 ----------------------------------------------------------------------

 ------------------------------
 Gaussian input prepared by ASE
 ------------------------------
 Symbolic Z-matrix:
 Charge =  0 Multiplicity = 1

 SCF Done:  E(RwB97XD) =  -1199.65998805     A.U. after   17 cycles
 SCF Done:  E(RwB97XD) =  -1199.67149600     A.U. after   17 cycles
 SCF Done:  E(RwB97XD) =  -1199.67421376     A.U. after   15 cycles
 SCF Done:  E(RwB97XD) =  -1199.67450301     A.U. after   14 cycles
 SCF Done:  E(RwB97XD) =  -1199.67452680     A.U. after   13 cycles
 SCF Done:  E(RwB97XD) =  -1199.67452727     A.U. after   11 cycles

 Isotropic polarizability for W=    0.000000       70.59 Bohr**3.
 End of Minotr F.D. properties file   721 does not exist.

 Optimization completed.
    -- Stationary point found.

                          Input orientation:
 ---------------------------------------------------------------------
 Center     Atomic      Atomic             Coordinates (Angstroms)
 Number     Number       Type             X           Y           Z
 ---------------------------------------------------------------------
      1          6           0       -0.253850    1.367533   -0.232132
      2          6           0        0.005033    0.012030    0.082557
      3          9           0       -0.311430   -0.344711    1.316437
      4          9           0       -0.381498   -0.882133   -0.816819
      5         16           0        2.302236    0.013505   -0.068607
      6          8           0        2.288906   -0.891323    1.050028
      7          8           0        2.250997   -0.329550   -1.465610
      8          8           0        3.700746    0.764575    0.188553
      9          9           0        1.647133    1.881129   -0.061289
     10          9           0       -0.397312    1.742053   -1.443828
     11          9           0       -0.625892    2.218844    0.646068
     12          1           0        3.743060    1.557149   -0.362336
 ---------------------------------------------------------------------

 ******    1 imaginary frequencies (negative Signs) ******

                      1                      2                      3
                      A                      A                      A
 Frequencies --   -643.7681                33.9958                76.1860
 Red. masses --     14.0869                14.5046                 8.5651
 Frc consts  --      3.4397                 0.0099                 0.0293
 IR Inten    --    191.3104                 0.8174                 8.4696

                      4                      5                      6
                      A                      A                      A
 Frequencies --    169.9626               191.2579               198.2838
 Red. masses --     13.5052                14.0942                12.6217
 Frc consts  --      0.2299                 0.3038                 0.2924
 IR Inten    --     19.2764                 4.3789                 2.8391

                      7                      8                      9
                      A                      A                      A
 Frequencies --    214.5606               242.3996               278.3149
 Red. masses --     18.1558                 4.1528                 6.9749
 Frc consts  --      0.4925                 0.1438                 0.3183
 IR Inten    --      4.6831                15.3367                 5.4272

                     10                     11                     12
                      A                      A                      A
 Frequencies --    303.1188               328.0225               370.6217
 Red. masses --     13.2287                14.2248                10.9471
 Frc consts  --      0.7161                 0.9018                 0.8860
 IR Inten    --     11.8787                14.8534                61.8331

                     13                     14                     15
                      A                      A                      A
 Frequencies --    425.2514               438.1532               489.3518
 Red. masses --      4.1326                 3.3935                 7.0182
 Frc consts  --      0.4403                 0.3838                 0.9902
 IR Inten    --    174.2821                62.9300                36.9561

                     16                     17                     18
                      A                      A                      A
 Frequencies --    520.5995               545.5991               555.6771
 Red. masses --     10.2130                14.5780                15.1510
 Frc consts  --      1.6308                 2.5568                 2.7564
 IR Inten    --    115.8376               164.3278                95.9385

                     19                     20                     21
                      A                      A                      A
 Frequencies --    600.6588               679.9613               782.9590
 Red. masses --     16.9881                12.2194                15.9243
 Frc consts  --      3.6112                 3.3287                 5.7516
 IR Inten    --      9.1070                14.6005               218.0723

                     22                     23                     24
                      A                      A                      A
 Frequencies --    822.0500              1132.3265              1199.7111
 Red. masses --     17.0354                10.4426                 3.8607
 Frc consts  --      6.7826                 7.8887                 3.2739
 IR Inten    --    200.9480                73.9936               296.8757

                     25                     26                     27
                      A                      A                      A
 Frequencies --   1207.1826              1294.2196              1398.5950
 Red. masses --      1.6325                13.0942                13.0576
 Frc consts  --      1.4017                12.9224                15.0487
 IR Inten    --    143.0986               121.8818               197.5341

                     28                     29                     30
                      A                      A                      A
 Frequencies --   1457.9365              1559.1654              3831.3719
 Red. masses --     13.2526                12.5205                 1.0659
 Frc consts  --     16.5970                17.9332                 9.2185
 IR Inten    --    343.4128               702.9867               134.1896

 - Thermochemistry -
 -------------------
 Temperature   298.150 Kelvin.  Pressure   1.00000 Atm.
 Atom     1 has atomic number  6 and mass  12.00000

 Molecular mass:   199.95666 amu.
 Principal axes and moments of inertia in atomic units:
                           1         2         3
     Eigenvalues --  1275.956632105.812332373.19502
           X            0.94817   0.31552   0.03761
           Y           -0.31542   0.92025   0.23162
           Z            0.03847  -0.23147   0.97208
 This molecule is an asymmetric top.
 Rotational symmetry number  1.
 Warning -- assumption of classical behavior for rotation
           may cause significant error
 Rotational temperatures (Kelvin)      0.06788     0.04113     0.03650
 Rotational constants (GHZ):           1.41442     0.85703     0.76047
    1 imaginary frequencies ignored.
 Zero-point vibrational energy     127686.4 (Joules/Mol)
                                   30.51777 (Kcal/Mol)
 Warning -- explicit consideration of  18 degrees of freedom as
           vibrations may cause significant error
 Vibrational temperatures:     48.91   109.61   244.54   275.18   285.29
          (Kelvin)            308.70   348.76   400.43   436.12   471.95
                              533.24   611.84   630.40   704.07   749.03
                              785.00   799.50   864.21   978.31  1126.50
                             1182.75  1629.17  1726.12  1736.87  1862.09
                             2012.27  2097.65  2243.29  5512.49

 Zero-point correction=                           0.048633 (Hartree/Particle)
 Thermal correction to Energy=                    0.059388
 Thermal correction to Enthalpy=                  0.060332
 Thermal correction to Gibbs Free Energy=         0.011417
 Sum of electronic and zero-point Energies=          -1199.625894
 Sum of electronic and thermal Energies=             -1199.615140
 Sum of electronic and thermal Enthalpies=           -1199.614195
 Sum of electronic and thermal Free Energies=        -1199.663110

                     E (Thermal)             CV                S
                      KCal/Mol        Cal/Mol-Kelvin    Cal/Mol-Kelvin
 Total                   37.266             37.424            102.950
 Electronic               0.000              0.000              0.000
 Translational            0.889              2.981             41.783
 Rotational               0.889              2.981             30.234
 Vibrational             35.489             31.462             30.932
 Vibration     1          0.594              1.983              5.581
 Vibration     2          0.599              1.965              3.987
 Vibration     3          0.625              1.879              2.436
 Vibration     4          0.634              1.852              2.216
 Vibration     5          0.637              1.842              2.149
 Vibration     6          0.644              1.819              2.005
 Vibration     7          0.659              1.775              1.785
 Vibration     8          0.679              1.714              1.544
 Vibration     9          0.695              1.668              1.400
 Vibration    10          0.711              1.619              1.270
 Vibration    11          0.743              1.533              1.077
 Vibration    12          0.787              1.415              0.874
 Vibration    13          0.798              1.387              0.832
 Vibration    14          0.845              1.274              0.685
 Vibration    15          0.876              1.204              0.609
 Vibration    16          0.901              1.149              0.553
 Vibration    17          0.911              1.127              0.533
 Vibration    18          0.959              1.030              0.449

 Normal termination of Gaussian 16 at Fri May 23 05:13:19 2025.
