 Gaussian 16, Revision C.01,
 Gaussian 16:  ES64L-G16RevC.01  3-Jul-2019

 ----------------------------------------------------------------------
 #P wb97xd/6-311++G(d,p) Symm(None) scf(xqc) pop(None) freq opt(CalcFC,
  Tight)
 ----------------------------------------------------------------------

 ------------------------------
 Gaussian input prepared by ASE
 ------------------------------
 Symbolic Z-matrix:
 Charge =  0 Multiplicity = 1

 SCF Done:  E(RwB97XD) =  -1199.66265363     A.U. after   16 cycles
 SCF Done:  E(RwB97XD) =  -1199.66928087     A.U. after   15 cycles
 SCF Done:  E(RwB97XD) =  -1199.66805201     A.U. after   14 cycles
 SCF Done:  E(RwB97XD) =  -1199.67128667     A.U. after   14 cycles
 SCF Done:  E(RwB97XD) =  -1199.67214757     A.U. after   14 cycles
 SCF Done:  E(RwB97XD) =  -1199.67338141     A.U. after   14 cycles
 SCF Done:  E(RwB97XD) =  -1199.56576368     A.U. after   16 cycles
 SCF Done:  E(RwB97XD) =  -1199.67446426     A.U. after   14 cycles
 SCF Done:  E(RwB97XD) =  -1199.67556271     A.U. after   14 cycles
 SCF Done:  E(RwB97XD) =  -1199.67461332     A.U. after   15 cycles
 SCF Done:  E(RwB97XD) =  -1199.67184394     A.U. after   14 cycles
 SCF Done:  E(RwB97XD) =  -1199.67577933     A.U. after   11 cycles
 SCF Done:  E(RwB97XD) =  -1199.67618909     A.U. after   13 cycles
 SCF Done:  E(RwB97XD) =  -1199.67620554     A.U. after   11 cycles
 SCF Done:  E(RwB97XD) =  -1199.67621013     A.U. after   10 cycles
 SCF Done:  E(RwB97XD) =  -1199.67621168     A.U. after   10 cycles
 SCF Done:  E(RwB97XD) =  -1199.67621181     A.U. after    9 cycles
 SCF Done:  E(RwB97XD) =  -1199.67621183     A.U. after    8 cycles
 SCF Done:  E(RwB97XD) =  -1199.67621183     A.U. after    6 cycles
 Optimization completed.
    -- Stationary point found.
 Normal termination of Gaussian 16 at Fri May 23 04:47:33 2025.

 ----------------------------------------------------------------------
 #P Geom=AllCheck Guess=TCheck SCRF=Check GenChk RwB97XD/6-311++G(d,p)
 Freq
 ----------------------------------------------------------------------

 Structure from the checkpoint file:  "/tmp/Gau-41985.chk"
 ------------------------------
 Gaussian input prepared by ASE
 ------------------------------
 Charge =  0 Multiplicity = 1

                          Input orientation:
 ---------------------------------------------------------------------
 Center     Atomic      Atomic             Coordinates (Angstroms)
 Number     Number       Type             X           Y           Z
 ---------------------------------------------------------------------
      1          6           0       -0.742039   -1.233812    0.365442
      2          6           0       -0.008287    0.019171   -0.159291
      3          9           0       -0.319317    0.187060   -1.454856
      4          9           0       -0.443999    1.101191    0.526832
      5         16           0        1.941256   -0.092084   -0.108990
      6          8           0        2.013206   -0.468826    1.417787
      7          8           0        3.417681   -0.151652    0.971852
      8          8           0        2.050745    1.491879   -0.369660
      9          9           0       -0.192168   -2.319113   -0.187274
     10          9           0       -0.639923   -1.323751    1.684348
     11          9           0       -2.029512   -1.197131    0.037875
     12          1           0        1.468678    2.005971    0.208311
 ---------------------------------------------------------------------

 SCF Done:  E(RwB97XD) =  -1199.67621183     A.U. after    1 cycles

 Isotropic polarizability for W=    0.000000       60.26 Bohr**3.
 End of Minotr F.D. properties file   721 does not exist.

                      1                      2                      3
                      A                      A                      A
 Frequencies --     51.6986                75.0665               118.1826
 Red. masses --     15.9260                13.8559                16.4963
 Frc consts  --      0.0251                 0.0460                 0.1358
 IR Inten    --      0.7791                 0.4121                 1.3693

                      4                      5                      6
                      A                      A                      A
 Frequencies --    159.6330               210.9841               226.3116
 Red. masses --     16.9319                14.0365                17.3573
 Frc consts  --      0.2542                 0.3681                 0.5238
 IR Inten    --      5.0774                 6.2682                 2.8788

                      7                      8                      9
                      A                      A                      A
 Frequencies --    255.8528               294.5922               307.3545
 Red. masses --     17.6881                 5.7341                12.3560
 Frc consts  --      0.6822                 0.2932                 0.6877
 IR Inten    --      1.4657                 8.2120                 4.0299

                     10                     11                     12
                      A                      A                      A
 Frequencies --    336.7707               373.5631               383.0914
 Red. masses --      4.2280                14.7310                 1.7950
 Frc consts  --      0.2825                 1.2112                 0.1552
 IR Inten    --      6.2659                 8.2853                98.8625

                     13                     14                     15
                      A                      A                      A
 Frequencies --    401.8444               448.9675               489.8467
 Red. masses --     12.7993                 6.8304                12.1113
 Frc consts  --      1.2177                 0.8112                 1.7122
 IR Inten    --     16.3573               235.2581                50.1210

                     16                     17                     18
                      A                      A                      A
 Frequencies --    540.2685               596.2233               635.3561
 Red. masses --     18.0075                17.5640                16.5100
 Frc consts  --      3.0969                 3.6787                 3.9267
 IR Inten    --      1.1427                 4.1257                11.6310

                     19                     20                     21
                      A                      A                      A
 Frequencies --    753.7646               812.7653               848.4603
 Red. masses --     16.9947                15.8870                17.3653
 Frc consts  --      5.6890                 6.1833                 7.3654
 IR Inten    --     18.2464               104.7627                56.8148

                     22                     23                     24
                      A                      A                      A
 Frequencies --    971.6986               994.2211              1143.4646
 Red. masses --     13.4694                16.1640                 8.4690
 Frc consts  --      7.4931                 9.4138                 6.5242
 IR Inten    --     66.9355                89.3055               232.0340

                     25                     26                     27
                      A                      A                      A
 Frequencies --   1169.9016              1199.7769              1225.1197
 Red. masses --      5.0777                 1.5888                 6.2293
 Frc consts  --      4.0947                 1.3475                 5.5087
 IR Inten    --    109.1493                75.4301               242.9391

                     28                     29                     30
                      A                      A                      A
 Frequencies --   1245.1525              1347.7774              3795.2835
 Red. masses --     13.0188                12.3985                 1.0658
 Frc consts  --     11.8923                13.2695                 9.0454
 IR Inten    --    318.2459               147.9826               124.6004

 - Thermochemistry -
 -------------------
 Temperature   298.150 Kelvin.  Pressure   1.00000 Atm.
 Atom     1 has atomic number  6 and mass  12.00000

 Molecular mass:   199.95666 amu.
 Principal axes and moments of inertia in atomic units:
                           1         2         3
     Eigenvalues --  1114.939662293.828122678.79899
           X            0.92522  -0.27284  -0.26366
           Y            0.37631   0.74867   0.54579
           Z            0.04848  -0.60420   0.79536
 This molecule is an asymmetric top.
 Rotational symmetry number  1.
 Warning -- assumption of classical behavior for rotation
           may cause significant error
 Rotational temperatures (Kelvin)      0.07768     0.03776     0.03233
 Rotational constants (GHZ):           1.61869     0.78678     0.67371
 Zero-point vibrational energy     128078.1 (Joules/Mol)
                                   30.61141 (Kcal/Mol)
 Warning -- explicit consideration of  17 degrees of freedom as
           vibrations may cause significant error
 Vibrational temperatures:     74.38   108.00   170.04   229.68   303.56
          (Kelvin)            325.61   368.12   423.85   442.21   484.54
                              537.47   551.18   578.16   645.96   704.78
                              777.33   857.83   914.14  1084.50  1169.39
                             1220.75  1398.06  1430.46  1645.19  1683.23
                             1726.21  1762.67  1791.50  1939.15  5460.57

 Zero-point correction=                           0.048782 (Hartree/Particle)
 Thermal correction to Energy=                    0.059686
 Thermal correction to Enthalpy=                  0.060630
 Thermal correction to Gibbs Free Energy=         0.011587
 Sum of electronic and zero-point Energies=          -1199.627429
 Sum of electronic and thermal Energies=             -1199.616526
 Sum of electronic and thermal Enthalpies=           -1199.615581
 Sum of electronic and thermal Free Energies=        -1199.664625

                     E (Thermal)             CV                S
                      KCal/Mol        Cal/Mol-Kelvin    Cal/Mol-Kelvin
 Total                   37.454             38.241            103.221
 Electronic               0.000              0.000              0.000
 Translational            0.889              2.981             41.783
 Rotational               0.889              2.981             30.306
 Vibrational             35.676             32.280             31.132
 Vibration     1          0.596              1.977              4.751
 Vibration     2          0.599              1.966              4.016
 Vibration     3          0.608              1.934              3.130
 Vibration     4          0.621              1.892              2.554
 Vibration     5          0.643              1.824              2.035
 Vibration     6          0.650              1.801              1.908
 Vibration     7          0.666              1.753              1.690
 Vibration     8          0.689              1.684              1.447
 Vibration     9          0.697              1.660              1.377
 Vibration    10          0.717              1.602              1.227
 Vibration    11          0.745              1.526              1.065
 Vibration    12          0.752              1.506              1.027
 Vibration    13          0.767              1.466              0.956
 Vibration    14          0.808              1.363              0.799
 Vibration    15          0.846              1.273              0.684
 Vibration    16          0.895              1.161              0.565
 Vibration    17          0.954              1.040              0.456

 Optimization completed.
    -- Stationary point found.
 Normal termination of Gaussian 16 at Fri May 23 04:48:56 2025.
