 Gaussian 16, Revision C.01,
 Gaussian 16:  ES64L-G16RevC.01  3-Jul-2019

 ----------------------------------------------------------------------
 #P wb97xd/6-311++G(d,p) Symm(None) scf(xqc) pop(None) freq opt(CalcFC,
  Tight)
 ----------------------------------------------------------------------

 ------------------------------
 Gaussian input prepared by ASE
 ------------------------------
 Symbolic Z-matrix:
 Charge =  0 Multiplicity = 1

 SCF Done:  E(RwB97XD) =  -1199.67560934     A.U. after   15 cycles
 SCF Done:  E(RwB97XD) =  -1199.68025420     A.U. after   14 cycles
 SCF Done:  E(RwB97XD) =  -1199.68051186     A.U. after   14 cycles
 SCF Done:  E(RwB97XD) =  -1199.68054655     A.U. after   12 cycles
 SCF Done:  E(RwB97XD) =  -1199.68054964     A.U. after   12 cycles
 SCF Done:  E(RwB97XD) =  -1199.68055001     A.U. after   10 cycles
 SCF Done:  E(RwB97XD) =  -1199.68055001     A.U. after    8 cycles
 SCF Done:  E(RwB97XD) =  -1199.68055001     A.U. after    5 cycles
 Optimization completed.
    -- Stationary point found.
 Normal termination of Gaussian 16 at Fri May 23 04:46:13 2025.

 ----------------------------------------------------------------------
 #P Geom=AllCheck Guess=TCheck SCRF=Check GenChk RwB97XD/6-311++G(d,p)
 Freq
 ----------------------------------------------------------------------

 Structure from the checkpoint file:  "/tmp/Gau-257319.chk"
 ------------------------------
 Gaussian input prepared by ASE
 ------------------------------
 Charge =  0 Multiplicity = 1

                          Input orientation:
 ---------------------------------------------------------------------
 Center     Atomic      Atomic             Coordinates (Angstroms)
 Number     Number       Type             X           Y           Z
 ---------------------------------------------------------------------
      1          6           0       -0.739804   -1.252827    0.352692
      2          6           0       -0.047288    0.092132    0.023054
      3          9           0       -0.370031    0.435138   -1.237045
      4          9           0       -0.482201    1.027797    0.864034
      5         16           0        1.880282   -0.065177    0.024360
      6          8           0        2.057693   -0.482773    1.527279
      7          8           0        3.447254   -0.112937    1.083404
      8          8           0        1.950228    1.545345   -0.097499
      9          9           0       -0.183240   -2.223365   -0.380356
     10          9           0       -0.596630   -1.552978    1.636535
     11          9           0       -2.034429   -1.192826    0.066654
     12          1           0        2.864099    1.800334    0.088256
 ---------------------------------------------------------------------

 SCF Done:  E(RwB97XD) =  -1199.68055001     A.U. after    1 cycles

 Isotropic polarizability for W=    0.000000       60.68 Bohr**3.
 End of Minotr F.D. properties file   721 does not exist.

                      1                      2                      3
                      A                      A                      A
 Frequencies --     39.5463                66.5088               113.5364
 Red. masses --     15.6870                14.2835                15.5990
 Frc consts  --      0.0145                 0.0372                 0.1185
 IR Inten    --      1.4849                 1.0372                 0.3887

                      4                      5                      6
                      A                      A                      A
 Frequencies --    158.1899               223.5647               223.6866
 Red. masses --     14.5232                11.0771                17.0467
 Frc consts  --      0.2141                 0.3262                 0.5025
 IR Inten    --      1.7438                 1.2039                 2.2127

                      7                      8                      9
                      A                      A                      A
 Frequencies --    247.1909               295.7613               306.1057
 Red. masses --      8.9186                14.5182                13.2384
 Frc consts  --      0.3211                 0.7482                 0.7309
 IR Inten    --     17.5974                 5.7850                 4.3555

                     10                     11                     12
                      A                      A                      A
 Frequencies --    325.6219               362.2312               370.8753
 Red. masses --      1.8959                16.6674                16.9968
 Frc consts  --      0.1184                 1.2885                 1.3774
 IR Inten    --     81.8924               111.4309                47.0872

                     13                     14                     15
                      A                      A                      A
 Frequencies --    415.8557               442.5692               490.5360
 Red. masses --     15.3281                 2.2704                17.0859
 Frc consts  --      1.5618                 0.2620                 2.4223
 IR Inten    --     62.2872                80.3267                36.7782

                     16                     17                     18
                      A                      A                      A
 Frequencies --    542.2547               597.5964               639.8999
 Red. masses --     17.7636                17.9545                16.0980
 Frc consts  --      3.0774                 3.7778                 3.8837
 IR Inten    --      2.2888                 2.7596                22.5325

                     19                     20                     21
                      A                      A                      A
 Frequencies --    756.7979               820.6274               847.9091
 Red. masses --     17.0876                17.5338                16.3719
 Frc consts  --      5.7662                 6.9569                 6.9350
 IR Inten    --     15.0980                93.1404                31.8589

                     22                     23                     24
                      A                      A                      A
 Frequencies --    971.2884               992.0564              1138.7250
 Red. masses --     13.3558                15.6373                 1.9584
 Frc consts  --      7.4236                 9.0674                 1.4962
 IR Inten    --     82.2013                72.9982               280.2453

                     25                     26                     27
                      A                      A                      A
 Frequencies --   1165.1988              1215.2514              1223.9892
 Red. masses --      2.6920                11.3010                10.4820
 Frc consts  --      2.1534                 9.8333                 9.2523
 IR Inten    --     27.5251               253.0725               123.9137

                     28                     29                     30
                      A                      A                      A
 Frequencies --   1248.4728              1353.4174              3821.0051
 Red. masses --     12.2877                11.4122                 1.0653
 Frc consts  --     11.2844                12.3163                 9.1636
 IR Inten    --    331.7413               143.2509               164.4072

 - Thermochemistry -
 -------------------
 Temperature   298.150 Kelvin.  Pressure   1.00000 Atm.
 Atom     1 has atomic number  6 and mass  12.00000

 Molecular mass:   199.95666 amu.
 Principal axes and moments of inertia in atomic units:
                           1         2         3
     Eigenvalues --  1101.251442315.277242684.54365
           X            0.92077  -0.27815  -0.27354
           Y            0.37840   0.80730   0.45285
           Z            0.09487  -0.52048   0.84859
 This molecule is an asymmetric top.
 Rotational symmetry number  1.
 Warning -- assumption of classical behavior for rotation
           may cause significant error
 Rotational temperatures (Kelvin)      0.07865     0.03741     0.03226
 Rotational constants (GHZ):           1.63881     0.77949     0.67227
 Zero-point vibrational energy     128097.7 (Joules/Mol)
                                   30.61609 (Kcal/Mol)
 Warning -- explicit consideration of  17 degrees of freedom as
           vibrations may cause significant error
 Vibrational temperatures:     56.90    95.69   163.35   227.60   321.66
          (Kelvin)            321.84   355.65   425.53   440.42   468.50
                              521.17   533.61   598.32   636.76   705.77
                              780.18   859.81   920.67  1088.86  1180.70
                             1219.95  1397.47  1427.35  1638.37  1676.46
                             1748.48  1761.05  1796.27  1947.27  5497.57

 Zero-point correction=                           0.048790 (Hartree/Particle)
 Thermal correction to Energy=                    0.059767
 Thermal correction to Enthalpy=                  0.060711
 Thermal correction to Gibbs Free Energy=         0.011222
 Sum of electronic and zero-point Energies=          -1199.631760
 Sum of electronic and thermal Energies=             -1199.620783
 Sum of electronic and thermal Enthalpies=           -1199.619839
 Sum of electronic and thermal Free Energies=        -1199.669328

                     E (Thermal)             CV                S
                      KCal/Mol        Cal/Mol-Kelvin    Cal/Mol-Kelvin
 Total                   37.504             38.272            104.157
 Electronic               0.000              0.000              0.000
 Translational            0.889              2.981             41.783
 Rotational               0.889              2.981             30.305
 Vibrational             35.727             32.311             32.069
 Vibration     1          0.594              1.981              5.282
 Vibration     2          0.598              1.970              4.254
 Vibration     3          0.607              1.938              3.208
 Vibration     4          0.621              1.893              2.571
 Vibration     5          0.649              1.805              1.930
 Vibration     6          0.649              1.805              1.929
 Vibration     7          0.661              1.767              1.751
 Vibration     8          0.690              1.682              1.441
 Vibration     9          0.696              1.662              1.383
 Vibration    10          0.710              1.624              1.282
 Vibration    11          0.736              1.550              1.113
 Vibration    12          0.743              1.532              1.076
 Vibration    13          0.779              1.436              0.906
 Vibration    14          0.802              1.377              0.819
 Vibration    15          0.846              1.271              0.682
 Vibration    16          0.897              1.157              0.560
 Vibration    17          0.956              1.037              0.454

 Optimization completed.
    -- Stationary point found.
 Normal termination of Gaussian 16 at Fri May 23 04:47:33 2025.
