 Gaussian 16, Revision C.01,
 Gaussian 16:  ES64L-G16RevC.01  3-Jul-2019

 ----------------------------------------------------------------------
 #P wb97xd/6-311++G(d,p) Symm(None) scf(xqc) pop(None) freq opt(CalcFC,
  Tight)
 ----------------------------------------------------------------------

 ------------------------------
 Gaussian input prepared by ASE
 ------------------------------
 Symbolic Z-matrix:
 Charge =  0 Multiplicity = 1

 SCF Done:  E(RwB97XD) =  -1199.66502339     A.U. after   15 cycles
 SCF Done:  E(RwB97XD) =  -1199.66991961     A.U. after   14 cycles
 SCF Done:  E(RwB97XD) =  -1199.66061466     A.U. after   14 cycles
 SCF Done:  E(RwB97XD) =  -1199.67120485     A.U. after   14 cycles
 SCF Done:  E(RwB97XD) =  -1199.67259577     A.U. after   15 cycles
 SCF Done:  E(RwB97XD) =  -1199.67301043     A.U. after   13 cycles
 SCF Done:  E(RwB97XD) =  -1199.67336557     A.U. after   14 cycles
 SCF Done:  E(RwB97XD) =  -1199.67365143     A.U. after   15 cycles
 SCF Done:  E(RwB97XD) =  -1199.67466259     A.U. after   13 cycles
 SCF Done:  E(RwB97XD) =  -1199.67523634     A.U. after   14 cycles
 SCF Done:  E(RwB97XD) =  -1199.67526085     A.U. after   13 cycles
 SCF Done:  E(RwB97XD) =  -1199.67540320     A.U. after   13 cycles
 SCF Done:  E(RwB97XD) =  -1199.67541222     A.U. after   12 cycles
 SCF Done:  E(RwB97XD) =  -1199.67541760     A.U. after   11 cycles
 SCF Done:  E(RwB97XD) =  -1199.67541777     A.U. after    9 cycles
 SCF Done:  E(RwB97XD) =  -1199.67541779     A.U. after    8 cycles
 SCF Done:  E(RwB97XD) =  -1199.67541779     A.U. after    6 cycles
 SCF Done:  E(RwB97XD) =  -1199.67541779     A.U. after    4 cycles
 Optimization completed.
    -- Stationary point found.
 Normal termination of Gaussian 16 at Fri May 23 04:50:32 2025.

 ----------------------------------------------------------------------
 #P Geom=AllCheck Guess=TCheck SCRF=Check GenChk RwB97XD/6-311++G(d,p)
 Freq
 ----------------------------------------------------------------------

 Structure from the checkpoint file:  "/tmp/Gau-54225.chk"
 ------------------------------
 Gaussian input prepared by ASE
 ------------------------------
 Charge =  0 Multiplicity = 1

                          Input orientation:
 ---------------------------------------------------------------------
 Center     Atomic      Atomic             Coordinates (Angstroms)
 Number     Number       Type             X           Y           Z
 ---------------------------------------------------------------------
      1          6           0       -0.775421    0.878746    0.931121
      2          6           0       -0.020469   -0.104564    0.006082
      3          9           0       -0.342739   -1.359263    0.367693
      4          9           0       -0.428012    0.097765   -1.257827
      5         16           0        1.926041   -0.077922   -0.033432
      6          8           0        2.089038   -0.049794    1.531943
      7          8           0        3.466578    0.128494    0.946014
      8          8           0        2.012842    1.380868   -0.704328
      9          9           0       -0.596367    0.568351    2.203422
     10          9           0       -0.303750    2.129584    0.731097
     11          9           0       -2.073612    0.887438    0.664886
     12          1           0        1.562194    2.064759   -0.189925
 ---------------------------------------------------------------------

 SCF Done:  E(RwB97XD) =  -1199.67541779     A.U. after    1 cycles

 Isotropic polarizability for W=    0.000000       60.41 Bohr**3.
 End of Minotr F.D. properties file   721 does not exist.

                      1                      2                      3
                      A                      A                      A
 Frequencies --     47.7189                75.0620               124.4881
 Red. masses --     16.2989                14.3670                15.0889
 Frc consts  --      0.0219                 0.0477                 0.1378
 IR Inten    --      0.4406                 1.3100                 0.2110

                      4                      5                      6
                      A                      A                      A
 Frequencies --    172.7344               195.1488               215.4436
 Red. masses --     11.6284                10.3674                 3.4653
 Frc consts  --      0.2044                 0.2326                 0.0948
 IR Inten    --      6.3404                21.5672                22.4067

                      7                      8                      9
                      A                      A                      A
 Frequencies --    247.9234               269.1093               278.9720
 Red. masses --      2.0224                13.0475                 5.7195
 Frc consts  --      0.0732                 0.5567                 0.2623
 IR Inten    --     26.1800                 4.6190                23.0736

                     10                     11                     12
                      A                      A                      A
 Frequencies --    317.6969               350.8338               370.2149
 Red. masses --     12.1540                11.5445                16.0956
 Frc consts  --      0.7228                 0.8372                 1.2998
 IR Inten    --      8.5899                40.5133                35.1326

                     13                     14                     15
                      A                      A                      A
 Frequencies --    416.6702               443.1110               462.7880
 Red. masses --     10.1673                17.0383                13.5729
 Frc consts  --      1.0400                 1.9711                 1.7127
 IR Inten    --     27.3746               169.7565                78.9288

                     16                     17                     18
                      A                      A                      A
 Frequencies --    538.7157               592.9705               638.6894
 Red. masses --     17.9646                17.8208                16.0150
 Frc consts  --      3.0718                 3.6919                 3.8491
 IR Inten    --      2.9889                 1.9602                 2.9527

                     19                     20                     21
                      A                      A                      A
 Frequencies --    752.6885               812.7218               849.8881
 Red. masses --     16.9839                14.4831                17.1849
 Frc consts  --      5.6692                 5.6363                 7.3134
 IR Inten    --     13.9394               102.9881                44.1715

                     22                     23                     24
                      A                      A                      A
 Frequencies --    986.2311               992.0138              1133.5570
 Red. masses --     13.0153                14.2627                 3.6669
 Frc consts  --      7.4587                 8.2697                 2.7761
 IR Inten    --     46.9675                80.6660               309.3266

                     25                     26                     27
                      A                      A                      A
 Frequencies --   1160.7625              1189.5242              1206.3922
 Red. masses --      2.4813                 9.3883                 3.3621
 Frc consts  --      1.9698                 7.8268                 2.8830
 IR Inten    --     68.6377               175.8043                66.0578

                     28                     29                     30
                      A                      A                      A
 Frequencies --   1257.0976              1338.2337              3803.9169
 Red. masses --     12.7318                12.5343                 1.0662
 Frc consts  --     11.8543                13.2256                 9.0894
 IR Inten    --    307.1040               225.9301               162.0202

 - Thermochemistry -
 -------------------
 Temperature   298.150 Kelvin.  Pressure   1.00000 Atm.
 Atom     1 has atomic number  6 and mass  12.00000

 Molecular mass:   199.95666 amu.
 Principal axes and moments of inertia in atomic units:
                           1         2         3
     Eigenvalues --  1155.453212332.949892431.08248
           X            0.98841   0.12139   0.09120
           Y           -0.13089   0.37680   0.91700
           Z           -0.07695   0.91831  -0.38832
 This molecule is an asymmetric top.
 Rotational symmetry number  1.
 Warning -- assumption of classical behavior for rotation
           may cause significant error
 Rotational temperatures (Kelvin)      0.07496     0.03713     0.03563
 Rotational constants (GHZ):           1.56193     0.77359     0.74236
 Zero-point vibrational energy     127051.3 (Joules/Mol)
                                   30.36599 (Kcal/Mol)
 Warning -- explicit consideration of  17 degrees of freedom as
           vibrations may cause significant error
 Vibrational temperatures:     68.66   108.00   179.11   248.53   280.78
          (Kelvin)            309.98   356.71   387.19   401.38   457.09
                              504.77   532.66   599.50   637.54   665.85
                              775.09   853.15   918.93  1082.95  1169.33
                             1222.80  1418.97  1427.29  1630.94  1670.08
                             1711.46  1735.73  1808.68  1925.42  5472.99

 Zero-point correction=                           0.048391 (Hartree/Particle)
 Thermal correction to Energy=                    0.059466
 Thermal correction to Enthalpy=                  0.060410
 Thermal correction to Gibbs Free Energy=         0.011005
 Sum of electronic and zero-point Energies=          -1199.627027
 Sum of electronic and thermal Energies=             -1199.615952
 Sum of electronic and thermal Enthalpies=           -1199.615007
 Sum of electronic and thermal Free Energies=        -1199.664413

                     E (Thermal)             CV                S
                      KCal/Mol        Cal/Mol-Kelvin    Cal/Mol-Kelvin
 Total                   37.316             38.545            103.982
 Electronic               0.000              0.000              0.000
 Translational            0.889              2.981             41.783
 Rotational               0.889              2.981             30.262
 Vibrational             35.538             32.583             31.937
 Vibration     1          0.595              1.978              4.910
 Vibration     2          0.599              1.966              4.016
 Vibration     3          0.610              1.929              3.029
 Vibration     4          0.626              1.876              2.406
 Vibration     5          0.636              1.847              2.178
 Vibration     6          0.645              1.817              1.997
 Vibration     7          0.662              1.766              1.745
 Vibration     8          0.674              1.730              1.602
 Vibration     9          0.679              1.712              1.540
 Vibration    10          0.704              1.640              1.322
 Vibration    11          0.728              1.574              1.162
 Vibration    12          0.742              1.533              1.079
 Vibration    13          0.780              1.434              0.903
 Vibration    14          0.803              1.376              0.817
 Vibration    15          0.820              1.333              0.758
 Vibration    16          0.894              1.164              0.568
 Vibration    17          0.951              1.047              0.462

                           ! Non-Optimized Parameters !
 Normal termination of Gaussian 16 at Fri May 23 04:51:59 2025.
