 Gaussian 16, Revision C.01,
 Gaussian 16:  ES64L-G16RevC.01  3-Jul-2019

 ----------------------------------------------------------------------
 #P wb97xd/6-311++G(d,p) Symm(None) scf(xqc) pop(None) freq opt(CalcFC,
  Tight)
 ----------------------------------------------------------------------

 ------------------------------
 Gaussian input prepared by ASE
 ------------------------------
 Symbolic Z-matrix:
 Charge =  0 Multiplicity = 1

 SCF Done:  E(RwB97XD) =  -1199.71820575     A.U. after   15 cycles
 SCF Done:  E(RwB97XD) =  -1199.72810261     A.U. after   14 cycles
 SCF Done:  E(RwB97XD) =  -1199.72791502     A.U. after   14 cycles
 SCF Done:  E(RwB97XD) =  -1199.73032440     A.U. after   13 cycles
 SCF Done:  E(RwB97XD) =  -1199.73049805     A.U. after   13 cycles
 SCF Done:  E(RwB97XD) =  -1199.73052112     A.U. after   11 cycles
 SCF Done:  E(RwB97XD) =  -1199.73053005     A.U. after    9 cycles
 SCF Done:  E(RwB97XD) =  -1199.73054693     A.U. after   10 cycles
 SCF Done:  E(RwB97XD) =  -1199.73057823     A.U. after   12 cycles
 SCF Done:  E(RwB97XD) =  -1199.73060569     A.U. after   12 cycles
 SCF Done:  E(RwB97XD) =  -1199.73078481     A.U. after   11 cycles
 SCF Done:  E(RwB97XD) =  -1199.73064135     A.U. after   12 cycles
 SCF Done:  E(RwB97XD) =  -1199.73080459     A.U. after   12 cycles
 SCF Done:  E(RwB97XD) =  -1199.73080806     A.U. after   10 cycles
 SCF Done:  E(RwB97XD) =  -1199.73080885     A.U. after   10 cycles
 SCF Done:  E(RwB97XD) =  -1199.73080892     A.U. after    7 cycles
 SCF Done:  E(RwB97XD) =  -1199.73080894     A.U. after    7 cycles
 SCF Done:  E(RwB97XD) =  -1199.73080894     A.U. after    6 cycles
 SCF Done:  E(RwB97XD) =  -1199.73080894     A.U. after    5 cycles
 Optimization completed.
    -- Stationary point found.
 Normal termination of Gaussian 16 at Fri May 23 04:41:37 2025.

 ----------------------------------------------------------------------
 #P Geom=AllCheck Guess=TCheck SCRF=Check GenChk RwB97XD/6-311++G(d,p)
 Freq
 ----------------------------------------------------------------------

 Structure from the checkpoint file:  "/tmp/Gau-221115.chk"
 ------------------------------
 Gaussian input prepared by ASE
 ------------------------------
 Charge =  0 Multiplicity = 1

                          Input orientation:
 ---------------------------------------------------------------------
 Center     Atomic      Atomic             Coordinates (Angstroms)
 Number     Number       Type             X           Y           Z
 ---------------------------------------------------------------------
      1          6           0        0.232832   -0.256903    1.536801
      2          6           0        0.020882    0.042375    0.003207
      3          9           0       -0.622430   -0.867944   -0.671295
      4          9           0       -0.473635    1.221748   -0.263855
      5         16           0        1.993690   -0.088936   -0.004241
      6          8           0        1.609769   -0.339792    1.602523
      7          8           0        3.399698   -0.244812   -0.305083
      8          8           0        1.965437    1.576376    0.009612
      9          9           0        1.648859   -1.726864   -0.411509
     10          9           0       -0.220738    0.729399    2.303115
     11          9           0       -0.340128   -1.388830    1.920000
     12          1           0        2.872922    1.898851    0.059913
 ---------------------------------------------------------------------

 SCF Done:  E(RwB97XD) =  -1199.73080894     A.U. after    1 cycles

 Isotropic polarizability for W=    0.000000       59.25 Bohr**3.
 End of Minotr F.D. properties file   721 does not exist.

                      1                      2                      3
                      A                      A                      A
 Frequencies --     57.7670                76.6201               206.0783
 Red. masses --     13.8726                13.7212                18.6982
 Frc consts  --      0.0273                 0.0475                 0.4679
 IR Inten    --      1.1096                 0.1931                 0.1475

                      4                      5                      6
                      A                      A                      A
 Frequencies --    232.0734               263.3260               277.4932
 Red. masses --     15.7009                16.8921                14.1195
 Frc consts  --      0.4982                 0.6901                 0.6406
 IR Inten    --      0.5736                 3.1483                 0.5151

                      7                      8                      9
                      A                      A                      A
 Frequencies --    287.9231               340.1153               352.3631
 Red. masses --     10.3803                16.2503                 8.7960
 Frc consts  --      0.5070                 1.1076                 0.6435
 IR Inten    --      5.2071                 4.3475                 6.8749

                     10                     11                     12
                      A                      A                      A
 Frequencies --    443.0810               452.7214               473.8929
 Red. masses --      4.6297                 4.0528                 8.7505
 Frc consts  --      0.5355                 0.4894                 1.1578
 IR Inten    --      8.7846                 3.6321                42.6750

                     13                     14                     15
                      A                      A                      A
 Frequencies --    516.7609               530.5340               572.3325
 Red. masses --      9.6495                 2.5374                 7.5603
 Frc consts  --      1.5182                 0.4208                 1.4591
 IR Inten    --     48.8182               126.3793                21.6718

                     16                     17                     18
                      A                      A                      A
 Frequencies --    605.4068               615.8937               623.8009
 Red. masses --     15.9982                13.4439                11.4314
 Frc consts  --      3.4547                 3.0046                 2.6208
 IR Inten    --      1.0446                24.6772                39.6607

                     19                     20                     21
                      A                      A                      A
 Frequencies --    724.0724               730.5571               818.7752
 Red. masses --     17.2428                18.4244                16.1078
 Frc consts  --      5.3263                 5.7936                 6.3623
 IR Inten    --    124.7205               290.6268               138.6303

                     22                     23                     24
                      A                      A                      A
 Frequencies --    876.7848              1100.6295              1149.2702
 Red. masses --     13.2060                 1.7607                 4.6993
 Frc consts  --      5.9815                 1.2566                 3.6570
 IR Inten    --    147.1328                93.9372               207.6908

                     25                     26                     27
                      A                      A                      A
 Frequencies --   1220.4620              1247.0006              1285.0442
 Red. masses --      8.4257                12.9503                 9.3884
 Frc consts  --      7.3945                11.8649                 9.1343
 IR Inten    --    223.3755               298.0136               295.9909

                     28                     29                     30
                      A                      A                      A
 Frequencies --   1330.0771              1361.7080              3851.5392
 Red. masses --     10.5671                12.0127                 1.0662
 Frc consts  --     11.0144                13.1237                 9.3191
 IR Inten    --    153.8048               198.3257               151.2272

 - Thermochemistry -
 -------------------
 Temperature   298.150 Kelvin.  Pressure   1.00000 Atm.
 Atom     1 has atomic number  6 and mass  12.00000

 Molecular mass:   199.95666 amu.
 Principal axes and moments of inertia in atomic units:
                           1         2         3
     Eigenvalues --  1282.898121918.373261991.80816
           X            0.88989   0.01186   0.45601
           Y            0.00703   0.99919  -0.03971
           Z           -0.45611   0.03854   0.88909
 This molecule is an asymmetric top.
 Rotational symmetry number  1.
 Warning -- assumption of classical behavior for rotation
           may cause significant error
 Rotational temperatures (Kelvin)      0.06751     0.04515     0.04349
 Rotational constants (GHZ):           1.40677     0.94077     0.90608
 Zero-point vibrational energy     135322.2 (Joules/Mol)
                                   32.34278 (Kcal/Mol)
 Warning -- explicit consideration of  17 degrees of freedom as
           vibrations may cause significant error
 Vibrational temperatures:     83.11   110.24   296.50   333.90   378.87
          (Kelvin)            399.25   414.26   489.35   506.97   637.49
                              651.37   681.83   743.50   763.32   823.46
                              871.05   886.13   897.51  1041.78  1051.11
                             1178.03  1261.50  1583.56  1653.54  1755.97
                             1794.16  1848.89  1913.68  1959.19  5541.51

 Zero-point correction=                           0.051542 (Hartree/Particle)
 Thermal correction to Energy=                    0.061383
 Thermal correction to Enthalpy=                  0.062327
 Thermal correction to Gibbs Free Energy=         0.015901
 Sum of electronic and zero-point Energies=          -1199.679267
 Sum of electronic and thermal Energies=             -1199.669426
 Sum of electronic and thermal Enthalpies=           -1199.668482
 Sum of electronic and thermal Free Energies=        -1199.714908

                     E (Thermal)             CV                S
                      KCal/Mol        Cal/Mol-Kelvin    Cal/Mol-Kelvin
 Total                   38.519             36.373             97.712
 Electronic               0.000              0.000              0.000
 Translational            0.889              2.981             41.783
 Rotational               0.889              2.981             29.973
 Vibrational             36.741             30.411             25.955
 Vibration     1          0.596              1.974              4.532
 Vibration     2          0.599              1.965              3.976
 Vibration     3          0.641              1.831              2.078
 Vibration     4          0.653              1.792              1.863
 Vibration     5          0.670              1.740              1.640
 Vibration     6          0.678              1.715              1.549
 Vibration     7          0.685              1.696              1.486
 Vibration     8          0.720              1.595              1.212
 Vibration     9          0.729              1.570              1.156
 Vibration    10          0.803              1.376              0.817
 Vibration    11          0.811              1.355              0.788
 Vibration    12          0.831              1.308              0.727
 Vibration    13          0.872              1.213              0.618
 Vibration    14          0.885              1.182              0.586
 Vibration    15          0.929              1.091              0.500
 Vibration    16          0.964              1.020              0.440
 Vibration    17          0.975              0.998              0.423

 Optimization completed.
    -- Stationary point found.
 Normal termination of Gaussian 16 at Fri May 23 04:42:59 2025.
