 Gaussian 16, Revision C.01,
 Gaussian 16:  ES64L-G16RevC.01  3-Jul-2019

 ----------------------------------------------------------------------
 #P wb97xd/6-311++G(d,p) Symm(None) scf(xqc) pop(None) freq opt(CalcFC,
  Tight)
 ----------------------------------------------------------------------

 ------------------------------
 Gaussian input prepared by ASE
 ------------------------------
 Symbolic Z-matrix:
 Charge =  0 Multiplicity = 1

 SCF Done:  E(RwB97XD) =  -1199.67482967     A.U. after   15 cycles
 SCF Done:  E(RwB97XD) =  -1199.67999089     A.U. after   14 cycles
 SCF Done:  E(RwB97XD) =  -1199.68079664     A.U. after   14 cycles
 SCF Done:  E(RwB97XD) =  -1199.68109924     A.U. after   15 cycles
 SCF Done:  E(RwB97XD) =  -1199.68131142     A.U. after   13 cycles
 SCF Done:  E(RwB97XD) =  -1199.68133267     A.U. after   13 cycles
 SCF Done:  E(RwB97XD) =  -1199.68133540     A.U. after   11 cycles
 SCF Done:  E(RwB97XD) =  -1199.68133586     A.U. after   10 cycles
 SCF Done:  E(RwB97XD) =  -1199.68133590     A.U. after    9 cycles
 SCF Done:  E(RwB97XD) =  -1199.68133591     A.U. after    8 cycles
 SCF Done:  E(RwB97XD) =  -1199.68133591     A.U. after    4 cycles
 Optimization completed.
    -- Stationary point found.
 Normal termination of Gaussian 16 at Fri May 23 04:44:16 2025.

 ----------------------------------------------------------------------
 #P Geom=AllCheck Guess=TCheck SCRF=Check GenChk RwB97XD/6-311++G(d,p)
 Freq
 ----------------------------------------------------------------------

 Structure from the checkpoint file:  "/tmp/Gau-218318.chk"
 ------------------------------
 Gaussian input prepared by ASE
 ------------------------------
 Charge =  0 Multiplicity = 1

                          Input orientation:
 ---------------------------------------------------------------------
 Center     Atomic      Atomic             Coordinates (Angstroms)
 Number     Number       Type             X           Y           Z
 ---------------------------------------------------------------------
      1          6           0       -0.734165    0.415188   -1.216871
      2          6           0       -0.061677    0.047898    0.130564
      3          9           0       -0.425224    0.922313    1.067545
      4          9           0       -0.478967   -1.182061    0.487755
      5         16           0        1.854003   -0.147851    0.035905
      6          8           0        2.062864   -0.346393    1.582550
      7          8           0        3.442728   -0.091596    1.042744
      8          8           0        1.973570    1.422646   -0.331750
      9          9           0       -0.607954    1.705060   -1.484859
     10          9           0       -0.153517   -0.288471   -2.197743
     11          9           0       -2.026766    0.109983   -1.186986
     12          1           0        2.901040    1.674929   -0.228656
 ---------------------------------------------------------------------

 SCF Done:  E(RwB97XD) =  -1199.68133591     A.U. after    1 cycles

 Isotropic polarizability for W=    0.000000       60.81 Bohr**3.
 End of Minotr F.D. properties file   721 does not exist.

                      1                      2                      3
                      A                      A                      A
 Frequencies --     39.8566                64.4041               118.8470
 Red. masses --     12.2122                16.9804                15.6792
 Frc consts  --      0.0114                 0.0415                 0.1305
 IR Inten    --      1.4281                 0.6760                 2.3453

                      4                      5                      6
                      A                      A                      A
 Frequencies --    167.8281               202.3972               228.6098
 Red. masses --     13.1955                15.9375                18.6246
 Frc consts  --      0.2190                 0.3847                 0.5735
 IR Inten    --      1.3973                 3.2246                 1.1059

                      7                      8                      9
                      A                      A                      A
 Frequencies --    254.5040               287.5996               312.2169
 Red. masses --      8.6495                15.6221                12.2315
 Frc consts  --      0.3301                 0.7613                 0.7025
 IR Inten    --     22.2425                 3.3781                 4.1814

                     10                     11                     12
                      A                      A                      A
 Frequencies --    349.0615               364.4865               372.2635
 Red. masses --      2.4783                16.7881                16.8258
 Frc consts  --      0.1779                 1.3141                 1.3738
 IR Inten    --     53.7646               105.0939                20.8903

                     13                     14                     15
                      A                      A                      A
 Frequencies --    419.5287               474.2988               492.3668
 Red. masses --     12.0442                 1.7785                16.6641
 Frc consts  --      1.2490                 0.2357                 2.3802
 IR Inten    --     93.4555                99.1927                35.4200

                     16                     17                     18
                      A                      A                      A
 Frequencies --    543.7141               597.4778               638.5917
 Red. masses --     17.5675                17.4580                17.2878
 Frc consts  --      3.0599                 3.6719                 4.1537
 IR Inten    --      2.1913                 1.7446                19.7506

                     19                     20                     21
                      A                      A                      A
 Frequencies --    756.6294               823.1488               848.7978
 Red. masses --     16.9685                17.3862                16.6001
 Frc consts  --      5.7235                 6.9408                 7.0464
 IR Inten    --     17.7102                72.2779                44.4980

                     22                     23                     24
                      A                      A                      A
 Frequencies --    960.7262              1001.7513              1149.1610
 Red. masses --     14.1595                11.6926                11.3016
 Frc consts  --      7.7001                 6.9132                 8.7933
 IR Inten    --    125.5143                 9.8173               168.5964

                     25                     26                     27
                      A                      A                      A
 Frequencies --   1151.2449              1212.5381              1225.2473
 Red. masses --      1.3890                10.8685                 6.2638
 Frc consts  --      1.0846                 9.4148                 5.5403
 IR Inten    --    207.0962               274.1423                65.4931

                     28                     29                     30
                      A                      A                      A
 Frequencies --   1249.7094              1343.4363              3822.4082
 Red. masses --     12.7915                12.6369                 1.0653
 Frc consts  --     11.7703                13.4377                 9.1704
 IR Inten    --    309.4033               173.2454               159.1648

 - Thermochemistry -
 -------------------
 Temperature   298.150 Kelvin.  Pressure   1.00000 Atm.
 Atom     1 has atomic number  6 and mass  12.00000

 Molecular mass:   199.95666 amu.
 Principal axes and moments of inertia in atomic units:
                           1         2         3
     Eigenvalues --   996.317362501.755532739.21338
           X            0.86615  -0.45183  -0.21361
           Y           -0.08829  -0.55902   0.82444
           Z            0.49192   0.69523   0.52409
 This molecule is an asymmetric top.
 Rotational symmetry number  1.
 Warning -- assumption of classical behavior for rotation
           may cause significant error
 Rotational temperatures (Kelvin)      0.08693     0.03462     0.03162
 Rotational constants (GHZ):           1.81141     0.72139     0.65885
 Zero-point vibrational energy     128436.2 (Joules/Mol)
                                   30.69698 (Kcal/Mol)
 Warning -- explicit consideration of  17 degrees of freedom as
           vibrations may cause significant error
 Vibrational temperatures:     57.34    92.66   170.99   241.47   291.20
          (Kelvin)            328.92   366.17   413.79   449.21   502.22
                              524.41   535.60   603.61   682.41   708.41
                              782.28   859.64   918.79  1088.62  1184.33
                             1221.23  1382.27  1441.30  1653.39  1656.38
                             1744.57  1762.86  1798.05  1932.91  5499.59

 Zero-point correction=                           0.048919 (Hartree/Particle)
 Thermal correction to Energy=                    0.059829
 Thermal correction to Enthalpy=                  0.060773
 Thermal correction to Gibbs Free Energy=         0.011421
 Sum of electronic and zero-point Energies=          -1199.632417
 Sum of electronic and thermal Energies=             -1199.621507
 Sum of electronic and thermal Enthalpies=           -1199.620563
 Sum of electronic and thermal Free Energies=        -1199.669915

                     E (Thermal)             CV                S
                      KCal/Mol        Cal/Mol-Kelvin    Cal/Mol-Kelvin
 Total                   37.543             38.138            103.869
 Electronic               0.000              0.000              0.000
 Translational            0.889              2.981             41.783
 Rotational               0.889              2.981             30.302
 Vibrational             35.766             32.177             31.784
 Vibration     1          0.594              1.981              5.266
 Vibration     2          0.597              1.971              4.317
 Vibration     3          0.609              1.934              3.119
 Vibration     4          0.625              1.882              2.460
 Vibration     5          0.639              1.836              2.111
 Vibration     6          0.651              1.797              1.890
 Vibration     7          0.665              1.755              1.699
 Vibration     8          0.685              1.697              1.488
 Vibration     9          0.701              1.650              1.351
 Vibration    10          0.726              1.577              1.170
 Vibration    11          0.738              1.545              1.103
 Vibration    12          0.744              1.529              1.070
 Vibration    13          0.782              1.428              0.894
 Vibration    14          0.831              1.307              0.726
 Vibration    15          0.848              1.267              0.677
 Vibration    16          0.899              1.153              0.557
 Vibration    17          0.955              1.037              0.454

 Optimization completed.
    -- Stationary point found.
 Normal termination of Gaussian 16 at Fri May 23 04:45:33 2025.
