 Gaussian 16, Revision C.01,
 Gaussian 16:  ES64L-G16RevC.01  3-Jul-2019

 ----------------------------------------------------------------------
 #P wb97xd/6-311++G(d,p) Symm(None) scf(xqc) pop(None) freq opt(CalcFC,
  Tight)
 ----------------------------------------------------------------------

 ------------------------------
 Gaussian input prepared by ASE
 ------------------------------
 Symbolic Z-matrix:
 Charge =  0 Multiplicity = 1

 SCF Done:  E(RwB97XD) =  -1199.67153723     A.U. after   15 cycles
 SCF Done:  E(RwB97XD) =  -1199.67599305     A.U. after   14 cycles
 SCF Done:  E(RwB97XD) =  -1199.67617184     A.U. after   13 cycles
 SCF Done:  E(RwB97XD) =  -1199.67620325     A.U. after   12 cycles
 SCF Done:  E(RwB97XD) =  -1199.67620996     A.U. after   11 cycles
 SCF Done:  E(RwB97XD) =  -1199.67621070     A.U. after   10 cycles
 SCF Done:  E(RwB97XD) =  -1199.67621076     A.U. after    9 cycles
 SCF Done:  E(RwB97XD) =  -1199.67621077     A.U. after    8 cycles
 SCF Done:  E(RwB97XD) =  -1199.67621077     A.U. after    7 cycles
 SCF Done:  E(RwB97XD) =  -1199.67621077     A.U. after    4 cycles
 Optimization completed.
    -- Stationary point found.
 Normal termination of Gaussian 16 at Fri May 23 04:44:59 2025.

 ----------------------------------------------------------------------
 #P Geom=AllCheck Guess=TCheck SCRF=Check GenChk RwB97XD/6-311++G(d,p)
 Freq
 ----------------------------------------------------------------------

 Structure from the checkpoint file:  "/tmp/Gau-3877.chk"
 ------------------------------
 Gaussian input prepared by ASE
 ------------------------------
 Charge =  0 Multiplicity = 1

                          Input orientation:
 ---------------------------------------------------------------------
 Center     Atomic      Atomic             Coordinates (Angstroms)
 Number     Number       Type             X           Y           Z
 ---------------------------------------------------------------------
      1          6           0       -0.741048   -1.266537    0.370172
      2          6           0       -0.041118    0.061641    0.009814
      3          9           0       -0.380814    0.398908   -1.244838
      4          9           0       -0.483268    1.030211    0.845411
      5         16           0        1.910940   -0.013974    0.011593
      6          8           0        2.019102   -0.598906    1.469162
      7          8           0        3.408430   -0.192591    1.048712
      8          8           0        1.985351    1.592807   -0.026107
      9          9           0       -0.181535   -2.254378   -0.334704
     10          9           0       -0.612216   -1.533417    1.662503
     11          9           0       -2.034990   -1.212813    0.071657
     12          1           0        1.399823    2.008176    0.623371
 ---------------------------------------------------------------------

 SCF Done:  E(RwB97XD) =  -1199.67621077     A.U. after    1 cycles

 Isotropic polarizability for W=    0.000000       60.26 Bohr**3.
 End of Minotr F.D. properties file   721 does not exist.

                      1                      2                      3
                      A                      A                      A
 Frequencies --     50.8823                73.0421               117.0537
 Red. masses --     15.8980                13.9797                16.3625
 Frc consts  --      0.0243                 0.0439                 0.1321
 IR Inten    --      0.7453                 0.2410                 1.2694

                      4                      5                      6
                      A                      A                      A
 Frequencies --    158.1093               209.9414               226.2758
 Red. masses --     17.0040                12.3236                17.2055
 Frc consts  --      0.2504                 0.3200                 0.5190
 IR Inten    --      5.0472                 4.9301                 3.0818

                      7                      8                      9
                      A                      A                      A
 Frequencies --    254.3930               292.2300               299.4438
 Red. masses --     14.8900                 3.0996                 4.2537
 Frc consts  --      0.5677                 0.1560                 0.2247
 IR Inten    --      4.1520                10.0784                19.3988

                     10                     11                     12
                      A                      A                      A
 Frequencies --    316.6862               366.9278               373.8442
 Red. masses --      4.0800                 3.4469                17.3457
 Frc consts  --      0.2411                 0.2734                 1.4283
 IR Inten    --      6.7936                89.7271                27.7175

                     13                     14                     15
                      A                      A                      A
 Frequencies --    401.4023               446.7666               489.4583
 Red. masses --     13.4387                10.1438                12.0180
 Frc consts  --      1.2758                 1.1929                 1.6963
 IR Inten    --     14.0457               206.6477                54.5550

                     16                     17                     18
                      A                      A                      A
 Frequencies --    540.1597               596.2096               635.2916
 Red. masses --     18.0360                17.5738                16.5160
 Frc consts  --      3.1005                 3.6806                 3.9274
 IR Inten    --      1.1933                 4.1338                11.6407

                     19                     20                     21
                      A                      A                      A
 Frequencies --    753.7042               812.9444               849.3413
 Red. masses --     16.9802                15.8676                17.3930
 Frc consts  --      5.6832                 6.1785                 7.3924
 IR Inten    --     18.3324               104.7377                56.9277

                     22                     23                     24
                      A                      A                      A
 Frequencies --    971.8497               992.9996              1142.7985
 Red. masses --     13.4482                16.1624                 7.7807
 Frc consts  --      7.4836                 9.3898                 5.9870
 IR Inten    --     67.1994                88.9898               234.4636

                     25                     26                     27
                      A                      A                      A
 Frequencies --   1169.0749              1196.9702              1224.7036
 Red. masses --      4.3819                 1.6611                 6.9874
 Frc consts  --      3.5285                 1.4023                 6.1749
 IR Inten    --    101.3667                76.0095               245.9648

                     28                     29                     30
                      A                      A                      A
 Frequencies --   1245.1306              1347.6520              3790.5651
 Red. masses --     13.0370                12.4341                 1.0660
 Frc consts  --     11.9086                13.3051                 9.0241
 IR Inten    --    317.0753               148.7423               125.2962

 - Thermochemistry -
 -------------------
 Temperature   298.150 Kelvin.  Pressure   1.00000 Atm.
 Atom     1 has atomic number  6 and mass  12.00000

 Molecular mass:   199.95666 amu.
 Principal axes and moments of inertia in atomic units:
                           1         2         3
     Eigenvalues --  1115.150192293.021702678.40092
           X            0.91896  -0.29852  -0.25770
           Y            0.38526   0.81915   0.42494
           Z            0.08424  -0.48978   0.86777
 This molecule is an asymmetric top.
 Rotational symmetry number  1.
 Warning -- assumption of classical behavior for rotation
           may cause significant error
 Rotational temperatures (Kelvin)      0.07767     0.03777     0.03234
 Rotational constants (GHZ):           1.61838     0.78706     0.67381
 Zero-point vibrational energy     127676.5 (Joules/Mol)
                                   30.51543 (Kcal/Mol)
 Warning -- explicit consideration of  17 degrees of freedom as
           vibrations may cause significant error
 Vibrational temperatures:     73.21   105.09   168.41   227.48   302.06
          (Kelvin)            325.56   366.01   420.45   430.83   455.64
                              527.93   537.88   577.53   642.80   704.22
                              777.17   857.81   914.04  1084.41  1169.65
                             1222.01  1398.27  1428.70  1644.23  1682.04
                             1722.17  1762.08  1791.47  1938.97  5453.78

 Zero-point correction=                           0.048629 (Hartree/Particle)
 Thermal correction to Energy=                    0.059603
 Thermal correction to Enthalpy=                  0.060547
 Thermal correction to Gibbs Free Energy=         0.011327
 Sum of electronic and zero-point Energies=          -1199.627581
 Sum of electronic and thermal Energies=             -1199.616607
 Sum of electronic and thermal Enthalpies=           -1199.615663
 Sum of electronic and thermal Free Energies=        -1199.664884

                     E (Thermal)             CV                S
                      KCal/Mol        Cal/Mol-Kelvin    Cal/Mol-Kelvin
 Total                   37.402             38.352            103.594
 Electronic               0.000              0.000              0.000
 Translational            0.889              2.981             41.783
 Rotational               0.889              2.981             30.305
 Vibrational             35.624             32.391             31.505
 Vibration     1          0.595              1.977              4.783
 Vibration     2          0.599              1.967              4.070
 Vibration     3          0.608              1.935              3.148
 Vibration     4          0.621              1.894              2.572
 Vibration     5          0.642              1.826              2.044
 Vibration     6          0.650              1.801              1.908
 Vibration     7          0.665              1.755              1.700
 Vibration     8          0.688              1.688              1.461
 Vibration     9          0.692              1.675              1.420
 Vibration    10          0.704              1.642              1.327
 Vibration    11          0.740              1.540              1.093
 Vibration    12          0.745              1.526              1.064
 Vibration    13          0.767              1.467              0.958
 Vibration    14          0.806              1.368              0.806
 Vibration    15          0.845              1.273              0.685
 Vibration    16          0.895              1.161              0.565
 Vibration    17          0.954              1.040              0.456

 Optimization completed.
    -- Stationary point found.
 Normal termination of Gaussian 16 at Fri May 23 04:46:21 2025.
