 Gaussian 16, Revision C.01,
 Gaussian 16:  ES64L-G16RevC.01  3-Jul-2019

 ----------------------------------------------------------------------
 #P wb97xd/6-311++G(d,p) Symm(None) scf(xqc) pop(None) opt(CalcAll, Tig
 ht,Cartesian)
 ----------------------------------------------------------------------

 ------------------------------
 Gaussian input prepared by ASE
 ------------------------------
 Symbolic Z-matrix:
 Charge =  0 Multiplicity = 1

 SCF Done:  E(RwB97XD) =  -1199.79687207     A.U. after   14 cycles
 SCF Done:  E(RwB97XD) =  -1199.80524994     A.U. after   12 cycles
 SCF Done:  E(RwB97XD) =  -1199.81517574     A.U. after   13 cycles
 SCF Done:  E(RwB97XD) =  -1199.81821395     A.U. after   13 cycles
 SCF Done:  E(RwB97XD) =  -1199.82331820     A.U. after   12 cycles
 SCF Done:  E(RwB97XD) =  -1199.82081575     A.U. after   13 cycles
 SCF Done:  E(RwB97XD) =  -1199.82730274     A.U. after   13 cycles
 SCF Done:  E(RwB97XD) =  -1199.82799595     A.U. after   12 cycles
 SCF Done:  E(RwB97XD) =  -1199.82394312     A.U. after   13 cycles
 SCF Done:  E(RwB97XD) =  -1199.82894091     A.U. after   13 cycles
 SCF Done:  E(RwB97XD) =  -1199.82212931     A.U. after   13 cycles
 SCF Done:  E(RwB97XD) =  -1199.82863750     A.U. after   13 cycles
 SCF Done:  E(RwB97XD) =  -1199.82889584     A.U. after   11 cycles
 SCF Done:  E(RwB97XD) =  -1199.82899590     A.U. after   13 cycles
 SCF Done:  E(RwB97XD) =  -1199.83003036     A.U. after   12 cycles
 SCF Done:  E(RwB97XD) =  -1199.83009995     A.U. after   11 cycles
 SCF Done:  E(RwB97XD) =  -1199.83010130     A.U. after    9 cycles
 SCF Done:  E(RwB97XD) =  -1199.83010137     A.U. after    9 cycles

 Isotropic polarizability for W=    0.000000       55.85 Bohr**3.
 End of Minotr F.D. properties file   721 does not exist.

 Optimization completed.
    -- Stationary point found.

                          Input orientation:
 ---------------------------------------------------------------------
 Center     Atomic      Atomic             Coordinates (Angstroms)
 Number     Number       Type             X           Y           Z
 ---------------------------------------------------------------------
      1          6           0        0.077163    0.057950    1.578236
      2          6           0        0.255605    0.076435    0.022315
      3          9           0       -0.418095   -0.908281   -0.555531
      4          9           0       -0.148779    1.245713   -0.467206
      5         16           0        2.061693   -0.067441   -0.494887
      6          8           0        0.647704    1.089056    2.211783
      7          8           0        2.200334    0.241696   -1.877060
      8          8           0        2.861114    0.537413    0.534502
      9          9           0        2.226111   -1.644422   -0.339074
     10          9           0       -1.234811    0.096126    1.815075
     11          9           0        0.548345   -1.138316    2.008580
     12          1           0        1.603309    1.086090    2.057856
 ---------------------------------------------------------------------

                      1                      2                      3
                      A                      A                      A
 Frequencies --     58.7479                81.6868               159.1368
 Red. masses --     17.0896                14.5722                14.4623
 Frc consts  --      0.0348                 0.0573                 0.2158
 IR Inten    --      0.0980                 1.2023                 4.0223

                      4                      5                      6
                      A                      A                      A
 Frequencies --    196.5464               230.5427               236.0904
 Red. masses --     16.3603                12.9669                17.1581
 Frc consts  --      0.3724                 0.4061                 0.5635
 IR Inten    --      4.1497                 4.6843                 3.3701

                      7                      8                      9
                      A                      A                      A
 Frequencies --    279.2191               303.1395               318.9907
 Red. masses --     16.8709                16.4176                16.0978
 Frc consts  --      0.7750                 0.8889                 0.9651
 IR Inten    --      8.1345                 1.0396                 0.9098

                     10                     11                     12
                      A                      A                      A
 Frequencies --    368.0606               435.5962               445.1542
 Red. masses --      7.2086                 9.1774                15.4504
 Frc consts  --      0.5754                 1.0260                 1.8039
 IR Inten    --      6.8977                26.7686                21.1492

                     13                     14                     15
                      A                      A                      A
 Frequencies --    475.2180               510.3169               544.7168
 Red. masses --      2.6173                 3.2072                 3.4623
 Frc consts  --      0.3482                 0.4921                 0.6053
 IR Inten    --     34.2860                44.4488                65.7867

                     16                     17                     18
                      A                      A                      A
 Frequencies --    600.2358               611.7523               655.2571
 Red. masses --     15.1708                16.3567                14.9004
 Frc consts  --      3.2203                 3.6066                 3.7694
 IR Inten    --      4.0450               113.2910                16.7313

                     19                     20                     21
                      A                      A                      A
 Frequencies --    760.4771               791.5775               981.1065
 Red. masses --     16.1463                18.8283                12.8650
 Frc consts  --      5.5017                 6.9510                 7.2961
 IR Inten    --     92.1192               117.9048               120.5374

                     22                     23                     24
                      A                      A                      A
 Frequencies --   1118.2759              1124.9557              1212.3826
 Red. masses --      3.2364                 9.1682                13.0393
 Frc consts  --      2.3846                 6.8361                11.2923
 IR Inten    --    171.1228               145.5114                85.1068

                     25                     26                     27
                      A                      A                      A
 Frequencies --   1238.0086              1262.9658              1340.6902
 Red. masses --     11.9037                 6.7912                12.1375
 Frc consts  --     10.7493                 6.3823                12.8539
 IR Inten    --    127.8945               381.1293               107.2643

                     28                     29                     30
                      A                      A                      A
 Frequencies --   1398.2363              1452.0574              3781.6095
 Red. masses --      2.4785                 6.7368                 1.0659
 Frc consts  --      2.8549                 8.3690                 8.9811
 IR Inten    --    305.3463               188.7763               166.5324

 - Thermochemistry -
 -------------------
 Temperature   298.150 Kelvin.  Pressure   1.00000 Atm.
 Atom     1 has atomic number  6 and mass  12.00000

 Molecular mass:   199.95666 amu.
 Principal axes and moments of inertia in atomic units:
                           1         2         3
     Eigenvalues --  1155.655952136.753102275.45083
           X            0.72097   0.66518   0.19426
           Y           -0.08952  -0.18858   0.97797
           Z           -0.68715   0.72248   0.07641
 This molecule is an asymmetric top.
 Rotational symmetry number  1.
 Warning -- assumption of classical behavior for rotation
           may cause significant error
 Rotational temperatures (Kelvin)      0.07495     0.04054     0.03806
 Rotational constants (GHZ):           1.56166     0.84462     0.79314
 Zero-point vibrational energy     137407.6 (Joules/Mol)
                                   32.84120 (Kcal/Mol)
 Warning -- explicit consideration of  17 degrees of freedom as
           vibrations may cause significant error
 Vibrational temperatures:     84.53   117.53   228.96   282.79   331.70
          (Kelvin)            339.68   401.73   436.15   458.96   529.56
                              626.73   640.48   683.73   734.23   783.73
                              863.61   880.18   942.77  1094.16  1138.90
                             1411.59  1608.95  1618.56  1744.35  1781.22
                             1817.13  1928.95  2011.75  2089.19  5440.89

 Zero-point correction=                           0.052336 (Hartree/Particle)
 Thermal correction to Energy=                    0.062537
 Thermal correction to Enthalpy=                  0.063481
 Thermal correction to Gibbs Free Energy=         0.016133
 Sum of electronic and zero-point Energies=          -1199.777766
 Sum of electronic and thermal Energies=             -1199.767564
 Sum of electronic and thermal Enthalpies=           -1199.766620
 Sum of electronic and thermal Free Energies=        -1199.813968

                     E (Thermal)             CV                S
                      KCal/Mol        Cal/Mol-Kelvin    Cal/Mol-Kelvin
 Total                   39.243             36.347             99.653
 Electronic               0.000              0.000              0.000
 Translational            0.889              2.981             41.783
 Rotational               0.889              2.981             30.109
 Vibrational             37.465             30.385             27.760
 Vibration     1          0.596              1.974              4.499
 Vibration     2          0.600              1.962              3.850
 Vibration     3          0.621              1.892              2.560
 Vibration     4          0.636              1.845              2.165
 Vibration     5          0.652              1.794              1.875
 Vibration     6          0.655              1.786              1.832
 Vibration     7          0.680              1.712              1.538
 Vibration     8          0.695              1.668              1.400
 Vibration     9          0.705              1.637              1.315
 Vibration    10          0.741              1.538              1.088
 Vibration    11          0.796              1.393              0.841
 Vibration    12          0.805              1.372              0.811
 Vibration    13          0.832              1.305              0.723
 Vibration    14          0.865              1.227              0.633
 Vibration    15          0.900              1.151              0.555
 Vibration    16          0.958              1.031              0.449
 Vibration    17          0.971              1.007              0.430

 Normal termination of Gaussian 16 at Fri May 23 05:19:41 2025.
