 Gaussian 16, Revision C.01,
 Gaussian 16:  ES64L-G16RevC.01  3-Jul-2019

 ----------------------------------------------------------------------
 #P wb97xd/6-311++G(d,p) Symm(None) scf(xqc) pop(None) freq opt(CalcFC,
  Tight)
 ----------------------------------------------------------------------

 ------------------------------
 Gaussian input prepared by ASE
 ------------------------------
 Symbolic Z-matrix:
 Charge =  0 Multiplicity = 1

 SCF Done:  E(RwB97XD) =  -1199.66812258     A.U. after   15 cycles
 SCF Done:  E(RwB97XD) =  -1199.67462745     A.U. after   15 cycles
 SCF Done:  E(RwB97XD) =  -1199.67560126     A.U. after   15 cycles
 SCF Done:  E(RwB97XD) =  -1199.67562293     A.U. after   11 cycles
 SCF Done:  E(RwB97XD) =  -1199.67562388     A.U. after   11 cycles
 SCF Done:  E(RwB97XD) =  -1199.67562405     A.U. after    9 cycles
 SCF Done:  E(RwB97XD) =  -1199.67562409     A.U. after    9 cycles
 SCF Done:  E(RwB97XD) =  -1199.67562410     A.U. after    8 cycles
 SCF Done:  E(RwB97XD) =  -1199.67562410     A.U. after    5 cycles
 Optimization completed.
    -- Stationary point found.
 Normal termination of Gaussian 16 at Fri May 23 04:45:12 2025.

 ----------------------------------------------------------------------
 #P Geom=AllCheck Guess=TCheck SCRF=Check GenChk RwB97XD/6-311++G(d,p)
 Freq
 ----------------------------------------------------------------------

 Structure from the checkpoint file:  "/tmp/Gau-274605.chk"
 ------------------------------
 Gaussian input prepared by ASE
 ------------------------------
 Charge =  0 Multiplicity = 1

                          Input orientation:
 ---------------------------------------------------------------------
 Center     Atomic      Atomic             Coordinates (Angstroms)
 Number     Number       Type             X           Y           Z
 ---------------------------------------------------------------------
      1          6           0       -0.763041    0.325762   -1.240013
      2          6           0       -0.042963    0.062253    0.099693
      3          9           0       -0.413666    1.021074    0.983609
      4          9           0       -0.437324   -1.127725    0.567300
      5         16           0        1.908587    0.000611   -0.055517
      6          8           0        2.069053   -0.653499    1.375053
      7          8           0        3.429573   -0.208763    0.912161
      8          8           0        2.001644    1.608176   -0.049561
      9          9           0       -0.469406    1.542247   -1.695076
     10          9           0       -0.360990   -0.574121   -2.138876
     11          9           0       -2.079966    0.231630   -1.099482
     12          1           0        1.407157    2.015261    0.596289
 ---------------------------------------------------------------------

 SCF Done:  E(RwB97XD) =  -1199.67562410     A.U. after    1 cycles

 Isotropic polarizability for W=    0.000000       60.21 Bohr**3.
 End of Minotr F.D. properties file   721 does not exist.

                      1                      2                      3
                      A                      A                      A
 Frequencies --     35.4244                65.6057               112.4319
 Red. masses --     13.8147                16.1267                16.9600
 Frc consts  --      0.0102                 0.0409                 0.1263
 IR Inten    --      0.6696                 0.8845                 2.6559

                      4                      5                      6
                      A                      A                      A
 Frequencies --    161.0937               198.0203               227.7407
 Red. masses --     15.7032                10.7273                14.2307
 Frc consts  --      0.2401                 0.2478                 0.4349
 IR Inten    --      4.0843                 8.7319                 2.7493

                      7                      8                      9
                      A                      A                      A
 Frequencies --    258.3795               276.9960               311.5997
 Red. masses --     12.3035                 9.8755                 3.2298
 Frc consts  --      0.4839                 0.4464                 0.1848
 IR Inten    --      3.0251                 0.9007                21.6574

                     10                     11                     12
                      A                      A                      A
 Frequencies --    321.0600               368.5479               382.9408
 Red. masses --      2.8245                14.1876                 3.5426
 Frc consts  --      0.1715                 1.1354                 0.3061
 IR Inten    --     19.7317                17.3173                73.3929

                     13                     14                     15
                      A                      A                      A
 Frequencies --    413.4178               442.6527               487.7519
 Red. masses --     14.1694                11.3146                11.1190
 Frc consts  --      1.4269                 1.3062                 1.5585
 IR Inten    --     14.0679               214.6492                66.6044

                     16                     17                     18
                      A                      A                      A
 Frequencies --    539.8702               596.8473               633.0345
 Red. masses --     17.3405                17.2696                17.1138
 Frc consts  --      2.9778                 3.6246                 4.0407
 IR Inten    --      7.1702                 4.0854                22.3788

                     19                     20                     21
                      A                      A                      A
 Frequencies --    752.7424               809.5181               848.7771
 Red. masses --     16.8732                16.0880                17.6922
 Frc consts  --      5.6330                 6.2116                 7.5097
 IR Inten    --     18.8406                79.7109                74.4818

                     22                     23                     24
                      A                      A                      A
 Frequencies --    956.5772              1001.2191              1136.1505
 Red. masses --     13.7244                16.3939                 8.4900
 Frc consts  --      7.3992                 9.6826                 6.4570
 IR Inten    --    105.1254                21.5838               178.0649

                     25                     26                     27
                      A                      A                      A
 Frequencies --   1182.0135              1205.8036              1230.2301
 Red. masses --      2.3220                 2.2914                 9.4393
 Frc consts  --      1.9114                 1.9629                 8.4171
 IR Inten    --    204.1977                11.3916               315.5463

                     28                     29                     30
                      A                      A                      A
 Frequencies --   1236.0149              1346.3339              3796.3943
 Red. masses --     10.8592                12.3944                 1.0661
 Frc consts  --      9.7745                13.2368                 9.0532
 IR Inten    --    249.9690               161.7795               127.5024

 - Thermochemistry -
 -------------------
 Temperature   298.150 Kelvin.  Pressure   1.00000 Atm.
 Atom     1 has atomic number  6 and mass  12.00000

 Molecular mass:   199.95666 amu.
 Principal axes and moments of inertia in atomic units:
                           1         2         3
     Eigenvalues --  1012.243582534.282392708.39058
           X            0.87752   0.39248  -0.27555
           Y           -0.07766   0.68332   0.72598
           Z            0.47321  -0.61566   0.63011
 This molecule is an asymmetric top.
 Rotational symmetry number  1.
 Warning -- assumption of classical behavior for rotation
           may cause significant error
 Rotational temperatures (Kelvin)      0.08557     0.03418     0.03198
 Rotational constants (GHZ):           1.78291     0.71213     0.66635
 Zero-point vibrational energy     127612.8 (Joules/Mol)
                                   30.50018 (Kcal/Mol)
 Warning -- explicit consideration of  17 degrees of freedom as
           vibrations may cause significant error
 Vibrational temperatures:     50.97    94.39   161.76   231.78   284.91
          (Kelvin)            327.67   371.75   398.54   448.32   461.93
                              530.26   550.97   594.82   636.88   701.77
                              776.75   858.73   910.80  1083.03  1164.72
                             1221.20  1376.30  1440.53  1634.67  1700.65
                             1734.88  1770.03  1778.35  1937.07  5462.16

 Zero-point correction=                           0.048605 (Hartree/Particle)
 Thermal correction to Energy=                    0.059626
 Thermal correction to Enthalpy=                  0.060570
 Thermal correction to Gibbs Free Energy=         0.010876
 Sum of electronic and zero-point Energies=          -1199.627019
 Sum of electronic and thermal Energies=             -1199.615998
 Sum of electronic and thermal Enthalpies=           -1199.615054
 Sum of electronic and thermal Free Energies=        -1199.664748

                     E (Thermal)             CV                S
                      KCal/Mol        Cal/Mol-Kelvin    Cal/Mol-Kelvin
 Total                   37.416             38.344            104.589
 Electronic               0.000              0.000              0.000
 Translational            0.889              2.981             41.783
 Rotational               0.889              2.981             30.320
 Vibrational             35.638             32.382             32.486
 Vibration     1          0.594              1.982              5.500
 Vibration     2          0.597              1.971              4.281
 Vibration     3          0.607              1.939              3.226
 Vibration     4          0.622              1.890              2.537
 Vibration     5          0.637              1.843              2.151
 Vibration     6          0.651              1.799              1.897
 Vibration     7          0.667              1.749              1.673
 Vibration     8          0.678              1.716              1.552
 Vibration     9          0.700              1.652              1.354
 Vibration    10          0.707              1.633              1.305
 Vibration    11          0.741              1.537              1.086
 Vibration    12          0.752              1.507              1.028
 Vibration    13          0.777              1.441              0.915
 Vibration    14          0.802              1.377              0.818
 Vibration    15          0.844              1.277              0.689
 Vibration    16          0.895              1.162              0.566
 Vibration    17          0.955              1.038              0.455

 Optimization completed.
    -- Stationary point found.
 Normal termination of Gaussian 16 at Fri May 23 04:46:48 2025.
