 Gaussian 16, Revision C.01,
 Gaussian 16:  ES64L-G16RevC.01  3-Jul-2019

 ----------------------------------------------------------------------
 #P wb97xd/6-311++G(d,p) Symm(None) scf(xqc) pop(None) freq opt(CalcFC,
  Tight)
 ----------------------------------------------------------------------

 ------------------------------
 Gaussian input prepared by ASE
 ------------------------------
 Symbolic Z-matrix:
 Charge =  0 Multiplicity = 1

 SCF Done:  E(RwB97XD) =  -1199.66733980     A.U. after   15 cycles
 SCF Done:  E(RwB97XD) =  -1199.67349282     A.U. after   15 cycles
 SCF Done:  E(RwB97XD) =  -1199.66731834     A.U. after   15 cycles
 SCF Done:  E(RwB97XD) =  -1199.67393615     A.U. after   14 cycles
 SCF Done:  E(RwB97XD) =  -1199.67499912     A.U. after   14 cycles
 SCF Done:  E(RwB97XD) =  -1199.67533970     A.U. after   14 cycles
 SCF Done:  E(RwB97XD) =  -1199.67540595     A.U. after   13 cycles
 SCF Done:  E(RwB97XD) =  -1199.67541679     A.U. after   11 cycles
 SCF Done:  E(RwB97XD) =  -1199.67542137     A.U. after   11 cycles
 SCF Done:  E(RwB97XD) =  -1199.67542242     A.U. after   10 cycles
 SCF Done:  E(RwB97XD) =  -1199.67542273     A.U. after    9 cycles
 SCF Done:  E(RwB97XD) =  -1199.67542277     A.U. after    9 cycles
 SCF Done:  E(RwB97XD) =  -1199.67542277     A.U. after    7 cycles
 SCF Done:  E(RwB97XD) =  -1199.67542277     A.U. after    5 cycles
 Optimization completed.
    -- Stationary point found.
 Normal termination of Gaussian 16 at Fri May 23 04:48:37 2025.

 ----------------------------------------------------------------------
 #P Geom=AllCheck Guess=TCheck SCRF=Check GenChk RwB97XD/6-311++G(d,p)
 Freq
 ----------------------------------------------------------------------

 Structure from the checkpoint file:  "/tmp/Gau-286269.chk"
 ------------------------------
 Gaussian input prepared by ASE
 ------------------------------
 Charge =  0 Multiplicity = 1

                          Input orientation:
 ---------------------------------------------------------------------
 Center     Atomic      Atomic             Coordinates (Angstroms)
 Number     Number       Type             X           Y           Z
 ---------------------------------------------------------------------
      1          6           0       -0.814718    0.808063    1.059785
      2          6           0       -0.023806   -0.051747    0.046037
      3          9           0       -0.343684   -1.342928    0.244717
      4          9           0       -0.397236    0.298472   -1.195928
      5         16           0        1.922750   -0.008280    0.067017
      6          8           0        2.041272   -0.168465    1.628784
      7          8           0        3.432390    0.087851    1.107900
      8          8           0        2.013946    1.521392   -0.420366
      9          9           0       -0.668997    0.347783    2.290270
     10          9           0       -0.350084    2.076964    1.025796
     11          9           0       -2.104784    0.840355    0.758238
     12          1           0        1.541608    2.135226    0.158863
 ---------------------------------------------------------------------

 SCF Done:  E(RwB97XD) =  -1199.67542277     A.U. after    1 cycles

 Isotropic polarizability for W=    0.000000       60.40 Bohr**3.
 End of Minotr F.D. properties file   721 does not exist.

                      1                      2                      3
                      A                      A                      A
 Frequencies --     48.6542                75.4388               122.6393
 Red. masses --     15.6161                14.7467                15.1622
 Frc consts  --      0.0218                 0.0494                 0.1344
 IR Inten    --      0.5809                 1.1364                 0.3188

                      4                      5                      6
                      A                      A                      A
 Frequencies --    172.1206               192.3086               213.8211
 Red. masses --     11.9489                 9.4809                 3.2362
 Frc consts  --      0.2086                 0.2066                 0.0872
 IR Inten    --      6.2437                25.4757                22.3377

                      7                      8                      9
                      A                      A                      A
 Frequencies --    246.9292               269.1441               278.8410
 Red. masses --      2.1238                12.1115                 6.1057
 Frc consts  --      0.0763                 0.5169                 0.2797
 IR Inten    --     23.4078                 4.8538                21.4947

                     10                     11                     12
                      A                      A                      A
 Frequencies --    318.0288               350.1005               369.2654
 Red. masses --     12.9418                10.7868                16.0050
 Frc consts  --      0.7712                 0.7790                 1.2858
 IR Inten    --      6.9217                49.7801                37.3447

                     13                     14                     15
                      A                      A                      A
 Frequencies --    416.3803               440.2089               461.9536
 Red. masses --     10.1826                16.7731                13.7385
 Frc consts  --      1.0401                 1.9151                 1.7274
 IR Inten    --     27.2983               178.7308                59.9213

                     16                     17                     18
                      A                      A                      A
 Frequencies --    538.8708               593.1409               638.7608
 Red. masses --     17.9564                17.8011                16.0115
 Frc consts  --      3.0721                 3.6899                 3.8491
 IR Inten    --      2.7923                 1.9771                 2.9710

                     19                     20                     21
                      A                      A                      A
 Frequencies --    752.7550               811.8642               849.2754
 Red. masses --     16.9896                14.5190                17.2149
 Frc consts  --      5.6721                 5.6384                 7.3156
 IR Inten    --     14.0317               102.8110                44.6863

                     22                     23                     24
                      A                      A                      A
 Frequencies --    985.9275               990.3877              1133.4122
 Red. masses --     13.1889                14.0996                 3.5996
 Frc consts  --      7.5535                 8.1483                 2.7245
 IR Inten    --     48.8533                79.1958               307.8157

                     25                     26                     27
                      A                      A                      A
 Frequencies --   1160.2556              1189.3426              1206.1517
 Red. masses --      2.4815                 9.3670                 3.4204
 Frc consts  --      1.9682                 7.8067                 2.9318
 IR Inten    --     68.5143               175.4931                67.5296

                     28                     29                     30
                      A                      A                      A
 Frequencies --   1256.9841              1338.2055              3801.3498
 Red. masses --     12.7337                12.5374                 1.0663
 Frc consts  --     11.8540                13.2283                 9.0780
 IR Inten    --    307.6917               225.5131               162.5066

 - Thermochemistry -
 -------------------
 Temperature   298.150 Kelvin.  Pressure   1.00000 Atm.
 Atom     1 has atomic number  6 and mass  12.00000

 Molecular mass:   199.95666 amu.
 Principal axes and moments of inertia in atomic units:
                           1         2         3
     Eigenvalues --  1155.336332333.292362431.21115
           X            0.99141   0.09171   0.09329
           Y           -0.11455   0.26405   0.95768
           Z           -0.06319   0.96014  -0.27228
 This molecule is an asymmetric top.
 Rotational symmetry number  1.
 Warning -- assumption of classical behavior for rotation
           may cause significant error
 Rotational temperatures (Kelvin)      0.07497     0.03712     0.03563
 Rotational constants (GHZ):           1.56209     0.77347     0.74232
 Zero-point vibrational energy     126938.8 (Joules/Mol)
                                   30.33911 (Kcal/Mol)
 Warning -- explicit consideration of  17 degrees of freedom as
           vibrations may cause significant error
 Vibrational temperatures:     70.00   108.54   176.45   247.64   276.69
          (Kelvin)            307.64   355.28   387.24   401.19   457.57
                              503.72   531.29   599.08   633.36   664.65
                              775.31   853.40   919.03  1083.05  1168.09
                             1221.92  1418.53  1424.95  1630.73  1669.35
                             1711.20  1735.38  1808.52  1925.38  5469.29

 Zero-point correction=                           0.048348 (Hartree/Particle)
 Thermal correction to Energy=                    0.059439
 Thermal correction to Enthalpy=                  0.060383
 Thermal correction to Gibbs Free Energy=         0.010951
 Sum of electronic and zero-point Energies=          -1199.627074
 Sum of electronic and thermal Energies=             -1199.615984
 Sum of electronic and thermal Enthalpies=           -1199.615040
 Sum of electronic and thermal Free Energies=        -1199.664471

                     E (Thermal)             CV                S
                      KCal/Mol        Cal/Mol-Kelvin    Cal/Mol-Kelvin
 Total                   37.298             38.571            104.038
 Electronic               0.000              0.000              0.000
 Translational            0.889              2.981             41.783
 Rotational               0.889              2.981             30.262
 Vibrational             35.521             32.609             31.992
 Vibration     1          0.595              1.978              4.871
 Vibration     2          0.599              1.965              4.006
 Vibration     3          0.610              1.930              3.058
 Vibration     4          0.626              1.877              2.412
 Vibration     5          0.634              1.851              2.205
 Vibration     6          0.644              1.820              2.011
 Vibration     7          0.661              1.768              1.752
 Vibration     8          0.674              1.730              1.602
 Vibration     9          0.679              1.713              1.541
 Vibration    10          0.704              1.639              1.320
 Vibration    11          0.727              1.575              1.166
 Vibration    12          0.742              1.535              1.083
 Vibration    13          0.780              1.435              0.904
 Vibration    14          0.800              1.382              0.826
 Vibration    15          0.820              1.334              0.760
 Vibration    16          0.894              1.164              0.568
 Vibration    17          0.951              1.046              0.462

                           ! Non-Optimized Parameters !
 Normal termination of Gaussian 16 at Fri May 23 04:49:49 2025.
