 Gaussian 16, Revision C.01,
 Gaussian 16:  ES64L-G16RevC.01  3-Jul-2019

 ----------------------------------------------------------------------
 #P wb97xd/6-311++G(d,p) Symm(None) scf(xqc) pop(None) freq opt(CalcFC,
  Tight)
 ----------------------------------------------------------------------

 ------------------------------
 Gaussian input prepared by ASE
 ------------------------------
 Symbolic Z-matrix:
 Charge =  0 Multiplicity = 1

 SCF Done:  E(RwB97XD) =  -1199.70582333     A.U. after   16 cycles
 SCF Done:  E(RwB97XD) =  -1199.71571479     A.U. after   14 cycles
 SCF Done:  E(RwB97XD) =  -1199.70570505     A.U. after   15 cycles
 SCF Done:  E(RwB97XD) =  -1199.71702956     A.U. after   14 cycles
 SCF Done:  E(RwB97XD) =  -1199.71894617     A.U. after   14 cycles
 SCF Done:  E(RwB97XD) =  -1199.71966336     A.U. after   13 cycles
 SCF Done:  E(RwB97XD) =  -1199.72039325     A.U. after   13 cycles
 SCF Done:  E(RwB97XD) =  -1199.72074607     A.U. after   13 cycles
 SCF Done:  E(RwB97XD) =  -1199.72203678     A.U. after   13 cycles
 SCF Done:  E(RwB97XD) =  -1199.72366018     A.U. after   13 cycles
 SCF Done:  E(RwB97XD) =  -1199.73079065     A.U. after   11 cycles
 SCF Done:  E(RwB97XD) =  -1199.73079347     A.U. after   11 cycles
 SCF Done:  E(RwB97XD) =  -1199.73079460     A.U. after   10 cycles
 SCF Done:  E(RwB97XD) =  -1199.73079466     A.U. after    8 cycles
 SCF Done:  E(RwB97XD) =  -1199.73079467     A.U. after    7 cycles
 SCF Done:  E(RwB97XD) =  -1199.73079468     A.U. after    7 cycles
 SCF Done:  E(RwB97XD) =  -1199.73079468     A.U. after    6 cycles
 SCF Done:  E(RwB97XD) =  -1199.73079468     A.U. after    6 cycles
 SCF Done:  E(RwB97XD) =  -1199.73079468     A.U. after    5 cycles
 Optimization completed.
    -- Stationary point found.
 Normal termination of Gaussian 16 at Fri May 23 04:42:28 2025.

 ----------------------------------------------------------------------
 #P Geom=AllCheck Guess=TCheck SCRF=Check GenChk RwB97XD/6-311++G(d,p)
 Freq
 ----------------------------------------------------------------------

 Structure from the checkpoint file:  "/tmp/Gau-6708.chk"
 ------------------------------
 Gaussian input prepared by ASE
 ------------------------------
 Charge =  0 Multiplicity = 1

                          Input orientation:
 ---------------------------------------------------------------------
 Center     Atomic      Atomic             Coordinates (Angstroms)
 Number     Number       Type             X           Y           Z
 ---------------------------------------------------------------------
      1          6           0        0.214726   -0.230707    1.530984
      2          6           0       -0.110017   -0.071814   -0.003974
      3          9           0       -0.704128   -1.084551   -0.568618
      4          9           0       -0.724799    1.035573   -0.324226
      5         16           0        1.862683   -0.030692   -0.126472
      6          8           0        1.594936   -0.186296    1.515470
      7          8           0        3.257692   -0.086774   -0.504014
      8          8           0        1.682591    1.621660   -0.233308
      9          9           0        1.646988   -1.719557   -0.388949
     10          9           0       -0.284411    0.768470    2.250872
     11          9           0       -0.228298   -1.375432    2.030697
     12          1           0        2.558048    2.024942   -0.264703
 ---------------------------------------------------------------------

 SCF Done:  E(RwB97XD) =  -1199.73079468     A.U. after    1 cycles

 Isotropic polarizability for W=    0.000000       59.25 Bohr**3.
 End of Minotr F.D. properties file   721 does not exist.

                      1                      2                      3
                      A                      A                      A
 Frequencies --     56.5516                74.3547               206.0468
 Red. masses --     13.6683                13.9175                18.7128
 Frc consts  --      0.0258                 0.0453                 0.4681
 IR Inten    --      1.1062                 0.1988                 0.1450

                      4                      5                      6
                      A                      A                      A
 Frequencies --    231.9683               261.6933               275.6415
 Red. masses --     15.6240                15.5729                15.4029
 Frc consts  --      0.4953                 0.6284                 0.6895
 IR Inten    --      0.5441                 2.9518                 0.5282

                      7                      8                      9
                      A                      A                      A
 Frequencies --    287.9117               339.4119               351.2172
 Red. masses --     10.1971                16.2471                 8.8041
 Frc consts  --      0.4980                 1.1028                 0.6399
 IR Inten    --      5.0897                 5.0794                 6.3948

                     10                     11                     12
                      A                      A                      A
 Frequencies --    442.8495               452.0710               473.4758
 Red. masses --      4.6895                 4.0706                 8.6556
 Frc consts  --      0.5419                 0.4901                 1.1433
 IR Inten    --      8.9781                 3.7084                42.6721

                     13                     14                     15
                      A                      A                      A
 Frequencies --    516.4802               530.3951               572.2168
 Red. masses --      9.8261                 2.5101                 7.6104
 Frc consts  --      1.5443                 0.4160                 1.4682
 IR Inten    --     48.5136               126.6680                21.6574

                     16                     17                     18
                      A                      A                      A
 Frequencies --    605.2262               615.2375               623.7562
 Red. masses --     15.9503                13.3988                11.5361
 Frc consts  --      3.4423                 2.9881                 2.6445
 IR Inten    --      1.1572                23.7723                39.4997

                     19                     20                     21
                      A                      A                      A
 Frequencies --    723.7987               729.8624               819.0624
 Red. masses --     17.4510                18.2153                16.1009
 Frc consts  --      5.3865                 5.7170                 6.3640
 IR Inten    --    146.3338               269.3597               139.2759

                     22                     23                     24
                      A                      A                      A
 Frequencies --    875.8308              1100.0107              1148.0138
 Red. masses --     13.2187                 1.7959                 4.5024
 Frc consts  --      5.9742                 1.2804                 3.4961
 IR Inten    --    145.2923                96.4814               204.7148

                     25                     26                     27
                      A                      A                      A
 Frequencies --   1220.4997              1246.7480              1283.7782
 Red. masses --      8.3294                12.9476                 9.2760
 Frc consts  --      7.3103                11.8576                 9.0072
 IR Inten    --    224.5252               297.5950               294.9404

                     28                     29                     30
                      A                      A                      A
 Frequencies --   1330.0395              1360.8258              3852.2124
 Red. masses --     10.6289                11.9967                 1.0662
 Frc consts  --     11.0781                13.0893                 9.3221
 IR Inten    --    155.1781               199.8128               151.2629

 - Thermochemistry -
 -------------------
 Temperature   298.150 Kelvin.  Pressure   1.00000 Atm.
 Atom     1 has atomic number  6 and mass  12.00000

 Molecular mass:   199.95666 amu.
 Principal axes and moments of inertia in atomic units:
                           1         2         3
     Eigenvalues --  1282.919601918.067801991.63449
           X            0.85823  -0.07991   0.50701
           Y            0.04915   0.99606   0.07379
           Z           -0.51091  -0.03841   0.85877
 This molecule is an asymmetric top.
 Rotational symmetry number  1.
 Warning -- assumption of classical behavior for rotation
           may cause significant error
 Rotational temperatures (Kelvin)      0.06751     0.04516     0.04349
 Rotational constants (GHZ):           1.40675     0.94092     0.90616
 Zero-point vibrational energy     135221.0 (Joules/Mol)
                                   32.31860 (Kcal/Mol)
 Warning -- explicit consideration of  17 degrees of freedom as
           vibrations may cause significant error
 Vibrational temperatures:     81.37   106.98   296.46   333.75   376.52
          (Kelvin)            396.59   414.24   488.34   505.32   637.16
                              650.43   681.23   743.10   763.12   823.29
                              870.79   885.19   897.45  1041.38  1050.11
                             1178.45  1260.13  1582.67  1651.74  1756.03
                             1793.79  1847.07  1913.63  1957.92  5542.47

 Zero-point correction=                           0.051503 (Hartree/Particle)
 Thermal correction to Energy=                    0.061361
 Thermal correction to Enthalpy=                  0.062306
 Thermal correction to Gibbs Free Energy=         0.015812
 Sum of electronic and zero-point Energies=          -1199.679292
 Sum of electronic and thermal Energies=             -1199.669433
 Sum of electronic and thermal Enthalpies=           -1199.668489
 Sum of electronic and thermal Free Energies=        -1199.714982

                     E (Thermal)             CV                S
                      KCal/Mol        Cal/Mol-Kelvin    Cal/Mol-Kelvin
 Total                   38.505             36.396             97.853
 Electronic               0.000              0.000              0.000
 Translational            0.889              2.981             41.783
 Rotational               0.889              2.981             29.973
 Vibrational             36.727             30.435             26.097
 Vibration     1          0.596              1.975              4.574
 Vibration     2          0.599              1.966              4.035
 Vibration     3          0.641              1.831              2.078
 Vibration     4          0.653              1.792              1.864
 Vibration     5          0.669              1.743              1.650
 Vibration     6          0.677              1.718              1.561
 Vibration     7          0.685              1.696              1.486
 Vibration     8          0.719              1.597              1.215
 Vibration     9          0.728              1.573              1.161
 Vibration    10          0.802              1.377              0.818
 Vibration    11          0.811              1.356              0.790
 Vibration    12          0.830              1.309              0.728
 Vibration    13          0.872              1.213              0.618
 Vibration    14          0.885              1.183              0.586
 Vibration    15          0.928              1.091              0.500
 Vibration    16          0.964              1.021              0.441
 Vibration    17          0.975              1.000              0.424

                           ! Non-Optimized Parameters !
 Normal termination of Gaussian 16 at Fri May 23 04:43:43 2025.
