 Gaussian 16, Revision C.01,
 Gaussian 16:  ES64L-G16RevC.01  3-Jul-2019

 ----------------------------------------------------------------------
 #P wb97xd/6-311++G(d,p) Symm(None) scf(xqc) pop(None) freq opt(CalcFC,
  Tight)
 ----------------------------------------------------------------------

 ------------------------------
 Gaussian input prepared by ASE
 ------------------------------
 Symbolic Z-matrix:
 Charge =  0 Multiplicity = 1

 SCF Done:  E(RwB97XD) =  -1199.65829996     A.U. after   16 cycles
 SCF Done:  E(RwB97XD) =  -1199.66815718     A.U. after   15 cycles
 SCF Done:  E(RwB97XD) =  -1199.66887052     A.U. after   14 cycles
 SCF Done:  E(RwB97XD) =  -1199.67129391     A.U. after   14 cycles
 SCF Done:  E(RwB97XD) =  -1199.67217925     A.U. after   13 cycles
 SCF Done:  E(RwB97XD) =  -1199.67360593     A.U. after   14 cycles
 SCF Done:  E(RwB97XD) =  -1199.67457868     A.U. after   14 cycles
 SCF Done:  E(RwB97XD) =  -1199.67523227     A.U. after   13 cycles
 SCF Done:  E(RwB97XD) =  -1199.67548187     A.U. after   13 cycles
 SCF Done:  E(RwB97XD) =  -1199.67562894     A.U. after   13 cycles
 SCF Done:  E(RwB97XD) =  -1199.67563310     A.U. after   10 cycles
 SCF Done:  E(RwB97XD) =  -1199.67563347     A.U. after   10 cycles
 SCF Done:  E(RwB97XD) =  -1199.67563349     A.U. after    8 cycles
 SCF Done:  E(RwB97XD) =  -1199.67563350     A.U. after    8 cycles
 SCF Done:  E(RwB97XD) =  -1199.67563350     A.U. after    8 cycles
 SCF Done:  E(RwB97XD) =  -1199.67563350     A.U. after    5 cycles
 SCF Done:  E(RwB97XD) =  -1199.67563350     A.U. after    5 cycles
 Optimization completed.
    -- Stationary point found.
 Normal termination of Gaussian 16 at Fri May 23 04:48:59 2025.

 ----------------------------------------------------------------------
 #P Geom=AllCheck Guess=TCheck SCRF=Check GenChk RwB97XD/6-311++G(d,p)
 Freq
 ----------------------------------------------------------------------

 Structure from the checkpoint file:  "/tmp/Gau-18994.chk"
 ------------------------------
 Gaussian input prepared by ASE
 ------------------------------
 Charge =  0 Multiplicity = 1

                          Input orientation:
 ---------------------------------------------------------------------
 Center     Atomic      Atomic             Coordinates (Angstroms)
 Number     Number       Type             X           Y           Z
 ---------------------------------------------------------------------
      1          6           0       -0.773792    0.251538   -1.326178
      2          6           0       -0.026965    0.124610    0.019006
      3          9           0       -0.321834    1.207728    0.778811
      4          9           0       -0.465742   -0.972651    0.646790
      5         16           0        1.912646   -0.061761   -0.170859
      6          8           0        2.084002   -0.515138    1.333692
      7          8           0        3.451258   -0.215035    0.782445
      8          8           0        2.085625    1.523473   -0.394530
      9          9           0       -0.441037    1.385835   -1.938929
     10          9           0       -0.438319   -0.772298   -2.112870
     11          9           0       -2.088851    0.237935   -1.143481
     12          1           0        1.539331    2.048447    0.207312
 ---------------------------------------------------------------------

 SCF Done:  E(RwB97XD) =  -1199.67563350     A.U. after    1 cycles

 Isotropic polarizability for W=    0.000000       60.21 Bohr**3.
 End of Minotr F.D. properties file   721 does not exist.

                      1                      2                      3
                      A                      A                      A
 Frequencies --     33.5246                65.8159               115.4572
 Red. masses --     13.5749                16.6354                17.2808
 Frc consts  --      0.0090                 0.0425                 0.1357
 IR Inten    --      0.6336                 0.6920                 2.5139

                      4                      5                      6
                      A                      A                      A
 Frequencies --    161.1247               196.2311               228.1920
 Red. masses --     15.5259                10.1602                14.1281
 Frc consts  --      0.2375                 0.2305                 0.4334
 IR Inten    --      4.4218                 9.9120                 2.4023

                      7                      8                      9
                      A                      A                      A
 Frequencies --    258.3950               276.1272               309.0446
 Red. masses --     12.6864                11.7154                 2.6984
 Frc consts  --      0.4991                 0.5263                 0.1518
 IR Inten    --      3.6455                 1.0699                25.6371

                     10                     11                     12
                      A                      A                      A
 Frequencies --    321.9189               367.6512               383.4858
 Red. masses --      3.0969                14.5976                 3.7242
 Frc consts  --      0.1891                 1.1625                 0.3227
 IR Inten    --     17.7000                17.0059                68.2494

                     13                     14                     15
                      A                      A                      A
 Frequencies --    413.2484               442.8476               487.8707
 Red. masses --     14.0113                11.0507                10.9985
 Frc consts  --      1.4098                 1.2769                 1.5424
 IR Inten    --     13.8797               217.0436                70.1321

                     16                     17                     18
                      A                      A                      A
 Frequencies --    539.8880               597.0573               633.0444
 Red. masses --     17.2727                17.2451                17.1089
 Frc consts  --      2.9663                 3.6220                 4.0396
 IR Inten    --      7.7029                 4.1426                22.1062

                     19                     20                     21
                      A                      A                      A
 Frequencies --    753.0125               810.6940               852.0978
 Red. masses --     16.8840                15.8986                17.6595
 Frc consts  --      5.6407                 6.1564                 7.5545
 IR Inten    --     18.1801                85.2027                68.6273

                     22                     23                     24
                      A                      A                      A
 Frequencies --    957.7792              1003.0880              1136.3581
 Red. masses --     13.6327                16.2877                 7.2459
 Frc consts  --      7.3682                 9.6558                 5.5128
 IR Inten    --    104.0798                21.6821               176.8041

                     25                     26                     27
                      A                      A                      A
 Frequencies --   1176.4292              1201.5819              1229.8289
 Red. masses --      1.7665                 3.3930                10.7187
 Frc consts  --      1.4404                 2.8863                 9.5517
 IR Inten    --    185.8410                24.4236               317.0850

                     28                     29                     30
                      A                      A                      A
 Frequencies --   1236.4279              1346.2512              3795.0787
 Red. masses --     11.8170                12.4258                 1.0662
 Frc consts  --     10.6438                13.2687                 9.0473
 IR Inten    --    252.5244               162.6293               127.7625

 - Thermochemistry -
 -------------------
 Temperature   298.150 Kelvin.  Pressure   1.00000 Atm.
 Atom     1 has atomic number  6 and mass  12.00000

 Molecular mass:   199.95666 amu.
 Principal axes and moments of inertia in atomic units:
                           1         2         3
     Eigenvalues --  1011.534112533.201452709.84976
           X            0.88629  -0.40839  -0.21840
           Y           -0.06118  -0.57069   0.81889
           Z            0.45906   0.71241   0.53078
 This molecule is an asymmetric top.
 Rotational symmetry number  1.
 Warning -- assumption of classical behavior for rotation
           may cause significant error
 Rotational temperatures (Kelvin)      0.08563     0.03419     0.03196
 Rotational constants (GHZ):           1.78416     0.71243     0.66599
 Zero-point vibrational energy     127579.1 (Joules/Mol)
                                   30.49213 (Kcal/Mol)
 Warning -- explicit consideration of  17 degrees of freedom as
           vibrations may cause significant error
 Vibrational temperatures:     48.23    94.69   166.12   231.82   282.33
          (Kelvin)            328.32   371.77   397.29   444.65   463.17
                              528.97   551.75   594.57   637.16   701.94
                              776.78   859.03   910.81  1083.42  1166.41
                             1225.98  1378.03  1443.22  1634.97  1692.62
                             1728.81  1769.45  1778.94  1936.96  5460.27

 Zero-point correction=                           0.048592 (Hartree/Particle)
 Thermal correction to Energy=                    0.059616
 Thermal correction to Enthalpy=                  0.060560
 Thermal correction to Gibbs Free Energy=         0.010830
 Sum of electronic and zero-point Energies=          -1199.627041
 Sum of electronic and thermal Energies=             -1199.616018
 Sum of electronic and thermal Enthalpies=           -1199.615074
 Sum of electronic and thermal Free Energies=        -1199.664804

                     E (Thermal)             CV                S
                      KCal/Mol        Cal/Mol-Kelvin    Cal/Mol-Kelvin
 Total                   37.409             38.344            104.666
 Electronic               0.000              0.000              0.000
 Translational            0.889              2.981             41.783
 Rotational               0.889              2.981             30.319
 Vibrational             35.632             32.382             32.563
 Vibration     1          0.594              1.983              5.609
 Vibration     2          0.597              1.971              4.275
 Vibration     3          0.608              1.937              3.175
 Vibration     4          0.622              1.890              2.537
 Vibration     5          0.636              1.845              2.168
 Vibration     6          0.651              1.798              1.893
 Vibration     7          0.667              1.749              1.673
 Vibration     8          0.678              1.718              1.558
 Vibration     9          0.698              1.656              1.367
 Vibration    10          0.707              1.632              1.300
 Vibration    11          0.740              1.539              1.090
 Vibration    12          0.753              1.505              1.025
 Vibration    13          0.777              1.441              0.915
 Vibration    14          0.802              1.377              0.818
 Vibration    15          0.844              1.277              0.689
 Vibration    16          0.895              1.162              0.566
 Vibration    17          0.955              1.038              0.455

 Optimization completed.
    -- Stationary point found.
 Normal termination of Gaussian 16 at Fri May 23 04:50:55 2025.
