 Gaussian 16, Revision C.01,
 Gaussian 16:  ES64L-G16RevC.01  3-Jul-2019

 ----------------------------------------------------------------------
 #P wb97xd/6-311++G(d,p) Symm(None) scf(xqc) pop(None) freq opt(CalcFC,
  Tight)
 ----------------------------------------------------------------------

 ------------------------------
 Gaussian input prepared by ASE
 ------------------------------
 Symbolic Z-matrix:
 Charge =  0 Multiplicity = 1

 SCF Done:  E(RwB97XD) =  -1199.68140265     A.U. after   15 cycles
 SCF Done:  E(RwB97XD) =  -1199.68140493     A.U. after   11 cycles
 SCF Done:  E(RwB97XD) =  -1199.68140494     A.U. after    8 cycles
 SCF Done:  E(RwB97XD) =  -1199.68140494     A.U. after    4 cycles
 Optimization completed.
    -- Stationary point found.
 Normal termination of Gaussian 16 at Fri May 23 04:46:21 2025.

 ----------------------------------------------------------------------
 #P Geom=AllCheck Guess=TCheck SCRF=Check GenChk RwB97XD/6-311++G(d,p)
 Freq
 ----------------------------------------------------------------------

 Structure from the checkpoint file:  "/tmp/Gau-7946.chk"
 ------------------------------
 Gaussian input prepared by ASE
 ------------------------------
 Charge =  0 Multiplicity = 1

                          Input orientation:
 ---------------------------------------------------------------------
 Center     Atomic      Atomic             Coordinates (Angstroms)
 Number     Number       Type             X           Y           Z
 ---------------------------------------------------------------------
      1          6           0       -0.792166    0.955737    0.931943
      2          6           0        0.000178   -0.000619    0.001405
      3          9           0       -0.323587   -1.267338    0.312548
      4          9           0       -0.357606    0.234070   -1.272411
      5         16           0        1.921672   -0.001478    0.000725
      6          8           0        2.153422   -0.525179    1.464963
      7          8           0        3.505900   -0.061212    1.002033
      8          8           0        1.920406    1.616299   -0.001514
      9          9           0       -0.309542    0.896579    2.168991
     10          9           0       -0.729986    2.205911    0.497331
     11          9           0       -2.072079    0.583317    0.957989
     12          1           0        2.829321    1.907339    0.151731
 ---------------------------------------------------------------------

 SCF Done:  E(RwB97XD) =  -1199.68140494     A.U. after    1 cycles

 Isotropic polarizability for W=    0.000000       60.67 Bohr**3.
 End of Minotr F.D. properties file   721 does not exist.

                      1                      2                      3
                      A                      A                      A
 Frequencies --     35.4513                68.8135               121.4622
 Red. masses --     12.7507                17.0968                13.1303
 Frc consts  --      0.0094                 0.0477                 0.1141
 IR Inten    --      1.0752                 0.8803                 0.1879

                      4                      5                      6
                      A                      A                      A
 Frequencies --    161.3477               209.3695               225.9208
 Red. masses --     14.7429                11.9682                17.6329
 Frc consts  --      0.2261                 0.3091                 0.5303
 IR Inten    --      3.1399                11.0088                 2.1073

                      7                      8                      9
                      A                      A                      A
 Frequencies --    260.4632               290.8944               315.4413
 Red. masses --      9.2716                15.8802                11.7131
 Frc consts  --      0.3706                 0.7917                 0.6867
 IR Inten    --      7.1923                 1.6594                 4.4994

                     10                     11                     12
                      A                      A                      A
 Frequencies --    343.1185               352.3145               384.9749
 Red. masses --      2.2284                16.6993                13.5904
 Frc consts  --      0.1546                 1.2213                 1.1867
 IR Inten    --     68.4621                21.8116               115.6260

                     13                     14                     15
                      A                      A                      A
 Frequencies --    431.0701               441.5311               472.9934
 Red. masses --     11.4468                 4.7495                 3.0520
 Frc consts  --      1.2532                 0.5455                 0.4023
 IR Inten    --     93.0759                43.5748                61.2830

                     16                     17                     18
                      A                      A                      A
 Frequencies --    543.0437               595.2827               642.0395
 Red. masses --     17.8814                17.7236                16.4473
 Frc consts  --      3.1069                 3.7004                 3.9945
 IR Inten    --      2.9130                 1.7704                 5.4670

                     19                     20                     21
                      A                      A                      A
 Frequencies --    759.7740               823.1674               846.9054
 Red. masses --     16.9819                17.2961                16.7084
 Frc consts  --      5.7757                 6.9052                 7.0608
 IR Inten    --     14.7859                76.6387                34.3380

                     22                     23                     24
                      A                      A                      A
 Frequencies --    992.2277               996.7344              1149.0426
 Red. masses --     15.1526                 9.2948                 8.7825
 Frc consts  --      8.7894                 5.4406                 6.8319
 IR Inten    --     69.5030                71.7818               137.6797

                     25                     26                     27
                      A                      A                      A
 Frequencies --   1162.0844              1188.2225              1223.3827
 Red. masses --      1.5970                 4.6560                11.5320
 Frc consts  --      1.2707                 3.8731                10.1691
 IR Inten    --    236.2279                69.5463               247.4461

                     28                     29                     30
                      A                      A                      A
 Frequencies --   1249.7822              1332.9090              3822.7858
 Red. masses --     13.1053                11.8721                 1.0653
 Frc consts  --     12.0605                12.4273                 9.1724
 IR Inten    --    302.6653               211.8346               158.2664

 - Thermochemistry -
 -------------------
 Temperature   298.150 Kelvin.  Pressure   1.00000 Atm.
 Atom     1 has atomic number  6 and mass  12.00000

 Molecular mass:   199.95666 amu.
 Principal axes and moments of inertia in atomic units:
                           1         2         3
     Eigenvalues --  1120.276182381.655522463.60493
           X            0.97996   0.17184  -0.10078
           Y           -0.19818   0.78936  -0.58106
           Z           -0.02030   0.58939   0.80759
 This molecule is an asymmetric top.
 Rotational symmetry number  1.
 Warning -- assumption of classical behavior for rotation
           may cause significant error
 Rotational temperatures (Kelvin)      0.07731     0.03637     0.03516
 Rotational constants (GHZ):           1.61098     0.75777     0.73256
 Zero-point vibrational energy     128254.9 (Joules/Mol)
                                   30.65366 (Kcal/Mol)
 Warning -- explicit consideration of  17 degrees of freedom as
           vibrations may cause significant error
 Vibrational temperatures:     51.01    99.01   174.76   232.14   301.24
          (Kelvin)            325.05   374.75   418.53   453.85   493.67
                              506.90   553.89   620.21   635.26   680.53
                              781.32   856.48   923.75  1093.15  1184.35
                             1218.51  1427.59  1434.08  1653.22  1671.98
                             1709.59  1760.17  1798.16  1917.76  5500.14

 Zero-point correction=                           0.048850 (Hartree/Particle)
 Thermal correction to Energy=                    0.059778
 Thermal correction to Enthalpy=                  0.060722
 Thermal correction to Gibbs Free Energy=         0.011319
 Sum of electronic and zero-point Energies=          -1199.632555
 Sum of electronic and thermal Energies=             -1199.621627
 Sum of electronic and thermal Enthalpies=           -1199.620683
 Sum of electronic and thermal Free Energies=        -1199.670086

                     E (Thermal)             CV                S
                      KCal/Mol        Cal/Mol-Kelvin    Cal/Mol-Kelvin
 Total                   37.511             38.194            103.977
 Electronic               0.000              0.000              0.000
 Translational            0.889              2.981             41.783
 Rotational               0.889              2.981             30.265
 Vibrational             35.734             32.233             31.929
 Vibration     1          0.594              1.982              5.498
 Vibration     2          0.598              1.969              4.187
 Vibration     3          0.609              1.931              3.077
 Vibration     4          0.622              1.890              2.534
 Vibration     5          0.642              1.826              2.049
 Vibration     6          0.650              1.802              1.911
 Vibration     7          0.669              1.745              1.659
 Vibration     8          0.687              1.691              1.469
 Vibration     9          0.703              1.644              1.334
 Vibration    10          0.722              1.589              1.198
 Vibration    11          0.729              1.571              1.156
 Vibration    12          0.754              1.502              1.020
 Vibration    13          0.792              1.403              0.855
 Vibration    14          0.801              1.380              0.822
 Vibration    15          0.830              1.310              0.729
 Vibration    16          0.898              1.155              0.559
 Vibration    17          0.953              1.042              0.458

 Optimization completed.
    -- Stationary point found.
 Normal termination of Gaussian 16 at Fri May 23 04:47:42 2025.
