 Gaussian 16, Revision C.01,
 Gaussian 16:  ES64L-G16RevC.01  3-Jul-2019

 -----------------------------------------------------------------
 #P M062X/Def2TZVPP Symm(None) scf(xqc) pop(None) freq opt(CalcFC)
 -----------------------------------------------------------------

 ------------------------------
 Gaussian input prepared by ASE
 ------------------------------
 Symbolic Z-matrix:
 Charge =  0 Multiplicity = 1

 SCF Done:  E(RM062X) =  -526.837385457     A.U. after   13 cycles
 SCF Done:  E(RM062X) =  -526.846356315     A.U. after   14 cycles
 SCF Done:  E(RM062X) =  -526.847316073     A.U. after   12 cycles
 SCF Done:  E(RM062X) =  -526.847526993     A.U. after   12 cycles
 SCF Done:  E(RM062X) =  -526.847653105     A.U. after   13 cycles
 SCF Done:  E(RM062X) =  -526.847799628     A.U. after   13 cycles
 SCF Done:  E(RM062X) =  -526.847836059     A.U. after   12 cycles
 SCF Done:  E(RM062X) =  -526.847858729     A.U. after   11 cycles
 SCF Done:  E(RM062X) =  -526.847872405     A.U. after   13 cycles
 SCF Done:  E(RM062X) =  -526.847878844     A.U. after   11 cycles
 SCF Done:  E(RM062X) =  -526.847882500     A.U. after   12 cycles
 SCF Done:  E(RM062X) =  -526.847884245     A.U. after   12 cycles
 SCF Done:  E(RM062X) =  -526.847888469     A.U. after   12 cycles
 SCF Done:  E(RM062X) =  -526.847889420     A.U. after    9 cycles
 Optimization completed.
    -- Stationary point found.
 Normal termination of Gaussian 16 at Sat May 24 05:06:01 2025.

 ---------------------------------------------------------------------
 #P Geom=AllCheck Guess=TCheck SCRF=Check GenChk RM062X/def2TZVPP Freq
 ---------------------------------------------------------------------

 Structure from the checkpoint file:  "/tmp/Gau-171891.chk"
 ------------------------------
 Gaussian input prepared by ASE
 ------------------------------
 Charge =  0 Multiplicity = 1

                          Input orientation:
 ---------------------------------------------------------------------
 Center     Atomic      Atomic             Coordinates (Angstroms)
 Number     Number       Type             X           Y           Z
 ---------------------------------------------------------------------
      1          6           0        1.567088    0.041573   -0.077676
      2          8           0        2.152695   -0.785097   -0.690496
      3          6           0        0.016478    0.023915   -0.031431
      4          9           0       -0.480568    0.136658   -1.251799
      5          9           0       -0.414400   -1.105092    0.506214
      6          9           0       -0.458593    1.042798    0.706033
      7          8           0        2.147719    1.024864    0.603454
      8          1           0        1.494385    1.591526    1.030897
 ---------------------------------------------------------------------

 SCF Done:  E(RM062X) =  -526.847889420     A.U. after    1 cycles

 Isotropic polarizability for W=    0.000000       31.66 Bohr**3.
 End of Minotr F.D. properties file   721 does not exist.

                      1                      2                      3
                      A                      A                      A
 Frequencies --     15.8912               256.0039               267.4735
 Red. masses --     10.6839                17.3050                12.3430
 Frc consts  --      0.0016                 0.6682                 0.5203
 IR Inten    --      2.0543                10.2518                11.6343

                      4                      5                      6
                      A                      A                      A
 Frequencies --    398.7490               436.0406               517.5786
 Red. masses --      9.3018                13.4294                 7.7802
 Frc consts  --      0.8714                 1.5044                 1.2280
 IR Inten    --      4.8951                 4.0995                37.5999

                      7                      8                      9
                      A                      A                      A
 Frequencies --    537.5156               603.5627               703.9746
 Red. masses --      1.2007                13.2384                10.0479
 Frc consts  --      0.2044                 2.8414                 2.9339
 IR Inten    --     82.7871                 0.2100                30.5628

                     10                     11                     12
                      A                      A                      A
 Frequencies --    792.1149               825.2761              1169.4699
 Red. masses --     10.8279                13.0991                 4.8150
 Frc consts  --      4.0028                 5.2564                 3.8799
 IR Inten    --      7.8391                12.4509                85.0363

                     13                     14                     15
                      A                      A                      A
 Frequencies --   1254.9208              1268.6978              1280.5468
 Red. masses --     13.0156                 1.6202                13.1301
 Frc consts  --     12.0767                 1.5365                12.6856
 IR Inten    --    423.9221               202.1432               293.1186

                     16                     17                     18
                      A                      A                      A
 Frequencies --   1432.2329              1951.8491              3844.1453
 Red. masses --      5.7898                11.4623                 1.0657
 Frc consts  --      6.9975                25.7285                 9.2788
 IR Inten    --    133.8721               292.7637               148.4058

 - Thermochemistry -
 -------------------
 Temperature   298.150 Kelvin.  Pressure   1.00000 Atm.
 Atom     1 has atomic number  6 and mass  12.00000

 Molecular mass:   113.99286 amu.
 Principal axes and moments of inertia in atomic units:
                           1         2         3
     Eigenvalues --   468.65783 715.02638 869.09336
           X            0.99761  -0.06187   0.03075
           Y            0.06820   0.81098  -0.58109
           Z            0.01101   0.58180   0.81326
 This molecule is an asymmetric top.
 Rotational symmetry number  1.
 Warning -- assumption of classical behavior for rotation
           may cause significant error
 Rotational temperatures (Kelvin)      0.18481     0.12113     0.09966
 Rotational constants (GHZ):           3.85087     2.52402     2.07658
 Zero-point vibrational energy     105008.5 (Joules/Mol)
                                   25.09762 (Kcal/Mol)
 Warning -- explicit consideration of   8 degrees of freedom as
           vibrations may cause significant error
 Vibrational temperatures:     22.86   368.33   384.83   573.71   627.37
          (Kelvin)            744.68   773.37   868.39  1012.86  1139.68
                             1187.39  1682.61  1805.55  1825.37  1842.42
                             2060.66  2808.28  5530.87

 Zero-point correction=                           0.039996 (Hartree/Particle)
 Thermal correction to Energy=                    0.046158
 Thermal correction to Enthalpy=                  0.047103
 Thermal correction to Gibbs Free Energy=         0.008158
 Sum of electronic and zero-point Energies=           -526.807894
 Sum of electronic and thermal Energies=              -526.801731
 Sum of electronic and thermal Enthalpies=            -526.800787
 Sum of electronic and thermal Free Energies=         -526.839731

                     E (Thermal)             CV                S
                      KCal/Mol        Cal/Mol-Kelvin    Cal/Mol-Kelvin
 Total                   28.965             20.624             81.966
 Electronic               0.000              0.000              0.000
 Translational            0.889              2.981             40.108
 Rotational               0.889              2.981             27.168
 Vibrational             27.187             14.662             14.689
 Vibration     1          0.593              1.986              7.091
 Vibration     2          0.666              1.753              1.689
 Vibration     3          0.673              1.733              1.612
 Vibration     4          0.765              1.473              0.967
 Vibration     5          0.796              1.392              0.839
 Vibration     6          0.873              1.211              0.616
 Vibration     7          0.893              1.167              0.571
 Vibration     8          0.962              1.024              0.444

                           ! Non-Optimized Parameters !
 Normal termination of Gaussian 16 at Sat May 24 05:07:18 2025.
