 Gaussian 16, Revision C.01,
 Gaussian 16:  ES64L-G16RevC.01  3-Jul-2019

 -----------------------------------------------------------------
 #P M062X/Def2TZVPP Symm(None) scf(xqc) pop(None) freq opt(CalcFC)
 -----------------------------------------------------------------

 ------------------------------
 Gaussian input prepared by ASE
 ------------------------------
 Symbolic Z-matrix:
 Charge =  0 Multiplicity = 1

 SCF Done:  E(RM062X) =  -526.852766887     A.U. after   14 cycles
 SCF Done:  E(RM062X) =  -526.852766917     A.U. after    7 cycles
 Optimization completed.
    -- Stationary point found.
 Normal termination of Gaussian 16 at Sat May 24 05:03:12 2025.

 ---------------------------------------------------------------------
 #P Geom=AllCheck Guess=TCheck SCRF=Check GenChk RM062X/def2TZVPP Freq
 ---------------------------------------------------------------------

 Structure from the checkpoint file:  "/tmp/Gau-191466.chk"
 ------------------------------
 Gaussian input prepared by ASE
 ------------------------------
 Charge =  0 Multiplicity = 1

                          Input orientation:
 ---------------------------------------------------------------------
 Center     Atomic      Atomic             Coordinates (Angstroms)
 Number     Number       Type             X           Y           Z
 ---------------------------------------------------------------------
      1          6           0        1.543940   -0.000117   -0.000110
      2          8           0        2.198824   -0.991295   -0.001280
      3          6           0       -0.000005   -0.000044    0.000122
      4          9           0       -0.460579    0.629618   -1.077746
      5          9           0       -0.458662   -1.237120   -0.001439
      6          9           0       -0.460225    0.626762    1.079811
      7          8           0        1.994927    1.249839    0.001203
      8          1           0        2.961727    1.226043    0.001058
 ---------------------------------------------------------------------

 SCF Done:  E(RM062X) =  -526.852766917     A.U. after    1 cycles

 Isotropic polarizability for W=    0.000000       31.73 Bohr**3.
 End of Minotr F.D. properties file   721 does not exist.

                      1                      2                      3
                      A                      A                      A
 Frequencies --     37.3138               239.4060               246.8979
 Red. masses --     14.3444                11.5499                 9.6055
 Frc consts  --      0.0118                 0.3900                 0.3450
 IR Inten    --      1.7339                 1.3345                 0.1159

                      4                      5                      6
                      A                      A                      A
 Frequencies --    394.5868               432.7221               514.4121
 Red. masses --     12.0851                15.4609                 4.9810
 Frc consts  --      1.1086                 1.7057                 0.7766
 IR Inten    --      2.1891                 0.0427                 3.0439

                      7                      8                      9
                      A                      A                      A
 Frequencies --    599.2426               600.8146               681.5721
 Red. masses --      1.3876                14.2618                 4.8954
 Frc consts  --      0.2936                 3.0332                 1.3399
 IR Inten    --    104.2735                 9.4471                79.2506

                     10                     11                     12
                      A                      A                      A
 Frequencies --    807.6540               824.7792              1178.8757
 Red. masses --      9.8276                 8.7213                 4.1303
 Frc consts  --      3.7770                 3.4955                 3.3819
 IR Inten    --     37.3922                 2.7858               311.9313

                     13                     14                     15
                      A                      A                      A
 Frequencies --   1245.0728              1249.1301              1312.6494
 Red. masses --      2.5662                13.1154                 7.1335
 Frc consts  --      2.3439                12.0572                 7.2419
 IR Inten    --    188.7535               298.0222               193.0367

                     16                     17                     18
                      A                      A                      A
 Frequencies --   1457.6084              1926.8331              3812.8148
 Red. masses --      5.4536                11.7002                 1.0647
 Frc consts  --      6.8268                25.5937                 9.1192
 IR Inten    --     55.5067               320.2163               123.8699

 - Thermochemistry -
 -------------------
 Temperature   298.150 Kelvin.  Pressure   1.00000 Atm.
 Atom     1 has atomic number  6 and mass  12.00000

 Molecular mass:   113.99286 amu.
 Principal axes and moments of inertia in atomic units:
                           1         2         3
     Eigenvalues --   463.59187 717.66066 865.43215
           X            0.99718  -0.07508   0.00014
           Y            0.07508   0.99718  -0.00110
           Z           -0.00006   0.00110   1.00000
 This molecule is an asymmetric top.
 Rotational symmetry number  1.
 Warning -- assumption of classical behavior for rotation
           may cause significant error
 Rotational temperatures (Kelvin)      0.18683     0.12069     0.10008
 Rotational constants (GHZ):           3.89295     2.51476     2.08536
 Zero-point vibrational energy     105046.4 (Joules/Mol)
                                   25.10669 (Kcal/Mol)
 Warning -- explicit consideration of   8 degrees of freedom as
           vibrations may cause significant error
 Vibrational temperatures:     53.69   344.45   355.23   567.72   622.59
          (Kelvin)            740.12   862.18   864.44   980.63  1162.03
                             1186.67  1696.14  1791.38  1797.22  1888.61
                             2097.17  2772.28  5485.79

 Zero-point correction=                           0.040010 (Hartree/Particle)
 Thermal correction to Energy=                    0.046155
 Thermal correction to Enthalpy=                  0.047099
 Thermal correction to Gibbs Free Energy=         0.008875
 Sum of electronic and zero-point Energies=           -526.812757
 Sum of electronic and thermal Energies=              -526.806612
 Sum of electronic and thermal Enthalpies=            -526.805668
 Sum of electronic and thermal Free Energies=         -526.843892

                     E (Thermal)             CV                S
                      KCal/Mol        Cal/Mol-Kelvin    Cal/Mol-Kelvin
 Total                   28.963             20.583             80.449
 Electronic               0.000              0.000              0.000
 Translational            0.889              2.981             40.108
 Rotational               0.889              2.981             27.157
 Vibrational             27.185             14.622             13.185
 Vibration     1          0.594              1.982              5.397
 Vibration     2          0.657              1.780              1.807
 Vibration     3          0.661              1.768              1.753
 Vibration     4          0.762              1.482              0.983
 Vibration     5          0.794              1.399              0.850
 Vibration     6          0.869              1.218              0.623
 Vibration     7          0.957              1.033              0.451
 Vibration     8          0.959              1.030              0.448

 Optimization completed.
    -- Stationary point found.
 Normal termination of Gaussian 16 at Sat May 24 05:04:12 2025.
