 Gaussian 16, Revision C.01,
 Gaussian 16:  ES64L-G16RevC.01  3-Jul-2019

 -----------------------------------------------------------------
 #P M062X/Def2TZVPP Symm(None) scf(xqc) pop(None) freq opt(CalcFC)
 -----------------------------------------------------------------

 ------------------------------
 Gaussian input prepared by ASE
 ------------------------------
 Symbolic Z-matrix:
 Charge =  0 Multiplicity = 1

 SCF Done:  E(RM062X) =  -526.837386088     A.U. after   13 cycles
 SCF Done:  E(RM062X) =  -526.846360196     A.U. after   14 cycles
 SCF Done:  E(RM062X) =  -526.847319445     A.U. after   12 cycles
 SCF Done:  E(RM062X) =  -526.847530537     A.U. after   12 cycles
 SCF Done:  E(RM062X) =  -526.847655804     A.U. after   13 cycles
 SCF Done:  E(RM062X) =  -526.847801439     A.U. after   13 cycles
 SCF Done:  E(RM062X) =  -526.847837004     A.U. after   12 cycles
 SCF Done:  E(RM062X) =  -526.847857796     A.U. after   10 cycles
 SCF Done:  E(RM062X) =  -526.847872203     A.U. after   13 cycles
 SCF Done:  E(RM062X) =  -526.847878879     A.U. after   11 cycles
 SCF Done:  E(RM062X) =  -526.847882392     A.U. after   12 cycles
 SCF Done:  E(RM062X) =  -526.847885150     A.U. after   11 cycles
 SCF Done:  E(RM062X) =  -526.847888776     A.U. after   12 cycles
 SCF Done:  E(RM062X) =  -526.847889446     A.U. after    8 cycles
 SCF Done:  E(RM062X) =  -526.847889546     A.U. after    9 cycles
 SCF Done:  E(RM062X) =  -526.847889557     A.U. after    8 cycles
 Optimization completed.
    -- Stationary point found.
 Normal termination of Gaussian 16 at Sat May 24 05:06:11 2025.

 ---------------------------------------------------------------------
 #P Geom=AllCheck Guess=TCheck SCRF=Check GenChk RM062X/def2TZVPP Freq
 ---------------------------------------------------------------------

 Structure from the checkpoint file:  "/tmp/Gau-208554.chk"
 ------------------------------
 Gaussian input prepared by ASE
 ------------------------------
 Charge =  0 Multiplicity = 1

                          Input orientation:
 ---------------------------------------------------------------------
 Center     Atomic      Atomic             Coordinates (Angstroms)
 Number     Number       Type             X           Y           Z
 ---------------------------------------------------------------------
      1          6           0        1.567293    0.040905    0.076698
      2          8           0        2.152633   -0.788285    0.686482
      3          6           0        0.016635    0.023842    0.031191
      4          9           0       -0.458804    1.042642   -0.706122
      5          9           0       -0.414460   -1.105197   -0.506194
      6          9           0       -0.479918    0.136569    1.251805
      7          8           0        2.147980    1.026296   -0.600946
      8          1           0        1.494577    1.593963   -1.026954
 ---------------------------------------------------------------------

 SCF Done:  E(RM062X) =  -526.847889557     A.U. after    1 cycles

 Isotropic polarizability for W=    0.000000       31.66 Bohr**3.
 End of Minotr F.D. properties file   721 does not exist.

                      1                      2                      3
                      A                      A                      A
 Frequencies --     15.1468               256.0695               267.3077
 Red. masses --     10.6832                17.3070                12.3267
 Frc consts  --      0.0014                 0.6686                 0.5189
 IR Inten    --      2.0495                10.2406                11.6508

                      4                      5                      6
                      A                      A                      A
 Frequencies --    398.6504               436.0232               517.6251
 Red. masses --      9.3101                13.4222                 7.9790
 Frc consts  --      0.8717                 1.5035                 1.2596
 IR Inten    --      4.8768                 4.1089                36.8311

                      7                      8                      9
                      A                      A                      A
 Frequencies --    537.8838               603.5701               703.9947
 Red. masses --      1.1961                13.2393                10.0512
 Frc consts  --      0.2039                 2.8417                 2.9350
 IR Inten    --     83.5552                 0.2113                30.5866

                     10                     11                     12
                      A                      A                      A
 Frequencies --    792.1141               825.2937              1169.8460
 Red. masses --     10.8317                13.0988                 4.8176
 Frc consts  --      4.0043                 5.2565                 3.8845
 IR Inten    --      7.8484                12.4348                85.2830

                     13                     14                     15
                      A                      A                      A
 Frequencies --   1255.0230              1268.7915              1280.4581
 Red. masses --     13.0099                 1.6200                13.1260
 Frc consts  --     12.0733                 1.5366                12.6799
 IR Inten    --    423.9761               201.3204               293.0524

                     16                     17                     18
                      A                      A                      A
 Frequencies --   1432.5650              1951.6032              3843.9906
 Red. masses --      5.7924                11.4573                 1.0657
 Frc consts  --      7.0039                25.7108                 9.2781
 IR Inten    --    134.3381               292.8890               148.3796

 - Thermochemistry -
 -------------------
 Temperature   298.150 Kelvin.  Pressure   1.00000 Atm.
 Atom     1 has atomic number  6 and mass  12.00000

 Molecular mass:   113.99286 amu.
 Principal axes and moments of inertia in atomic units:
                           1         2         3
     Eigenvalues --   468.65323 715.00073 869.07051
           X            0.99763  -0.06181  -0.03020
           Y            0.06788   0.81302   0.57827
           Z           -0.01119  -0.57895   0.81529
 This molecule is an asymmetric top.
 Rotational symmetry number  1.
 Warning -- assumption of classical behavior for rotation
           may cause significant error
 Rotational temperatures (Kelvin)      0.18481     0.12114     0.09966
 Rotational constants (GHZ):           3.85091     2.52411     2.07663
 Zero-point vibrational energy     105007.9 (Joules/Mol)
                                   25.09750 (Kcal/Mol)
 Warning -- explicit consideration of   8 degrees of freedom as
           vibrations may cause significant error
 Vibrational temperatures:     21.79   368.43   384.60   573.57   627.34
          (Kelvin)            744.75   773.89   868.40  1012.89  1139.68
                             1187.41  1683.15  1805.70  1825.51  1842.29
                             2061.14  2807.92  5530.65

 Zero-point correction=                           0.039995 (Hartree/Particle)
 Thermal correction to Energy=                    0.046160
 Thermal correction to Enthalpy=                  0.047104
 Thermal correction to Gibbs Free Energy=         0.008114
 Sum of electronic and zero-point Energies=           -526.807894
 Sum of electronic and thermal Energies=              -526.801730
 Sum of electronic and thermal Enthalpies=            -526.800786
 Sum of electronic and thermal Free Energies=         -526.839775

                     E (Thermal)             CV                S
                      KCal/Mol        Cal/Mol-Kelvin    Cal/Mol-Kelvin
 Total                   28.966             20.623             82.061
 Electronic               0.000              0.000              0.000
 Translational            0.889              2.981             40.108
 Rotational               0.889              2.981             27.168
 Vibrational             27.188             14.661             14.785
 Vibration     1          0.593              1.986              7.186
 Vibration     2          0.666              1.753              1.688
 Vibration     3          0.672              1.733              1.614
 Vibration     4          0.765              1.473              0.968
 Vibration     5          0.796              1.392              0.839
 Vibration     6          0.873              1.211              0.615
 Vibration     7          0.893              1.166              0.570
 Vibration     8          0.962              1.024              0.444

 Optimization completed.
    -- Stationary point found.
 Normal termination of Gaussian 16 at Sat May 24 05:07:27 2025.
