 Gaussian 16, Revision C.01,
 Gaussian 16:  ES64L-G16RevC.01  3-Jul-2019

 -----------------------------------------------------------------
 #P M062X/Def2TZVPP Symm(None) scf(xqc) pop(None) freq opt(CalcFC)
 -----------------------------------------------------------------

 ------------------------------
 Gaussian input prepared by ASE
 ------------------------------
 Symbolic Z-matrix:
 Charge =  0 Multiplicity = 1

 SCF Done:  E(RM062X) =  -576.091897097     A.U. after   11 cycles
 Optimization completed.
    -- Stationary point found.
 Normal termination of Gaussian 16 at Sat May 24 07:18:38 2025.

 ---------------------------------------------------------------------
 #P Geom=AllCheck Guess=TCheck SCRF=Check GenChk RM062X/def2TZVPP Freq
 ---------------------------------------------------------------------

 Structure from the checkpoint file:  "/tmp/Gau-167321.chk"
 ------------------------------
 Gaussian input prepared by ASE
 ------------------------------
 Charge =  0 Multiplicity = 1

                          Input orientation:
 ---------------------------------------------------------------------
 Center     Atomic      Atomic             Coordinates (Angstroms)
 Number     Number       Type             X           Y           Z
 ---------------------------------------------------------------------
      1          6           0       -0.587522    0.663992   -0.564400
      2          6           0       -0.850774    0.102555    0.835539
      3          9           0       -1.821717   -0.797255    0.817385
      4          9           0        0.255599   -0.467951    1.303452
      5          9           0       -1.195765    1.090853    1.655749
      6          9           0       -1.717281    1.226414   -1.019496
      7          9           0       -0.249346   -0.349742   -1.375465
      8          1           0        0.213181    1.404368   -0.540928
 ---------------------------------------------------------------------

 SCF Done:  E(RM062X) =  -576.091897097     A.U. after    1 cycles

 Isotropic polarizability for W=    0.000000       27.56 Bohr**3.
 End of Minotr F.D. properties file   721 does not exist.

                      1                      2                      3
                      A                      A                      A
 Frequencies --     77.2344               214.6000               247.4259
 Red. masses --     13.3872                18.6365                14.1504
 Frc consts  --      0.0471                 0.5057                 0.5104
 IR Inten    --      0.9257                 2.4395                 4.0395

                      4                      5                      6
                      A                      A                      A
 Frequencies --    367.9138               422.6334               528.8547
 Red. masses --     17.8087                15.3515                14.9235
 Frc consts  --      1.4203                 1.6156                 2.4592
 IR Inten    --      0.0540                 1.1539                 9.0053

                      7                      8                      9
                      A                      A                      A
 Frequencies --    589.5082               594.9683               740.0415
 Red. masses --      9.7392                16.2176                11.9172
 Frc consts  --      1.9941                 3.3824                 3.8454
 IR Inten    --     16.1556                 0.8970                37.7514

                     10                     11                     12
                      A                      A                      A
 Frequencies --    894.4340              1184.9117              1202.7528
 Red. masses --      5.9487                 6.7812                 4.6725
 Frc consts  --      2.8040                 5.6096                 3.9825
 IR Inten    --     41.5790               131.1229               102.8198

                     13                     14                     15
                      A                      A                      A
 Frequencies --   1243.5488              1278.6946              1351.5314
 Red. masses --      3.6980                13.1652                 3.4510
 Frc consts  --      3.3694                12.6827                 3.7140
 IR Inten    --    190.1713               392.7907               188.8886

                     16                     17                     18
                      A                      A                      A
 Frequencies --   1395.3087              1481.6492              3131.6094
 Red. masses --      1.2695                 2.7733                 1.0881
 Frc consts  --      1.4563                 3.5870                 6.2870
 IR Inten    --     12.3879                 2.5028                14.9677

 - Thermochemistry -
 -------------------
 Temperature   298.150 Kelvin.  Pressure   1.00000 Atm.
 Atom     1 has atomic number  6 and mass  12.00000

 Molecular mass:   119.99984 amu.
 Principal axes and moments of inertia in atomic units:
                           1         2         3
     Eigenvalues --   486.15384 740.70895 894.07498
           X            0.05372  -0.67245   0.73819
           Y           -0.17214   0.72195   0.67019
           Z            0.98361   0.16307   0.07697
 This molecule is an asymmetric top.
 Rotational symmetry number  1.
 Warning -- assumption of classical behavior for rotation
           may cause significant error
 Rotational temperatures (Kelvin)      0.17816     0.11693     0.09688
 Rotational constants (GHZ):           3.71228     2.43651     2.01856
 Zero-point vibrational energy     101369.3 (Joules/Mol)
                                   24.22784 (Kcal/Mol)
 Warning -- explicit consideration of   8 degrees of freedom as
           vibrations may cause significant error
 Vibrational temperatures:    111.12   308.76   355.99   529.35   608.08
          (Kelvin)            760.90   848.17   856.03  1064.75  1286.89
                             1704.82  1730.49  1789.19  1839.76  1944.55
                             2007.54  2131.76  4505.69

 Zero-point correction=                           0.038610 (Hartree/Particle)
 Thermal correction to Energy=                    0.044647
 Thermal correction to Enthalpy=                  0.045591
 Thermal correction to Gibbs Free Energy=         0.007896
 Sum of electronic and zero-point Energies=           -576.053288
 Sum of electronic and thermal Energies=              -576.047250
 Sum of electronic and thermal Enthalpies=            -576.046306
 Sum of electronic and thermal Free Energies=         -576.084001

                     E (Thermal)             CV                S
                      KCal/Mol        Cal/Mol-Kelvin    Cal/Mol-Kelvin
 Total                   28.016             20.083             79.337
 Electronic               0.000              0.000              0.000
 Translational            0.889              2.981             40.261
 Rotational               0.889              2.981             27.267
 Vibrational             26.239             14.122             11.808
 Vibration     1          0.599              1.964              3.960
 Vibration     2          0.645              1.819              2.004
 Vibration     3          0.661              1.767              1.749
 Vibration     4          0.741              1.538              1.088
 Vibration     5          0.785              1.421              0.883
 Vibration     6          0.884              1.186              0.590
 Vibration     7          0.947              1.054              0.468
 Vibration     8          0.953              1.042              0.458

 Optimization completed.
    -- Stationary point found.
 Normal termination of Gaussian 16 at Sat May 24 07:19:54 2025.
