 Gaussian 16, Revision C.01,
 Gaussian 16:  ES64L-G16RevC.01  3-Jul-2019

 -----------------------------------------------------------------
 #P M062X/Def2TZVPP Symm(None) scf(xqc) pop(None) freq opt(CalcFC)
 -----------------------------------------------------------------

 ------------------------------
 Gaussian input prepared by ASE
 ------------------------------
 Symbolic Z-matrix:
 Charge =  0 Multiplicity = 1

 SCF Done:  E(RM062X) =  -651.338908250     A.U. after   12 cycles
 Optimization completed.
    -- Stationary point found.
 Normal termination of Gaussian 16 at Sat May 24 06:15:59 2025.

 ---------------------------------------------------------------------
 #P Geom=AllCheck Guess=TCheck SCRF=Check GenChk RM062X/def2TZVPP Freq
 ---------------------------------------------------------------------

 Structure from the checkpoint file:  "/tmp/Gau-208861.chk"
 ------------------------------
 Gaussian input prepared by ASE
 ------------------------------
 Charge =  0 Multiplicity = 1

                          Input orientation:
 ---------------------------------------------------------------------
 Center     Atomic      Atomic             Coordinates (Angstroms)
 Number     Number       Type             X           Y           Z
 ---------------------------------------------------------------------
      1          6           0        1.542362    0.000000    0.000000
      2          6           0        0.000000    0.000000    0.000000
      3          9           0       -0.445855   -1.248426   -0.001522
      4          9           0       -0.456444    0.617036    1.079701
      5          9           0       -0.456455    0.619705   -1.078143
      6          9           0        1.970645   -0.682394   -1.077874
      7          9           0        1.970598   -0.682421    1.077859
      8          8           0        1.980097    1.269256    0.000000
      9          1           0        2.944763    1.279791    0.001113
 ---------------------------------------------------------------------

 SCF Done:  E(RM062X) =  -651.338908250     A.U. after    1 cycles

 Isotropic polarizability for W=    0.000000       31.57 Bohr**3.
 End of Minotr F.D. properties file   721 does not exist.

                      1                      2                      3
                      A                      A                      A
 Frequencies --     69.4002               219.3871               228.3454
 Red. masses --     17.3826                18.5147                11.5576
 Frc consts  --      0.0493                 0.5250                 0.3551
 IR Inten    --      0.0002                 1.8082                 0.2868

                      4                      5                      6
                      A                      A                      A
 Frequencies --    270.8504               354.7242               387.7701
 Red. masses --      1.1131                14.6146                12.2006
 Frc consts  --      0.0481                 1.0835                 1.0809
 IR Inten    --    108.7566                 0.5277                 3.0720

                      7                      8                      9
                      A                      A                      A
 Frequencies --    392.7208               532.3123               541.6292
 Red. masses --     10.3648                15.3398                14.0353
 Frc consts  --      0.9418                 2.5610                 2.4259
 IR Inten    --      9.2018                10.1312                18.2579

                     10                     11                     12
                      A                      A                      A
 Frequencies --    628.2311               629.9917               703.5800
 Red. masses --     17.4432                16.4383                 6.4334
 Frc consts  --      4.0562                 3.8439                 1.8764
 IR Inten    --      0.2373                 0.0848                65.3815

                     13                     14                     15
                      A                      A                      A
 Frequencies --    826.3904              1066.4493              1206.1199
 Red. masses --     10.8185                 3.5034                13.0183
 Frc consts  --      4.3530                 2.3476                11.1580
 IR Inten    --      5.9060               161.1012               223.5853

                     16                     17                     18
                      A                      A                      A
 Frequencies --   1263.8822              1296.1492              1297.4707
 Red. masses --      2.5805                13.1395                 8.3117
 Frc consts  --      2.4287                13.0059                 8.2439
 IR Inten    --    229.0245               328.2367               192.6450

                     19                     20                     21
                      A                      A                      A
 Frequencies --   1312.1719              1518.3970              3843.8556
 Red. masses --     12.0118                 4.4109                 1.0654
 Frc consts  --     12.1854                 5.9916                 9.2747
 IR Inten    --    347.7665                 3.2764               120.8028

 - Thermochemistry -
 -------------------
 Temperature   298.150 Kelvin.  Pressure   1.00000 Atm.
 Atom     1 has atomic number  6 and mass  12.00000

 Molecular mass:   135.99476 amu.
 Principal axes and moments of inertia in atomic units:
                           1         2         3
     Eigenvalues --   633.21810 967.61237 969.64001
           X            0.99917   0.04085  -0.00006
           Y           -0.04085   0.99916  -0.00144
           Z            0.00000   0.00144   1.00000
 This molecule is an asymmetric top.
 Rotational symmetry number  1.
 Warning -- assumption of classical behavior for rotation
           may cause significant error
 Rotational temperatures (Kelvin)      0.13678     0.08951     0.08933
 Rotational constants (GHZ):           2.85011     1.86515     1.86125
 Zero-point vibrational energy     111191.9 (Joules/Mol)
                                   26.57549 (Kcal/Mol)
 Warning -- explicit consideration of   9 degrees of freedom as
           vibrations may cause significant error
 Vibrational temperatures:     99.85   315.65   328.54   389.69   510.37
          (Kelvin)            557.91   565.04   765.88   779.28   903.88
                              906.42  1012.29  1188.99  1534.38  1735.34
                             1818.44  1864.87  1866.77  1887.92  2184.63
                             5530.45

 Zero-point correction=                           0.042351 (Hartree/Particle)
 Thermal correction to Energy=                    0.049442
 Thermal correction to Enthalpy=                  0.050387
 Thermal correction to Gibbs Free Energy=         0.010502
 Sum of electronic and zero-point Energies=           -651.296558
 Sum of electronic and thermal Energies=              -651.289466
 Sum of electronic and thermal Enthalpies=            -651.288522
 Sum of electronic and thermal Free Energies=         -651.328406

                     E (Thermal)             CV                S
                      KCal/Mol        Cal/Mol-Kelvin    Cal/Mol-Kelvin
 Total                   31.026             24.712             83.944
 Electronic               0.000              0.000              0.000
 Translational            0.889              2.981             40.634
 Rotational               0.889              2.981             27.876
 Vibrational             29.248             18.750             15.434
 Vibration     1          0.598              1.969              4.170
 Vibration     2          0.647              1.812              1.964
 Vibration     3          0.651              1.798              1.892
 Vibration     4          0.675              1.727              1.591
 Vibration     5          0.731              1.566              1.145
 Vibration     6          0.756              1.496              1.009
 Vibration     7          0.760              1.486              0.990
 Vibration     8          0.887              1.179              0.582
 Vibration     9          0.897              1.158              0.562

 Optimization completed.
    -- Stationary point found.
 Normal termination of Gaussian 16 at Sat May 24 06:18:09 2025.
