 Gaussian 16, Revision C.01,
 Gaussian 16:  ES64L-G16RevC.01  3-Jul-2019

 -----------------------------------------------------------------
 #P M062X/Def2TZVPP Symm(None) scf(xqc) pop(None) freq opt(CalcFC)
 -----------------------------------------------------------------

 ------------------------------
 Gaussian input prepared by ASE
 ------------------------------
 Symbolic Z-matrix:
 Charge =  0 Multiplicity = 1

 SCF Done:  E(RM062X) =  -651.335373491     A.U. after   12 cycles
 SCF Done:  E(RM062X) =  -651.337634349     A.U. after   10 cycles
 SCF Done:  E(RM062X) =  -651.337676541     A.U. after   10 cycles
 SCF Done:  E(RM062X) =  -651.337673540     A.U. after   10 cycles
 SCF Done:  E(RM062X) =  -651.337677986     A.U. after    9 cycles
 SCF Done:  E(RM062X) =  -651.337678270     A.U. after    7 cycles
 Optimization completed.
    -- Stationary point found.
 Normal termination of Gaussian 16 at Sat May 24 06:16:45 2025.

 ---------------------------------------------------------------------
 #P Geom=AllCheck Guess=TCheck SCRF=Check GenChk RM062X/def2TZVPP Freq
 ---------------------------------------------------------------------

 Structure from the checkpoint file:  "/tmp/Gau-208859.chk"
 ------------------------------
 Gaussian input prepared by ASE
 ------------------------------
 Charge =  0 Multiplicity = 1

                          Input orientation:
 ---------------------------------------------------------------------
 Center     Atomic      Atomic             Coordinates (Angstroms)
 Number     Number       Type             X           Y           Z
 ---------------------------------------------------------------------
      1          6           0        1.529826    0.011188   -0.002269
      2          6           0       -0.015214   -0.026740   -0.011176
      3          9           0       -0.464819   -1.268459    0.050821
      4          9           0       -0.467306    0.647944    1.049918
      5          9           0       -0.484036    0.549578   -1.106446
      6          9           0        1.977730   -0.590907   -1.098222
      7          9           0        1.936980   -0.696616    1.069278
      8          8           0        2.019390    1.269552    0.017204
      9          1           0        1.727930    1.721631    0.817159
 ---------------------------------------------------------------------

 SCF Done:  E(RM062X) =  -651.337678270     A.U. after    1 cycles

 Isotropic polarizability for W=    0.000000       31.47 Bohr**3.
 End of Minotr F.D. properties file   721 does not exist.

                      1                      2                      3
                      A                      A                      A
 Frequencies --     74.8313               214.6876               225.2543
 Red. masses --     14.6882                 4.2906                13.0920
 Frc consts  --      0.0485                 0.1165                 0.3914
 IR Inten    --      0.7537                26.3330                 2.5300

                      4                      5                      6
                      A                      A                      A
 Frequencies --    273.9117               355.9861               388.0170
 Red. masses --      1.3758                16.4124                12.2882
 Frc consts  --      0.0608                 1.2254                 1.0900
 IR Inten    --    101.9685                 0.5885                 2.5175

                      7                      8                      9
                      A                      A                      A
 Frequencies --    401.7072               523.4767               527.1668
 Red. masses --     10.1479                 9.2792                16.5733
 Frc consts  --      0.9648                 1.4982                 2.7137
 IR Inten    --     10.8070                14.4069                 3.4603

                     10                     11                     12
                      A                      A                      A
 Frequencies --    620.6023               630.2799               724.4164
 Red. masses --     11.8225                14.4698                15.6782
 Frc consts  --      2.6828                 3.3867                 4.8476
 IR Inten    --      4.2443                 0.8012                37.6410

                     13                     14                     15
                      A                      A                      A
 Frequencies --    831.2880              1117.7768              1148.1007
 Red. masses --     16.8254                 3.1515                 3.7981
 Frc consts  --      6.8504                 2.3200                 2.9497
 IR Inten    --      0.4167               173.2728               243.6531

                     16                     17                     18
                      A                      A                      A
 Frequencies --   1268.3741              1277.6698              1307.3895
 Red. masses --     12.8660                 6.8817                12.6947
 Frc consts  --     12.1952                 6.6188                12.7844
 IR Inten    --    245.3131               219.0346               453.9253

                     19                     20                     21
                      A                      A                      A
 Frequencies --   1390.8048              1460.3605              3859.2793
 Red. masses --      3.5946                 6.2201                 1.0658
 Frc consts  --      4.0967                 7.8157                 9.3525
 IR Inten    --    126.1310                33.9537               117.1451

 - Thermochemistry -
 -------------------
 Temperature   298.150 Kelvin.  Pressure   1.00000 Atm.
 Atom     1 has atomic number  6 and mass  12.00000

 Molecular mass:   135.99476 amu.
 Principal axes and moments of inertia in atomic units:
                           1         2         3
     Eigenvalues --   636.93710 965.37463 968.21226
           X            0.99999  -0.00194   0.00384
           Y           -0.00355   0.13212   0.99123
           Z            0.00243   0.99123  -0.13211
 This molecule is an asymmetric top.
 Rotational symmetry number  1.
 Warning -- assumption of classical behavior for rotation
           may cause significant error
 Rotational temperatures (Kelvin)      0.13599     0.08972     0.08946
 Rotational constants (GHZ):           2.83347     1.86947     1.86399
 Zero-point vibrational energy     111380.6 (Joules/Mol)
                                   26.62060 (Kcal/Mol)
 Warning -- explicit consideration of  10 degrees of freedom as
           vibrations may cause significant error
 Vibrational temperatures:    107.67   308.89   324.09   394.10   512.18
          (Kelvin)            558.27   577.97   753.17   758.48   892.91
                              906.83  1042.27  1196.04  1608.23  1651.86
                             1824.91  1838.28  1881.04  2001.06  2101.13
                             5552.64

 Zero-point correction=                           0.042423 (Hartree/Particle)
 Thermal correction to Energy=                    0.049508
 Thermal correction to Enthalpy=                  0.050452
 Thermal correction to Gibbs Free Energy=         0.010621
 Sum of electronic and zero-point Energies=           -651.295256
 Sum of electronic and thermal Energies=              -651.288170
 Sum of electronic and thermal Enthalpies=            -651.287226
 Sum of electronic and thermal Free Energies=         -651.327057

                     E (Thermal)             CV                S
                      KCal/Mol        Cal/Mol-Kelvin    Cal/Mol-Kelvin
 Total                   31.067             24.693             83.832
 Electronic               0.000              0.000              0.000
 Translational            0.889              2.981             40.634
 Rotational               0.889              2.981             27.878
 Vibrational             29.289             18.732             15.320
 Vibration     1          0.599              1.966              4.022
 Vibration     2          0.645              1.819              2.003
 Vibration     3          0.650              1.803              1.916
 Vibration     4          0.676              1.721              1.571
 Vibration     5          0.731              1.563              1.140
 Vibration     6          0.756              1.496              1.008
 Vibration     7          0.767              1.466              0.956
 Vibration     8          0.878              1.198              0.602
 Vibration     9          0.882              1.190              0.594
 Vibration    10          0.981              0.988              0.416

 Optimization completed.
    -- Stationary point found.
 Normal termination of Gaussian 16 at Sat May 24 06:18:32 2025.
