 Gaussian 16, Revision C.01,
 Gaussian 16:  ES64L-G16RevC.01  3-Jul-2019

 -----------------------------------------------------------------
 #P M062X/Def2TZVPP Symm(None) scf(xqc) pop(None) freq opt(CalcFC)
 -----------------------------------------------------------------

 ------------------------------
 Gaussian input prepared by ASE
 ------------------------------
 Symbolic Z-matrix:
 Charge =  0 Multiplicity = 1

 SCF Done:  E(RM062X) =  -651.335381409     A.U. after   12 cycles
 SCF Done:  E(RM062X) =  -651.337636685     A.U. after   10 cycles
 SCF Done:  E(RM062X) =  -651.337676933     A.U. after   10 cycles
 SCF Done:  E(RM062X) =  -651.337674322     A.U. after   10 cycles
 SCF Done:  E(RM062X) =  -651.337678076     A.U. after    9 cycles
 SCF Done:  E(RM062X) =  -651.337678371     A.U. after    7 cycles
 Optimization completed.
    -- Stationary point found.
 Normal termination of Gaussian 16 at Sat May 24 06:16:51 2025.

 ---------------------------------------------------------------------
 #P Geom=AllCheck Guess=TCheck SCRF=Check GenChk RM062X/def2TZVPP Freq
 ---------------------------------------------------------------------

 Structure from the checkpoint file:  "/tmp/Gau-208856.chk"
 ------------------------------
 Gaussian input prepared by ASE
 ------------------------------
 Charge =  0 Multiplicity = 1

                          Input orientation:
 ---------------------------------------------------------------------
 Center     Atomic      Atomic             Coordinates (Angstroms)
 Number     Number       Type             X           Y           Z
 ---------------------------------------------------------------------
      1          6           0        1.529997    0.010913    0.001973
      2          6           0       -0.015051   -0.026698    0.010971
      3          9           0       -0.464920   -1.268275   -0.051947
      4          9           0       -0.483669    0.548874    1.106720
      5          9           0       -0.467083    0.648895   -1.049570
      6          9           0        1.936915   -0.696166   -1.070142
      7          9           0        1.977858   -0.592107    1.097435
      8          8           0        2.019824    1.269187   -0.016584
      9          1           0        1.728433    1.721919   -0.816195
 ---------------------------------------------------------------------

 SCF Done:  E(RM062X) =  -651.337678371     A.U. after    1 cycles

 Isotropic polarizability for W=    0.000000       31.47 Bohr**3.
 End of Minotr F.D. properties file   721 does not exist.

                      1                      2                      3
                      A                      A                      A
 Frequencies --     74.8610               214.6769               225.2545
 Red. masses --     14.6885                 4.2773                13.0858
 Frc consts  --      0.0485                 0.1161                 0.3912
 IR Inten    --      0.7534                26.4324                 2.5298

                      4                      5                      6
                      A                      A                      A
 Frequencies --    273.7588               355.9870               388.0188
 Red. masses --      1.3770                16.4120                12.2899
 Frc consts  --      0.0608                 1.2254                 1.0902
 IR Inten    --    101.9021                 0.5872                 2.5166

                      7                      8                      9
                      A                      A                      A
 Frequencies --    401.6945               523.4830               527.1689
 Red. masses --     10.1636                 9.2797                16.5738
 Frc consts  --      0.9662                 1.4983                 2.7138
 IR Inten    --     10.7780                14.4053                 3.4604

                     10                     11                     12
                      A                      A                      A
 Frequencies --    620.6073               630.2824               724.4184
 Red. masses --     11.8231                14.4692                15.6783
 Frc consts  --      2.6830                 3.3866                 4.8476
 IR Inten    --      4.2436                 0.8015                37.6399

                     13                     14                     15
                      A                      A                      A
 Frequencies --    831.2900              1117.7949              1148.1101
 Red. masses --     16.8253                 3.1531                 3.7969
 Frc consts  --      6.8504                 2.3212                 2.9488
 IR Inten    --      0.4170               173.3160               243.6132

                     16                     17                     18
                      A                      A                      A
 Frequencies --   1268.3751              1277.6873              1307.4008
 Red. masses --     12.8658                 6.8805                12.6942
 Frc consts  --     12.1950                 6.6179                12.7842
 IR Inten    --    245.3032               219.0141               453.9717

                     19                     20                     21
                      A                      A                      A
 Frequencies --   1390.8163              1460.3661              3859.2634
 Red. masses --      3.5940                 6.2193                 1.0658
 Frc consts  --      4.0960                 7.8148                 9.3524
 IR Inten    --    126.1094                33.9554               117.1458

 - Thermochemistry -
 -------------------
 Temperature   298.150 Kelvin.  Pressure   1.00000 Atm.
 Atom     1 has atomic number  6 and mass  12.00000

 Molecular mass:   135.99476 amu.
 Principal axes and moments of inertia in atomic units:
                           1         2         3
     Eigenvalues --   636.93704 965.37400 968.21245
           X            0.99999   0.00199   0.00406
           Y           -0.00376  -0.13278   0.99114
           Z           -0.00251   0.99114   0.13277
 This molecule is an asymmetric top.
 Rotational symmetry number  1.
 Warning -- assumption of classical behavior for rotation
           may cause significant error
 Rotational temperatures (Kelvin)      0.13599     0.08972     0.08946
 Rotational constants (GHZ):           2.83347     1.86947     1.86399
 Zero-point vibrational energy     111380.2 (Joules/Mol)
                                   26.62051 (Kcal/Mol)
 Warning -- explicit consideration of  10 degrees of freedom as
           vibrations may cause significant error
 Vibrational temperatures:    107.71   308.87   324.09   393.88   512.19
          (Kelvin)            558.27   577.95   753.18   758.48   892.92
                              906.84  1042.28  1196.04  1608.26  1651.87
                             1824.91  1838.31  1881.06  2001.07  2101.14
                             5552.62

 Zero-point correction=                           0.042422 (Hartree/Particle)
 Thermal correction to Energy=                    0.049508
 Thermal correction to Enthalpy=                  0.050452
 Thermal correction to Gibbs Free Energy=         0.010621
 Sum of electronic and zero-point Energies=           -651.295256
 Sum of electronic and thermal Energies=              -651.288170
 Sum of electronic and thermal Enthalpies=            -651.287226
 Sum of electronic and thermal Free Energies=         -651.327058

                     E (Thermal)             CV                S
                      KCal/Mol        Cal/Mol-Kelvin    Cal/Mol-Kelvin
 Total                   31.067             24.693             83.833
 Electronic               0.000              0.000              0.000
 Translational            0.889              2.981             40.634
 Rotational               0.889              2.981             27.878
 Vibrational             29.289             18.732             15.320
 Vibration     1          0.599              1.966              4.021
 Vibration     2          0.645              1.819              2.004
 Vibration     3          0.650              1.803              1.916
 Vibration     4          0.676              1.722              1.572
 Vibration     5          0.731              1.563              1.140
 Vibration     6          0.756              1.496              1.008
 Vibration     7          0.767              1.466              0.956
 Vibration     8          0.878              1.198              0.602
 Vibration     9          0.882              1.190              0.594
 Vibration    10          0.981              0.988              0.416

 Optimization completed.
    -- Stationary point found.
 Normal termination of Gaussian 16 at Sat May 24 06:18:46 2025.
