 Gaussian 16, Revision C.01,
 Gaussian 16:  ES64L-G16RevC.01  3-Jul-2019

 -----------------------------------------------------------------
 #P M062X/Def2TZVPP Symm(None) scf(xqc) pop(None) freq opt(CalcFC)
 -----------------------------------------------------------------

 ------------------------------
 Gaussian input prepared by ASE
 ------------------------------
 Symbolic Z-matrix:
 Charge =  0 Multiplicity = 2

 SCF Done:  E(UM062X) =  -664.714660664     A.U. after   17 cycles
 SCF Done:  E(UM062X) =  -664.724919056     A.U. after   14 cycles
 SCF Done:  E(UM062X) =  -664.726739469     A.U. after   14 cycles
 SCF Done:  E(UM062X) =  -664.727657824     A.U. after   14 cycles
 SCF Done:  E(UM062X) =  -664.728503373     A.U. after   16 cycles
 SCF Done:  E(UM062X) =  -664.728867333     A.U. after   13 cycles
 SCF Done:  E(UM062X) =  -664.729004178     A.U. after   13 cycles
 SCF Done:  E(UM062X) =  -664.729011268     A.U. after   13 cycles
 SCF Done:  E(UM062X) =  -664.729031698     A.U. after   11 cycles
 SCF Done:  E(UM062X) =  -664.729048458     A.U. after   12 cycles
 SCF Done:  E(UM062X) =  -664.729054426     A.U. after   12 cycles
 SCF Done:  E(UM062X) =  -664.729055402     A.U. after   12 cycles
 SCF Done:  E(UM062X) =  -664.729055432     A.U. after    8 cycles
 Optimization completed.
    -- Stationary point found.
 Normal termination of Gaussian 16 at Sat May 24 00:56:23 2025.

 ---------------------------------------------------------------------
 #P Geom=AllCheck Guess=TCheck SCRF=Check GenChk UM062X/def2TZVPP Freq
 ---------------------------------------------------------------------

 Structure from the checkpoint file:  "/tmp/Gau-180196.chk"
 ------------------------------
 Gaussian input prepared by ASE
 ------------------------------
 Charge =  0 Multiplicity = 2

                          Input orientation:
 ---------------------------------------------------------------------
 Center     Atomic      Atomic             Coordinates (Angstroms)
 Number     Number       Type             X           Y           Z
 ---------------------------------------------------------------------
      1          6           0        1.580614    0.122790    0.246026
      2          8           0        2.112735   -0.770423    0.816753
      3          6           0        0.034951    0.143188    0.102382
      4          6           0       -0.659508    0.349336    1.431233
      5          9           0       -0.623412   -0.673940    2.242758
      6          9           0       -0.303837    1.468120    2.030971
      7          9           0       -0.334819    1.161466   -0.716717
      8          9           0       -0.373859   -1.009082   -0.430644
      9          8           0        2.219007    1.169870   -0.266437
     10          1           0        1.607106    1.764508   -0.717313
 ---------------------------------------------------------------------

 SCF Done:  E(UM062X) =  -664.729055432     A.U. after    1 cycles

 Isotropic polarizability for W=    0.000000       42.96 Bohr**3.
 End of Minotr F.D. properties file   721 does not exist.

                      1                      2                      3
                      A                      A                      A
 Frequencies --     20.0993                67.4809               136.8521
 Red. masses --      9.3807                16.7111                16.7978
 Frc consts  --      0.0022                 0.0448                 0.1854
 IR Inten    --      3.7338                 0.2582                 2.6152

                      4                      5                      6
                      A                      A                      A
 Frequencies --    206.9266               270.3664               359.0060
 Red. masses --     17.2094                13.7411                14.8000
 Frc consts  --      0.4342                 0.5918                 1.1239
 IR Inten    --      3.4166                 7.5556                 2.4145

                      7                      8                      9
                      A                      A                      A
 Frequencies --    373.6556               426.1473               495.7296
 Red. masses --     10.2241                14.0452                 5.4733
 Frc consts  --      0.8410                 1.5028                 0.7925
 IR Inten    --     11.2113                 1.0003                50.6079

                     10                     11                     12
                      A                      A                      A
 Frequencies --    554.2209               565.4038               600.8535
 Red. masses --      1.4728                 7.1990                 7.5267
 Frc consts  --      0.2665                 1.3559                 1.6010
 IR Inten    --     49.1617                31.5022                 2.9175

                     13                     14                     15
                      A                      A                      A
 Frequencies --    665.3704               778.4320               805.8579
 Red. masses --     13.7950                 9.9756                11.2997
 Frc consts  --      3.5983                 3.5615                 4.3235
 IR Inten    --      7.0643                13.6501                 4.6919

                     16                     17                     18
                      A                      A                      A
 Frequencies --   1070.8887              1169.6326              1243.2515
 Red. masses --     12.8394                 6.0477                 2.0158
 Frc consts  --      8.6753                 4.8746                 1.8357
 IR Inten    --     78.9158               124.1884                34.4084

                     19                     20                     21
                      A                      A                      A
 Frequencies --   1258.2185              1333.8078              1382.0521
 Red. masses --      8.6113                 9.7874                 4.2309
 Frc consts  --      8.0322                10.2590                 4.7614
 IR Inten    --    288.1580               127.7340               444.1215

                     22                     23                     24
                      A                      A                      A
 Frequencies --   1408.4365              1932.8291              3836.6059
 Red. masses --      9.0160                11.4394                 1.0655
 Frc consts  --     10.5375                25.1792                 9.2409
 IR Inten    --      9.5537               298.3026               140.9996

 - Thermochemistry -
 -------------------
 Temperature   298.150 Kelvin.  Pressure   1.00000 Atm.
 Atom     1 has atomic number  6 and mass  12.00000

 Molecular mass:   144.99127 amu.
 Principal axes and moments of inertia in atomic units:
                           1         2         3
     Eigenvalues --   882.571621249.089791278.68371
           X            0.74442   0.58615   0.31980
           Y            0.09885  -0.57041   0.81539
           Z           -0.66036   0.57538   0.48256
 This molecule is an asymmetric top.
 Rotational symmetry number  1.
 Warning -- assumption of classical behavior for rotation
           may cause significant error
 Rotational temperatures (Kelvin)      0.09814     0.06934     0.06774
 Rotational constants (GHZ):           2.04487     1.44485     1.41141
 Zero-point vibrational energy     125381.4 (Joules/Mol)
                                   29.96686 (Kcal/Mol)
 Warning -- explicit consideration of  12 degrees of freedom as
           vibrations may cause significant error
 Vibrational temperatures:     28.92    97.09   196.90   297.72   389.00
          (Kelvin)            516.53   537.61   613.13   713.24   797.40
                              813.49   864.49   957.32  1119.99  1159.45
                             1540.77  1682.84  1788.76  1810.30  1919.05
                             1988.46  2026.43  2780.91  5520.02

 Zero-point correction=                           0.047755 (Hartree/Particle)
 Thermal correction to Energy=                    0.056075
 Thermal correction to Enthalpy=                  0.057020
 Thermal correction to Gibbs Free Energy=         0.012095
 Sum of electronic and zero-point Energies=           -664.681300
 Sum of electronic and thermal Energies=              -664.672980
 Sum of electronic and thermal Enthalpies=            -664.672036
 Sum of electronic and thermal Free Energies=         -664.716960

                     E (Thermal)             CV                S
                      KCal/Mol        Cal/Mol-Kelvin    Cal/Mol-Kelvin
 Total                   35.188             27.881             94.552
 Electronic               0.000              0.000              1.377
 Translational            0.889              2.981             40.825
 Rotational               0.889              2.981             28.735
 Vibrational             33.410             21.919             23.614
 Vibration     1          0.593              1.986              6.624
 Vibration     2          0.598              1.970              4.226
 Vibration     3          0.614              1.917              2.847
 Vibration     4          0.641              1.830              2.071
 Vibration     5          0.674              1.728              1.594
 Vibration     6          0.734              1.557              1.126
 Vibration     7          0.745              1.526              1.065
 Vibration     8          0.788              1.413              0.871
 Vibration     9          0.851              1.259              0.669
 Vibration    10          0.910              1.130              0.535
 Vibration    11          0.921              1.106              0.513
 Vibration    12          0.959              1.030              0.448

 Optimization completed.
    -- Stationary point found.
 Normal termination of Gaussian 16 at Sat May 24 01:00:26 2025.
