 Gaussian 16, Revision C.01,
 Gaussian 16:  ES64L-G16RevC.01  3-Jul-2019

 -----------------------------------------------------------------
 #P M062X/Def2TZVPP Symm(None) scf(xqc) pop(None) freq opt(CalcFC)
 -----------------------------------------------------------------

 ------------------------------
 Gaussian input prepared by ASE
 ------------------------------
 Symbolic Z-matrix:
 Charge =  0 Multiplicity = 2

 SCF Done:  E(UM062X) =  -664.740830440     A.U. after   17 cycles
 SCF Done:  E(UM062X) =  -664.747436226     A.U. after   17 cycles
 SCF Done:  E(UM062X) =  -664.748071767     A.U. after   15 cycles
 SCF Done:  E(UM062X) =  -664.748354603     A.U. after   15 cycles
 SCF Done:  E(UM062X) =  -664.748599069     A.U. after   13 cycles
 SCF Done:  E(UM062X) =  -664.748742129     A.U. after   13 cycles
 SCF Done:  E(UM062X) =  -664.748863501     A.U. after   14 cycles
 SCF Done:  E(UM062X) =  -664.748916220     A.U. after   14 cycles
 SCF Done:  E(UM062X) =  -664.748947431     A.U. after   13 cycles
 SCF Done:  E(UM062X) =  -664.748959735     A.U. after   13 cycles
 SCF Done:  E(UM062X) =  -664.748971298     A.U. after   13 cycles
 SCF Done:  E(UM062X) =  -664.748982331     A.U. after   13 cycles
 SCF Done:  E(UM062X) =  -664.748983169     A.U. after   10 cycles
 SCF Done:  E(UM062X) =  -664.748984727     A.U. after   13 cycles
 SCF Done:  E(UM062X) =  -664.748985725     A.U. after   13 cycles
 SCF Done:  E(UM062X) =  -664.748985983     A.U. after   10 cycles
 SCF Done:  E(UM062X) =  -664.748986254     A.U. after   13 cycles
 SCF Done:  E(UM062X) =  -664.748986296     A.U. after   10 cycles
 SCF Done:  E(UM062X) =  -664.748986297     A.U. after    9 cycles
 Optimization completed.
    -- Stationary point found.
 Normal termination of Gaussian 16 at Sat May 24 01:02:23 2025.

 ---------------------------------------------------------------------
 #P Geom=AllCheck Guess=TCheck SCRF=Check GenChk UM062X/def2TZVPP Freq
 ---------------------------------------------------------------------

 Structure from the checkpoint file:  "/tmp/Gau-61761.chk"
 ------------------------------
 Gaussian input prepared by ASE
 ------------------------------
 Charge =  0 Multiplicity = 2

                          Input orientation:
 ---------------------------------------------------------------------
 Center     Atomic      Atomic             Coordinates (Angstroms)
 Number     Number       Type             X           Y           Z
 ---------------------------------------------------------------------
      1          6           0        1.483218   -0.037688    0.195621
      2          8           0        2.058851   -1.067071    0.003505
      3          6           0        0.066027    0.087204   -0.185283
      4          6           0       -0.908888    1.220736   -0.053672
      5          9           0       -1.927514    0.889383    0.733403
      6          9           0       -0.321877    2.307825    0.474220
      7          9           0       -1.406551    1.563563   -1.236788
      8          9           0       -0.482793   -0.970171   -0.721648
      9          8           0        2.083558    1.021960    0.750908
     10          1           0        1.496082    1.779579    0.838348
 ---------------------------------------------------------------------

 SCF Done:  E(UM062X) =  -664.748986297     A.U. after    1 cycles

 Isotropic polarizability for W=    0.000000       43.51 Bohr**3.
 End of Minotr F.D. properties file   721 does not exist.

                      1                      2                      3
                      A                      A                      A
 Frequencies --      6.9639                63.0941               180.9307
 Red. masses --     17.5319                 8.8676                15.2438
 Frc consts  --      0.0005                 0.0208                 0.2940
 IR Inten    --      1.1688                 8.0852                 1.0871

                      4                      5                      6
                      A                      A                      A
 Frequencies --    221.3504               276.0819               372.1000
 Red. masses --     12.3337                13.8767                14.7473
 Frc consts  --      0.3560                 0.6232                 1.2030
 IR Inten    --     11.1113                 1.5046                 3.1196

                      7                      8                      9
                      A                      A                      A
 Frequencies --    380.9965               424.1127               449.0593
 Red. masses --     13.4231                 4.9105                 1.3909
 Frc consts  --      1.1480                 0.5204                 0.1653
 IR Inten    --      2.9329                32.6222                69.5455

                     10                     11                     12
                      A                      A                      A
 Frequencies --    518.1495               572.9846               613.6150
 Red. masses --      9.8529                12.2784                13.1459
 Frc consts  --      1.5586                 2.3751                 2.9163
 IR Inten    --      1.0934                 5.0041                 1.5129

                     13                     14                     15
                      A                      A                      A
 Frequencies --    704.6411               707.2170               790.6427
 Red. masses --      9.0846                12.2625                13.1983
 Frc consts  --      2.6576                 3.6136                 4.8610
 IR Inten    --      6.4591                46.5574                 0.5525

                     16                     17                     18
                      A                      A                      A
 Frequencies --   1079.4780              1174.2097              1232.3650
 Red. masses --     13.1962                 2.7558                13.1123
 Frc consts  --      9.0600                 2.2387                11.7330
 IR Inten    --    100.4214                34.8943               299.3268

                     19                     20                     21
                      A                      A                      A
 Frequencies --   1256.9661              1310.7425              1379.0018
 Red. masses --      6.5620                 2.5656                 6.0657
 Frc consts  --      6.1085                 2.5970                 6.7961
 IR Inten    --    334.1950               267.1413               345.5186

                     22                     23                     24
                      A                      A                      A
 Frequencies --   1490.7937              1834.9072              3873.6722
 Red. masses --     11.0466                10.8511                 1.0655
 Frc consts  --     14.4648                21.5254                 9.4196
 IR Inten    --     12.5590               280.8843               176.3046

 - Thermochemistry -
 -------------------
 Temperature   298.150 Kelvin.  Pressure   1.00000 Atm.
 Atom     1 has atomic number  6 and mass  12.00000

 Molecular mass:   144.99127 amu.
 Principal axes and moments of inertia in atomic units:
                           1         2         3
     Eigenvalues --   692.272011382.558241762.21656
           X            0.87453   0.40501  -0.26676
           Y           -0.47735   0.81598  -0.32604
           Z            0.08562   0.41248   0.90694
 This molecule is an asymmetric top.
 Rotational symmetry number  1.
 Warning -- assumption of classical behavior for rotation
           may cause significant error
 Rotational temperatures (Kelvin)      0.12512     0.06265     0.04915
 Rotational constants (GHZ):           2.60698     1.30536     1.02413
 Zero-point vibrational energy     125094.0 (Joules/Mol)
                                   29.89817 (Kcal/Mol)
 Warning -- explicit consideration of  12 degrees of freedom as
           vibrations may cause significant error
 Vibrational temperatures:     10.02    90.78   260.32   318.47   397.22
          (Kelvin)            535.37   548.17   610.20   646.10   745.50
                              824.40   882.86  1013.82  1017.53  1137.56
                             1553.13  1689.43  1773.10  1808.49  1885.87
                             1984.08  2144.92  2640.02  5573.35

 Zero-point correction=                           0.047646 (Hartree/Particle)
 Thermal correction to Energy=                    0.055941
 Thermal correction to Enthalpy=                  0.056885
 Thermal correction to Gibbs Free Energy=         0.011079
 Sum of electronic and zero-point Energies=           -664.701341
 Sum of electronic and thermal Energies=              -664.693045
 Sum of electronic and thermal Enthalpies=            -664.692101
 Sum of electronic and thermal Free Energies=         -664.737907

                     E (Thermal)             CV                S
                      KCal/Mol        Cal/Mol-Kelvin    Cal/Mol-Kelvin
 Total                   35.104             27.970             96.408
 Electronic               0.000              0.000              1.377
 Translational            0.889              2.981             40.825
 Rotational               0.889              2.981             28.913
 Vibrational             33.326             22.008             25.292
 Vibration     1          0.593              1.987              8.730
 Vibration     2          0.597              1.972              4.358
 Vibration     3          0.630              1.866              2.319
 Vibration     4          0.648              1.809              1.948
 Vibration     5          0.678              1.718              1.558
 Vibration     6          0.744              1.529              1.071
 Vibration     7          0.751              1.511              1.035
 Vibration     8          0.786              1.418              0.878
 Vibration     9          0.808              1.363              0.799
 Vibration    10          0.873              1.210              0.614
 Vibration    11          0.929              1.090              0.499
 Vibration    12          0.973              1.003              0.427

 Optimization completed.
    -- Stationary point found.
 Normal termination of Gaussian 16 at Sat May 24 01:06:38 2025.
