 Gaussian 16, Revision C.01,
 Gaussian 16:  ES64L-G16RevC.01  3-Jul-2019

 -----------------------------------------------------------------
 #P M062X/Def2TZVPP Symm(None) scf(xqc) pop(None) freq opt(CalcFC)
 -----------------------------------------------------------------

 ------------------------------
 Gaussian input prepared by ASE
 ------------------------------
 Symbolic Z-matrix:
 Charge =  0 Multiplicity = 2

 SCF Done:  E(UM062X) =  -664.729818817     A.U. after   17 cycles
 SCF Done:  E(UM062X) =  -664.732012765     A.U. after   16 cycles
 SCF Done:  E(UM062X) =  -664.727856394     A.U. after   15 cycles
 SCF Done:  E(UM062X) =  -664.732225799     A.U. after   13 cycles
 SCF Done:  E(UM062X) =  -664.732321961     A.U. after   13 cycles
 SCF Done:  E(UM062X) =  -664.732388280     A.U. after   13 cycles
 SCF Done:  E(UM062X) =  -664.732378158     A.U. after   12 cycles
 SCF Done:  E(UM062X) =  -664.732442155     A.U. after   11 cycles
 SCF Done:  E(UM062X) =  -664.732522015     A.U. after   14 cycles
 SCF Done:  E(UM062X) =  -664.732529120     A.U. after   12 cycles
 SCF Done:  E(UM062X) =  -664.732531228     A.U. after   12 cycles
 SCF Done:  E(UM062X) =  -664.732531279     A.U. after    8 cycles
 SCF Done:  E(UM062X) =  -664.732531299     A.U. after    8 cycles
 Optimization completed.
    -- Stationary point found.
 Normal termination of Gaussian 16 at Sat May 24 00:52:59 2025.

 ---------------------------------------------------------------------
 #P Geom=AllCheck Guess=TCheck SCRF=Check GenChk UM062X/def2TZVPP Freq
 ---------------------------------------------------------------------

 Structure from the checkpoint file:  "/tmp/Gau-269846.chk"
 ------------------------------
 Gaussian input prepared by ASE
 ------------------------------
 Charge =  0 Multiplicity = 2

                          Input orientation:
 ---------------------------------------------------------------------
 Center     Atomic      Atomic             Coordinates (Angstroms)
 Number     Number       Type             X           Y           Z
 ---------------------------------------------------------------------
      1          6           0        1.546349   -0.012508   -0.037905
      2          8           0        2.164079   -1.003679   -0.255251
      3          6           0        0.002294    0.037689    0.024649
      4          6           0       -0.610303    0.791141   -1.140811
      5          9           0       -0.486878    2.095604   -1.091445
      6          9           0       -0.261158    0.314552   -2.316988
      7          9           0       -0.460470   -1.214522    0.004756
      8          9           0       -0.380789    0.637989    1.163915
      9          8           0        2.048358    1.207342    0.144474
     10          1           0        3.011720    1.154338    0.076335
 ---------------------------------------------------------------------

 SCF Done:  E(UM062X) =  -664.732531299     A.U. after    1 cycles

 Isotropic polarizability for W=    0.000000       43.18 Bohr**3.
 End of Minotr F.D. properties file   721 does not exist.

                      1                      2                      3
                      A                      A                      A
 Frequencies --     23.3342                68.1409               135.9198
 Red. masses --     13.1128                17.4122                10.3727
 Frc consts  --      0.0042                 0.0476                 0.1129
 IR Inten    --      1.3528                 0.1977                 0.7563

                      4                      5                      6
                      A                      A                      A
 Frequencies --    208.5566               246.8769               353.7992
 Red. masses --     17.2641                11.7299                14.0824
 Frc consts  --      0.4424                 0.4212                 1.0386
 IR Inten    --      1.4977                 0.9261                 0.5921

                      7                      8                      9
                      A                      A                      A
 Frequencies --    369.9383               413.8281               480.7986
 Red. masses --     14.5498                12.1936                 4.3586
 Frc consts  --      1.1732                 1.2303                 0.5936
 IR Inten    --      0.4829                 2.1064                 9.7873

                     10                     11                     12
                      A                      A                      A
 Frequencies --    559.0829               584.8740               622.0419
 Red. masses --      4.5672                 2.8871                 3.6570
 Frc consts  --      0.8411                 0.5819                 0.8337
 IR Inten    --     25.0196                56.0296                71.6574

                     13                     14                     15
                      A                      A                      A
 Frequencies --    655.5036               762.5197               816.9679
 Red. masses --      6.4542                 5.5936                10.6899
 Frc consts  --      1.6340                 1.9162                 4.2037
 IR Inten    --     29.3814                18.7030                16.4893

                     16                     17                     18
                      A                      A                      A
 Frequencies --   1073.6857              1182.7809              1222.4036
 Red. masses --     11.7649                 3.0325                 4.5382
 Frc consts  --      7.9909                 2.4995                 3.9954
 IR Inten    --     62.7474               296.6300               177.6327

                     19                     20                     21
                      A                      A                      A
 Frequencies --   1273.7060              1333.0397              1380.2870
 Red. masses --      8.8316                13.3365                 5.0502
 Frc consts  --      8.4416                13.9630                 5.6688
 IR Inten    --     85.5714               236.3540                39.0311

                     22                     23                     24
                      A                      A                      A
 Frequencies --   1421.7201              1916.4426              3810.9508
 Red. masses --      5.9808                11.7136                 1.0647
 Frc consts  --      7.1226                25.3472                 9.1102
 IR Inten    --     62.7434               349.9139               126.1437

 - Thermochemistry -
 -------------------
 Temperature   298.150 Kelvin.  Pressure   1.00000 Atm.
 Atom     1 has atomic number  6 and mass  12.00000

 Molecular mass:   144.99127 amu.
 Principal axes and moments of inertia in atomic units:
                           1         2         3
     Eigenvalues --   894.232891222.335501279.59340
           X            0.71738   0.60689  -0.34212
           Y           -0.48733   0.78807   0.37610
           Z            0.49787  -0.10308   0.86111
 This molecule is an asymmetric top.
 Rotational symmetry number  1.
 Warning -- assumption of classical behavior for rotation
           may cause significant error
 Rotational temperatures (Kelvin)      0.09686     0.07086     0.06769
 Rotational constants (GHZ):           2.01820     1.47647     1.41040
 Zero-point vibrational energy     125112.6 (Joules/Mol)
                                   29.90264 (Kcal/Mol)
 Warning -- explicit consideration of  11 degrees of freedom as
           vibrations may cause significant error
 Vibrational temperatures:     33.57    98.04   195.56   300.07   355.20
          (Kelvin)            509.04   532.26   595.41   691.76   804.40
                              841.50   894.98   943.12  1097.10  1175.43
                             1544.79  1701.76  1758.77  1832.58  1917.95
                             1985.93  2045.54  2757.33  5483.11

 Zero-point correction=                           0.047653 (Hartree/Particle)
 Thermal correction to Energy=                    0.056008
 Thermal correction to Enthalpy=                  0.056952
 Thermal correction to Gibbs Free Energy=         0.012081
 Sum of electronic and zero-point Energies=           -664.684878
 Sum of electronic and thermal Energies=              -664.676523
 Sum of electronic and thermal Enthalpies=            -664.675579
 Sum of electronic and thermal Free Energies=         -664.720451

                     E (Thermal)             CV                S
                      KCal/Mol        Cal/Mol-Kelvin    Cal/Mol-Kelvin
 Total                   35.146             27.919             94.440
 Electronic               0.000              0.000              1.377
 Translational            0.889              2.981             40.825
 Rotational               0.889              2.981             28.727
 Vibrational             33.368             21.958             23.511
 Vibration     1          0.593              1.985              6.328
 Vibration     2          0.598              1.969              4.206
 Vibration     3          0.614              1.917              2.861
 Vibration     4          0.642              1.828              2.056
 Vibration     5          0.661              1.768              1.753
 Vibration     6          0.730              1.567              1.149
 Vibration     7          0.742              1.534              1.080
 Vibration     8          0.777              1.440              0.913
 Vibration     9          0.837              1.293              0.708
 Vibration    10          0.915              1.120              0.526
 Vibration    11          0.942              1.064              0.476

 Optimization completed.
    -- Stationary point found.
 Normal termination of Gaussian 16 at Sat May 24 00:56:59 2025.
