 Gaussian 16, Revision C.01,
 Gaussian 16:  ES64L-G16RevC.01  3-Jul-2019

 -----------------------------------------------------------------
 #P M062X/Def2TZVPP Symm(None) scf(xqc) pop(None) freq opt(CalcFC)
 -----------------------------------------------------------------

 ------------------------------
 Gaussian input prepared by ASE
 ------------------------------
 Symbolic Z-matrix:
 Charge =  0 Multiplicity = 2

 SCF Done:  E(UM062X) =  -664.756211014     A.U. after   17 cycles
 SCF Done:  E(UM062X) =  -664.756211073     A.U. after    8 cycles
 Optimization completed.
    -- Stationary point found.
 Normal termination of Gaussian 16 at Sat May 24 00:45:03 2025.

 ---------------------------------------------------------------------
 #P Geom=AllCheck Guess=TCheck SCRF=Check GenChk UM062X/def2TZVPP Freq
 ---------------------------------------------------------------------

 Structure from the checkpoint file:  "/tmp/Gau-268055.chk"
 ------------------------------
 Gaussian input prepared by ASE
 ------------------------------
 Charge =  0 Multiplicity = 2

                          Input orientation:
 ---------------------------------------------------------------------
 Center     Atomic      Atomic             Coordinates (Angstroms)
 Number     Number       Type             X           Y           Z
 ---------------------------------------------------------------------
      1          6           0        1.457189   -0.000034   -0.000078
      2          8           0        2.118125   -1.000943   -0.000430
      3          6           0       -0.000007    0.000098   -0.000147
      4          6           0       -0.889672    1.217415    0.000264
      5          9           0       -2.163447    0.845296    0.000101
      6          9           0       -0.674065    1.974256    1.075826
      7          9           0       -0.674014    1.975019   -1.074752
      8          9           0       -0.600668   -1.156554   -0.000638
      9          8           0        1.943841    1.249579    0.000424
     10          1           0        2.908095    1.190661    0.000453
 ---------------------------------------------------------------------

 SCF Done:  E(UM062X) =  -664.756211072     A.U. after    1 cycles

 Isotropic polarizability for W=    0.000000       43.46 Bohr**3.
 End of Minotr F.D. properties file   721 does not exist.

                      1                      2                      3
                      A                      A                      A
 Frequencies --     36.5577                72.3506               154.9332
 Red. masses --     14.8912                16.0502                10.8516
 Frc consts  --      0.0117                 0.0495                 0.1535
 IR Inten    --      0.6948                 1.6851                 1.9916

                      4                      5                      6
                      A                      A                      A
 Frequencies --    174.0385               292.2356               372.0623
 Red. masses --     12.4207                15.4746                14.9612
 Frc consts  --      0.2217                 0.7786                 1.2202
 IR Inten    --      0.2955                 0.6047                 1.1626

                      7                      8                      9
                      A                      A                      A
 Frequencies --    376.6242               398.2776               503.1714
 Red. masses --     15.5670                 8.6594                10.3709
 Frc consts  --      1.3010                 0.8093                 1.5470
 IR Inten    --      0.0136                 0.8271                14.2719

                     10                     11                     12
                      A                      A                      A
 Frequencies --    522.9329               580.0502               611.3860
 Red. masses --      1.3079                 7.7050                12.7052
 Frc consts  --      0.2107                 1.5274                 2.7981
 IR Inten    --     90.7676                 5.1437                 3.9929

                     13                     14                     15
                      A                      A                      A
 Frequencies --    689.9955               730.3628               788.8005
 Red. masses --      6.1781                 8.3457                 9.7180
 Frc consts  --      1.7330                 2.6230                 3.5625
 IR Inten    --     63.1263                38.5378                13.8845

                     16                     17                     18
                      A                      A                      A
 Frequencies --   1084.3321              1168.5250              1222.9594
 Red. masses --     10.4327                 2.3911                13.2500
 Frc consts  --      7.2272                 1.9236                11.6759
 IR Inten    --     99.2149               230.4549               288.9234

                     19                     20                     21
                      A                      A                      A
 Frequencies --   1261.2637              1310.3709              1414.6800
 Red. masses --     12.0149                 4.2759                 4.8158
 Frc consts  --     11.2611                 4.3258                 5.6785
 IR Inten    --    325.8121                98.4016               242.6726

                     22                     23                     24
                      A                      A                      A
 Frequencies --   1520.2547              1824.8042              3827.4021
 Red. masses --     10.8542                11.0949                 1.0648
 Frc consts  --     14.7802                21.7673                 9.1901
 IR Inten    --      5.6005               343.6517               143.4801

 - Thermochemistry -
 -------------------
 Temperature   298.150 Kelvin.  Pressure   1.00000 Atm.
 Atom     1 has atomic number  6 and mass  12.00000

 Molecular mass:   144.99127 amu.
 Principal axes and moments of inertia in atomic units:
                           1         2         3
     Eigenvalues --   700.052231333.215681719.48780
           X            0.87761   0.47938  -0.00005
           Y           -0.47938   0.87761  -0.00039
           Z           -0.00014   0.00036   1.00000
 This molecule is an asymmetric top.
 Rotational symmetry number  1.
 Warning -- assumption of classical behavior for rotation
           may cause significant error
 Rotational temperatures (Kelvin)      0.12372     0.06497     0.05037
 Rotational constants (GHZ):           2.57801     1.35368     1.04958
 Zero-point vibrational energy     125239.3 (Joules/Mol)
                                   29.93290 (Kcal/Mol)
 Warning -- explicit consideration of  12 degrees of freedom as
           vibrations may cause significant error
 Vibrational temperatures:     52.60   104.10   222.91   250.40   420.46
          (Kelvin)            535.31   541.88   573.03   723.95   752.38
                              834.56   879.65   992.75  1050.83  1134.91
                             1560.11  1681.25  1759.57  1814.68  1885.33
                             2035.41  2187.31  2625.49  5506.78

 Zero-point correction=                           0.047701 (Hartree/Particle)
 Thermal correction to Energy=                    0.055986
 Thermal correction to Enthalpy=                  0.056930
 Thermal correction to Gibbs Free Energy=         0.012570
 Sum of electronic and zero-point Energies=           -664.708510
 Sum of electronic and thermal Energies=              -664.700225
 Sum of electronic and thermal Enthalpies=            -664.699281
 Sum of electronic and thermal Free Energies=         -664.743641

                     E (Thermal)             CV                S
                      KCal/Mol        Cal/Mol-Kelvin    Cal/Mol-Kelvin
 Total                   35.132             27.923             93.364
 Electronic               0.000              0.000              1.377
 Translational            0.889              2.981             40.825
 Rotational               0.889              2.981             28.864
 Vibrational             33.354             21.962             22.298
 Vibration     1          0.594              1.982              5.437
 Vibration     2          0.598              1.967              4.088
 Vibration     3          0.620              1.897              2.611
 Vibration     4          0.627              1.874              2.391
 Vibration     5          0.688              1.688              1.461
 Vibration     6          0.744              1.530              1.071
 Vibration     7          0.747              1.520              1.053
 Vibration     8          0.765              1.474              0.969
 Vibration     9          0.858              1.243              0.650
 Vibration    10          0.878              1.199              0.603
 Vibration    11          0.937              1.074              0.485
 Vibration    12          0.971              1.008              0.430

 Optimization completed.
    -- Stationary point found.
 Normal termination of Gaussian 16 at Sat May 24 00:48:51 2025.
