 Gaussian 16, Revision C.01,
 Gaussian 16:  ES64L-G16RevC.01  3-Jul-2019

 -----------------------------------------------------------------
 #P M062X/Def2TZVPP Symm(None) scf(xqc) pop(None) freq opt(CalcFC)
 -----------------------------------------------------------------

 ------------------------------
 Gaussian input prepared by ASE
 ------------------------------
 Symbolic Z-matrix:
 Charge =  0 Multiplicity = 2

 SCF Done:  E(UM062X) =  -664.716409222     A.U. after   16 cycles
 SCF Done:  E(UM062X) =  -664.726470056     A.U. after   14 cycles
 SCF Done:  E(UM062X) =  -664.727705289     A.U. after   13 cycles
 SCF Done:  E(UM062X) =  -664.727902440     A.U. after   12 cycles
 SCF Done:  E(UM062X) =  -664.728042016     A.U. after   13 cycles
 SCF Done:  E(UM062X) =  -664.728183928     A.U. after   15 cycles
 SCF Done:  E(UM062X) =  -664.725787000     A.U. after   15 cycles
 SCF Done:  E(UM062X) =  -664.728354643     A.U. after   13 cycles
 SCF Done:  E(UM062X) =  -664.728466157     A.U. after   13 cycles
 SCF Done:  E(UM062X) =  -664.728774928     A.U. after   16 cycles
 SCF Done:  E(UM062X) =  -664.728988827     A.U. after   15 cycles
 SCF Done:  E(UM062X) =  -664.728989618     A.U. after   15 cycles
 SCF Done:  E(UM062X) =  -664.729044435     A.U. after   13 cycles
 SCF Done:  E(UM062X) =  -664.729047715     A.U. after   12 cycles
 SCF Done:  E(UM062X) =  -664.729049837     A.U. after   12 cycles
 SCF Done:  E(UM062X) =  -664.729052316     A.U. after   11 cycles
 SCF Done:  E(UM062X) =  -664.729053105     A.U. after   12 cycles
 SCF Done:  E(UM062X) =  -664.729053440     A.U. after   11 cycles
 SCF Done:  E(UM062X) =  -664.729053452     A.U. after    8 cycles
 Optimization completed.
    -- Stationary point found.
 Normal termination of Gaussian 16 at Sat May 24 00:59:20 2025.

 ---------------------------------------------------------------------
 #P Geom=AllCheck Guess=TCheck SCRF=Check GenChk UM062X/def2TZVPP Freq
 ---------------------------------------------------------------------

 Structure from the checkpoint file:  "/tmp/Gau-83754.chk"
 ------------------------------
 Gaussian input prepared by ASE
 ------------------------------
 Charge =  0 Multiplicity = 2

                          Input orientation:
 ---------------------------------------------------------------------
 Center     Atomic      Atomic             Coordinates (Angstroms)
 Number     Number       Type             X           Y           Z
 ---------------------------------------------------------------------
      1          6           0        1.569337    0.081259   -0.160393
      2          8           0        2.221175   -0.511906   -0.954125
      3          6           0        0.020032    0.064275   -0.257776
      4          6           0       -0.555314   -1.306253    0.026787
      5          9           0       -0.362064   -2.196430   -0.909822
      6          9           0       -0.229475   -1.764824    1.218995
      7          9           0       -0.504917    0.926914    0.650383
      8          9           0       -0.349213    0.448475   -1.480611
      9          8           0        2.072955    0.753544    0.869587
     10          1           0        1.376462    1.192345    1.373270
 ---------------------------------------------------------------------

 SCF Done:  E(UM062X) =  -664.729053452     A.U. after    1 cycles

 Isotropic polarizability for W=    0.000000       42.96 Bohr**3.
 End of Minotr F.D. properties file   721 does not exist.

                      1                      2                      3
                      A                      A                      A
 Frequencies --     22.7985                65.6002               136.4941
 Red. masses --      9.3963                16.5627                16.8142
 Frc consts  --      0.0029                 0.0420                 0.1846
 IR Inten    --      3.7455                 0.2848                 2.6665

                      4                      5                      6
                      A                      A                      A
 Frequencies --    206.8057               269.4242               358.5279
 Red. masses --     17.1338                13.4763                14.0630
 Frc consts  --      0.4317                 0.5764                 1.0651
 IR Inten    --      3.5740                 7.7789                 3.1004

                      7                      8                      9
                      A                      A                      A
 Frequencies --    372.0872               426.1855               494.9773
 Red. masses --     10.4415                14.0820                 5.0488
 Frc consts  --      0.8517                 1.5070                 0.7288
 IR Inten    --     10.7126                 1.0078                53.1549

                     10                     11                     12
                      A                      A                      A
 Frequencies --    550.7073               564.8970               600.4134
 Red. masses --      1.4149                 9.4425                 8.1594
 Frc consts  --      0.2528                 1.7753                 1.7330
 IR Inten    --     52.6655                25.2784                 3.0349

                     13                     14                     15
                      A                      A                      A
 Frequencies --    665.5470               777.7313               805.9066
 Red. masses --     13.7468                 9.9005                11.3239
 Frc consts  --      3.5876                 3.5283                 4.3333
 IR Inten    --      6.9889                13.6292                 4.7335

                     16                     17                     18
                      A                      A                      A
 Frequencies --   1071.8417              1169.5017              1240.0750
 Red. masses --     12.8415                 5.6416                 1.9461
 Frc consts  --      8.6921                 4.5462                 1.7633
 IR Inten    --     79.7934               122.4379                42.9660

                     19                     20                     21
                      A                      A                      A
 Frequencies --   1257.7357              1334.3700              1381.3563
 Red. masses --     10.0741                 9.9778                 4.3708
 Frc consts  --      9.3893                10.4674                 4.9138
 IR Inten    --    282.9193               128.5275               444.1657

                     22                     23                     24
                      A                      A                      A
 Frequencies --   1408.9168              1933.2724              3837.2896
 Red. masses --      9.6245                11.4693                 1.0656
 Frc consts  --     11.2564                25.2565                 9.2446
 IR Inten    --      6.2116               298.3310               141.4410

 - Thermochemistry -
 -------------------
 Temperature   298.150 Kelvin.  Pressure   1.00000 Atm.
 Atom     1 has atomic number  6 and mass  12.00000

 Molecular mass:   144.99127 amu.
 Principal axes and moments of inertia in atomic units:
                           1         2         3
     Eigenvalues --   881.991731249.029171279.55770
           X            0.66581   0.68584   0.29381
           Y            0.74121  -0.56285  -0.36580
           Z            0.08551  -0.46132   0.88310
 This molecule is an asymmetric top.
 Rotational symmetry number  1.
 Warning -- assumption of classical behavior for rotation
           may cause significant error
 Rotational temperatures (Kelvin)      0.09820     0.06934     0.06769
 Rotational constants (GHZ):           2.04621     1.44492     1.41044
 Zero-point vibrational energy     125323.6 (Joules/Mol)
                                   29.95305 (Kcal/Mol)
 Warning -- explicit consideration of  12 degrees of freedom as
           vibrations may cause significant error
 Vibrational temperatures:     32.80    94.38   196.38   297.55   387.64
          (Kelvin)            515.84   535.35   613.19   712.16   792.34
                              812.76   863.86   957.57  1118.98  1159.52
                             1542.14  1682.65  1784.19  1809.60  1919.86
                             1987.46  2027.12  2781.55  5521.00

 Zero-point correction=                           0.047733 (Hartree/Particle)
 Thermal correction to Energy=                    0.056059
 Thermal correction to Enthalpy=                  0.057003
 Thermal correction to Gibbs Free Energy=         0.012156
 Sum of electronic and zero-point Energies=           -664.681320
 Sum of electronic and thermal Energies=              -664.672994
 Sum of electronic and thermal Enthalpies=            -664.672050
 Sum of electronic and thermal Free Energies=         -664.716898

                     E (Thermal)             CV                S
                      KCal/Mol        Cal/Mol-Kelvin    Cal/Mol-Kelvin
 Total                   35.178             27.901             94.389
 Electronic               0.000              0.000              1.377
 Translational            0.889              2.981             40.825
 Rotational               0.889              2.981             28.735
 Vibrational             33.400             21.940             23.452
 Vibration     1          0.593              1.985              6.374
 Vibration     2          0.597              1.971              4.281
 Vibration     3          0.614              1.917              2.852
 Vibration     4          0.641              1.830              2.072
 Vibration     5          0.674              1.729              1.600
 Vibration     6          0.733              1.558              1.128
 Vibration     7          0.744              1.529              1.071
 Vibration     8          0.788              1.413              0.871
 Vibration     9          0.851              1.261              0.671
 Vibration    10          0.906              1.138              0.543
 Vibration    11          0.921              1.107              0.514
 Vibration    12          0.959              1.031              0.449

 Optimization completed.
    -- Stationary point found.
 Normal termination of Gaussian 16 at Sat May 24 01:03:28 2025.
