 Gaussian 16, Revision C.01,
 Gaussian 16:  ES64L-G16RevC.01  3-Jul-2019

 -----------------------------------------------------------------
 #P M062X/Def2TZVPP Symm(None) scf(xqc) pop(None) freq opt(CalcFC)
 -----------------------------------------------------------------

 ------------------------------
 Gaussian input prepared by ASE
 ------------------------------
 Symbolic Z-matrix:
 Charge =  0 Multiplicity = 2

 SCF Done:  E(UM062X) =  -664.740843899     A.U. after   17 cycles
 SCF Done:  E(UM062X) =  -664.747444444     A.U. after   17 cycles
 SCF Done:  E(UM062X) =  -664.748077044     A.U. after   15 cycles
 SCF Done:  E(UM062X) =  -664.748360126     A.U. after   15 cycles
 SCF Done:  E(UM062X) =  -664.748600837     A.U. after   13 cycles
 SCF Done:  E(UM062X) =  -664.748744039     A.U. after   13 cycles
 SCF Done:  E(UM062X) =  -664.748865224     A.U. after   14 cycles
 SCF Done:  E(UM062X) =  -664.748917704     A.U. after   13 cycles
 SCF Done:  E(UM062X) =  -664.748953217     A.U. after   13 cycles
 SCF Done:  E(UM062X) =  -664.748960152     A.U. after   13 cycles
 SCF Done:  E(UM062X) =  -664.748984847     A.U. after   13 cycles
 SCF Done:  E(UM062X) =  -664.748985316     A.U. after   10 cycles
 SCF Done:  E(UM062X) =  -664.748985692     A.U. after   11 cycles
 SCF Done:  E(UM062X) =  -664.748986072     A.U. after   13 cycles
 SCF Done:  E(UM062X) =  -664.748986176     A.U. after   10 cycles
 SCF Done:  E(UM062X) =  -664.748986249     A.U. after   10 cycles
 SCF Done:  E(UM062X) =  -664.748986303     A.U. after    9 cycles
 SCF Done:  E(UM062X) =  -664.748986322     A.U. after    9 cycles
 SCF Done:  E(UM062X) =  -664.748986334     A.U. after   10 cycles
 Optimization completed.
    -- Stationary point found.
 Normal termination of Gaussian 16 at Sat May 24 00:59:02 2025.

 ---------------------------------------------------------------------
 #P Geom=AllCheck Guess=TCheck SCRF=Check GenChk UM062X/def2TZVPP Freq
 ---------------------------------------------------------------------

 Structure from the checkpoint file:  "/tmp/Gau-273953.chk"
 ------------------------------
 Gaussian input prepared by ASE
 ------------------------------
 Charge =  0 Multiplicity = 2

                          Input orientation:
 ---------------------------------------------------------------------
 Center     Atomic      Atomic             Coordinates (Angstroms)
 Number     Number       Type             X           Y           Z
 ---------------------------------------------------------------------
      1          6           0        1.483248   -0.037420   -0.195234
      2          8           0        2.058919   -1.066860   -0.003520
      3          6           0        0.065783    0.086914    0.184746
      4          6           0       -0.909120    1.220564    0.054035
      5          9           0       -1.927834    0.889763   -0.733139
      6          9           0       -1.406654    1.562567    1.237461
      7          9           0       -0.322176    2.308035   -0.473129
      8          9           0       -0.483197   -0.970953    0.719969
      9          8           0        2.083822    1.022750   -0.749301
     10          1           0        1.496307    1.780356   -0.836567
 ---------------------------------------------------------------------

 SCF Done:  E(UM062X) =  -664.748986334     A.U. after    1 cycles

 Isotropic polarizability for W=    0.000000       43.51 Bohr**3.
 End of Minotr F.D. properties file   721 does not exist.

                      1                      2                      3
                      A                      A                      A
 Frequencies --      6.9877                63.1189               180.9415
 Red. masses --     17.5351                 8.8661                15.2434
 Frc consts  --      0.0005                 0.0208                 0.2940
 IR Inten    --      1.1740                 8.0827                 1.0866

                      4                      5                      6
                      A                      A                      A
 Frequencies --    221.2970               276.0845               372.1042
 Red. masses --     12.3320                13.8769                14.7451
 Frc consts  --      0.3558                 0.6232                 1.2029
 IR Inten    --     11.1111                 1.5040                 3.1217

                      7                      8                      9
                      A                      A                      A
 Frequencies --    381.0028               424.0988               448.9915
 Red. masses --     13.4253                 4.8900                 1.3925
 Frc consts  --      1.1482                 0.5182                 0.1654
 IR Inten    --      2.9317                32.7598                69.4147

                     10                     11                     12
                      A                      A                      A
 Frequencies --    518.1409               572.9847               613.6170
 Red. masses --      9.8525                12.2820                13.1464
 Frc consts  --      1.5584                 2.3758                 2.9164
 IR Inten    --      1.0917                 4.9992                 1.5123

                     13                     14                     15
                      A                      A                      A
 Frequencies --    704.6442               707.2105               790.6458
 Red. masses --      9.0813                12.2697                13.1990
 Frc consts  --      2.6567                 3.6156                 4.8613
 IR Inten    --      6.3920                46.6266                 0.5534

                     16                     17                     18
                      A                      A                      A
 Frequencies --   1079.4838              1174.2063              1232.3536
 Red. masses --     13.1968                 2.7547                13.1208
 Frc consts  --      9.0605                 2.2378                11.7403
 IR Inten    --    100.4625                34.8448               299.3549

                     19                     20                     21
                      A                      A                      A
 Frequencies --   1256.9700              1310.7124              1379.0105
 Red. masses --      6.5617                 2.5655                 6.0701
 Frc consts  --      6.1083                 2.5968                 6.8011
 IR Inten    --    334.1427               267.3079               345.4002

                     22                     23                     24
                      A                      A                      A
 Frequencies --   1490.7959              1834.8755              3873.6998
 Red. masses --     11.0472                10.8512                 1.0655
 Frc consts  --     14.4657                21.5249                 9.4197
 IR Inten    --     12.5514               280.8490               176.2355

 - Thermochemistry -
 -------------------
 Temperature   298.150 Kelvin.  Pressure   1.00000 Atm.
 Atom     1 has atomic number  6 and mass  12.00000

 Molecular mass:   144.99127 amu.
 Principal axes and moments of inertia in atomic units:
                           1         2         3
     Eigenvalues --   692.264361382.587291762.23986
           X            0.87463   0.40514   0.26625
           Y           -0.47718   0.81642   0.32521
           Z           -0.08562  -0.41149   0.90739
 This molecule is an asymmetric top.
 Rotational symmetry number  1.
 Warning -- assumption of classical behavior for rotation
           may cause significant error
 Rotational temperatures (Kelvin)      0.12512     0.06265     0.04915
 Rotational constants (GHZ):           2.60701     1.30534     1.02412
 Zero-point vibrational energy     125093.4 (Joules/Mol)
                                   29.89803 (Kcal/Mol)
 Warning -- explicit consideration of  12 degrees of freedom as
           vibrations may cause significant error
 Vibrational temperatures:     10.05    90.81   260.33   318.40   397.22
          (Kelvin)            535.37   548.18   610.18   646.00   745.49
                              824.40   882.86  1013.83  1017.52  1137.56
                             1553.14  1689.42  1773.08  1808.50  1885.82
                             1984.09  2144.92  2639.98  5573.39

 Zero-point correction=                           0.047646 (Hartree/Particle)
 Thermal correction to Energy=                    0.055941
 Thermal correction to Enthalpy=                  0.056885
 Thermal correction to Gibbs Free Energy=         0.011082
 Sum of electronic and zero-point Energies=           -664.701341
 Sum of electronic and thermal Energies=              -664.693045
 Sum of electronic and thermal Enthalpies=            -664.692101
 Sum of electronic and thermal Free Energies=         -664.737904

                     E (Thermal)             CV                S
                      KCal/Mol        Cal/Mol-Kelvin    Cal/Mol-Kelvin
 Total                   35.104             27.970             96.401
 Electronic               0.000              0.000              1.377
 Translational            0.889              2.981             40.825
 Rotational               0.889              2.981             28.913
 Vibrational             33.326             22.008             25.285
 Vibration     1          0.593              1.987              8.723
 Vibration     2          0.597              1.972              4.357
 Vibration     3          0.630              1.866              2.319
 Vibration     4          0.648              1.809              1.948
 Vibration     5          0.678              1.718              1.558
 Vibration     6          0.744              1.529              1.071
 Vibration     7          0.751              1.511              1.035
 Vibration     8          0.786              1.418              0.878
 Vibration     9          0.808              1.363              0.799
 Vibration    10          0.873              1.210              0.614
 Vibration    11          0.929              1.090              0.499
 Vibration    12          0.973              1.003              0.427

 Optimization completed.
    -- Stationary point found.
 Normal termination of Gaussian 16 at Sat May 24 01:02:52 2025.
