 Gaussian 16, Revision C.01,
 Gaussian 16:  ES64L-G16RevC.01  3-Jul-2019

 -----------------------------------------------------------------
 #P M062X/Def2TZVPP Symm(None) scf(xqc) pop(None) freq opt(CalcFC)
 -----------------------------------------------------------------

 ------------------------------
 Gaussian input prepared by ASE
 ------------------------------
 Symbolic Z-matrix:
 Charge =  0 Multiplicity = 2

 SCF Done:  E(UM062X) =  -664.717379314     A.U. after   16 cycles
 SCF Done:  E(UM062X) =  -664.727108089     A.U. after   14 cycles
 SCF Done:  E(UM062X) =  -664.728175030     A.U. after   13 cycles
 SCF Done:  E(UM062X) =  -664.728501587     A.U. after   13 cycles
 SCF Done:  E(UM062X) =  -664.728763415     A.U. after   15 cycles
 SCF Done:  E(UM062X) =  -664.728949786     A.U. after   16 cycles
 SCF Done:  E(UM062X) =  -664.728964016     A.U. after   12 cycles
 SCF Done:  E(UM062X) =  -664.728994489     A.U. after   15 cycles
 SCF Done:  E(UM062X) =  -664.729038565     A.U. after   11 cycles
 SCF Done:  E(UM062X) =  -664.729041740     A.U. after   14 cycles
 SCF Done:  E(UM062X) =  -664.729057751     A.U. after   12 cycles
 SCF Done:  E(UM062X) =  -664.729057507     A.U. after   11 cycles
 SCF Done:  E(UM062X) =  -664.729058791     A.U. after   11 cycles
 SCF Done:  E(UM062X) =  -664.729059011     A.U. after    8 cycles
 Optimization completed.
    -- Stationary point found.
 Normal termination of Gaussian 16 at Sat May 24 00:54:36 2025.

 ---------------------------------------------------------------------
 #P Geom=AllCheck Guess=TCheck SCRF=Check GenChk UM062X/def2TZVPP Freq
 ---------------------------------------------------------------------

 Structure from the checkpoint file:  "/tmp/Gau-124966.chk"
 ------------------------------
 Gaussian input prepared by ASE
 ------------------------------
 Charge =  0 Multiplicity = 2

                          Input orientation:
 ---------------------------------------------------------------------
 Center     Atomic      Atomic             Coordinates (Angstroms)
 Number     Number       Type             X           Y           Z
 ---------------------------------------------------------------------
      1          6           0        1.558143    0.047178    0.178785
      2          8           0        2.161032   -0.646301    0.928716
      3          6           0        0.005777    0.025248    0.176350
      4          6           0       -0.546213   -1.295639   -0.314569
      5          9           0       -0.142033   -1.603425   -1.531009
      6          9           0       -0.412461   -2.297097    0.513802
      7          9           0       -0.440398    0.253336    1.412547
      8          9           0       -0.464115    0.998413   -0.646249
      9          8           0        2.122887    0.844258   -0.722371
     10          1           0        1.457624    1.346455   -1.208722
 ---------------------------------------------------------------------

 SCF Done:  E(UM062X) =  -664.729059011     A.U. after    1 cycles

 Isotropic polarizability for W=    0.000000       42.94 Bohr**3.
 End of Minotr F.D. properties file   721 does not exist.

                      1                      2                      3
                      A                      A                      A
 Frequencies --     22.5475                67.3493               137.8319
 Red. masses --      9.4917                16.4930                16.8075
 Frc consts  --      0.0028                 0.0441                 0.1881
 IR Inten    --      3.6157                 0.2771                 2.6463

                      4                      5                      6
                      A                      A                      A
 Frequencies --    208.1345               270.0410               359.0223
 Red. masses --     17.1109                13.5855                14.2831
 Frc consts  --      0.4367                 0.5837                 1.0847
 IR Inten    --      3.6402                 7.6336                 2.8243

                      7                      8                      9
                      A                      A                      A
 Frequencies --    372.5672               426.2493               496.5251
 Red. masses --     10.4005                14.1052                 5.8574
 Frc consts  --      0.8506                 1.5099                 0.8508
 IR Inten    --     10.5457                 0.9956                48.0154

                     10                     11                     12
                      A                      A                      A
 Frequencies --    556.4105               565.7041               601.6528
 Red. masses --      1.5666                 5.3134                 7.2983
 Frc consts  --      0.2858                 1.0018                 1.5566
 IR Inten    --     44.4319                38.9570                 3.0730

                     13                     14                     15
                      A                      A                      A
 Frequencies --    665.6234               778.2222               805.8670
 Red. masses --     13.7993                 9.9586                11.2781
 Frc consts  --      3.6022                 3.5535                 4.3153
 IR Inten    --      7.0256                13.4979                 4.6987

                     16                     17                     18
                      A                      A                      A
 Frequencies --   1071.8485              1170.1425              1241.9791
 Red. masses --     12.8387                 5.8214                 1.9720
 Frc consts  --      8.6904                 4.6963                 1.7922
 IR Inten    --     79.6286               123.1710                38.8357

                     19                     20                     21
                      A                      A                      A
 Frequencies --   1257.6501              1334.7747              1382.1227
 Red. masses --      9.4759                 9.9323                 4.2891
 Frc consts  --      8.8306                10.4259                 4.8274
 IR Inten    --    284.4819               128.3843               445.6734

                     22                     23                     24
                      A                      A                      A
 Frequencies --   1409.3082              1933.1456              3832.9101
 Red. masses --      9.3867                11.4526                 1.0656
 Frc consts  --     10.9844                25.2165                 9.2233
 IR Inten    --      7.2024               297.9184               141.5835

 - Thermochemistry -
 -------------------
 Temperature   298.150 Kelvin.  Pressure   1.00000 Atm.
 Atom     1 has atomic number  6 and mass  12.00000

 Molecular mass:   144.99127 amu.
 Principal axes and moments of inertia in atomic units:
                           1         2         3
     Eigenvalues --   881.508161249.517021279.92257
           X            0.66709   0.66273  -0.34026
           Y            0.74333  -0.62242   0.24504
           Z            0.04938   0.41639   0.90784
 This molecule is an asymmetric top.
 Rotational symmetry number  1.
 Warning -- assumption of classical behavior for rotation
           may cause significant error
 Rotational temperatures (Kelvin)      0.09826     0.06932     0.06767
 Rotational constants (GHZ):           2.04733     1.44435     1.41004
 Zero-point vibrational energy     125414.3 (Joules/Mol)
                                   29.97473 (Kcal/Mol)
 Warning -- explicit consideration of  12 degrees of freedom as
           vibrations may cause significant error
 Vibrational temperatures:     32.44    96.90   198.31   299.46   388.53
          (Kelvin)            516.55   536.04   613.28   714.39   800.55
                              813.92   865.64   957.68  1119.69  1159.46
                             1542.15  1683.57  1786.93  1809.48  1920.44
                             1988.57  2027.68  2781.37  5514.70

 Zero-point correction=                           0.047768 (Hartree/Particle)
 Thermal correction to Energy=                    0.056078
 Thermal correction to Enthalpy=                  0.057022
 Thermal correction to Gibbs Free Energy=         0.012217
 Sum of electronic and zero-point Energies=           -664.681291
 Sum of electronic and thermal Energies=              -664.672981
 Sum of electronic and thermal Enthalpies=            -664.672037
 Sum of electronic and thermal Free Energies=         -664.716842

                     E (Thermal)             CV                S
                      KCal/Mol        Cal/Mol-Kelvin    Cal/Mol-Kelvin
 Total                   35.189             27.871             94.301
 Electronic               0.000              0.000              1.377
 Translational            0.889              2.981             40.825
 Rotational               0.889              2.981             28.735
 Vibrational             33.412             21.909             23.363
 Vibration     1          0.593              1.985              6.396
 Vibration     2          0.598              1.970              4.229
 Vibration     3          0.614              1.916              2.834
 Vibration     4          0.641              1.828              2.060
 Vibration     5          0.674              1.728              1.596
 Vibration     6          0.734              1.557              1.126
 Vibration     7          0.744              1.528              1.069
 Vibration     8          0.788              1.413              0.871
 Vibration     9          0.852              1.258              0.667
 Vibration    10          0.912              1.126              0.531
 Vibration    11          0.922              1.105              0.513
 Vibration    12          0.960              1.028              0.447

 Optimization completed.
    -- Stationary point found.
 Normal termination of Gaussian 16 at Sat May 24 00:58:36 2025.
