 Gaussian 16, Revision C.01,
 Gaussian 16:  ES64L-G16RevC.01  3-Jul-2019

 -----------------------------------------------------------------
 #P M062X/Def2TZVPP Symm(None) scf(xqc) pop(None) freq opt(CalcFC)
 -----------------------------------------------------------------

 ------------------------------
 Gaussian input prepared by ASE
 ------------------------------
 Symbolic Z-matrix:
 Charge =  0 Multiplicity = 2

 SCF Done:  E(UM062X) =  -664.718028619     A.U. after   17 cycles
 SCF Done:  E(UM062X) =  -664.726926684     A.U. after   16 cycles
 SCF Done:  E(UM062X) =  -664.728292598     A.U. after   14 cycles
 SCF Done:  E(UM062X) =  -664.728795360     A.U. after   13 cycles
 SCF Done:  E(UM062X) =  -664.728989723     A.U. after   14 cycles
 SCF Done:  E(UM062X) =  -664.729045136     A.U. after   15 cycles
 SCF Done:  E(UM062X) =  -664.729053454     A.U. after   11 cycles
 SCF Done:  E(UM062X) =  -664.729054676     A.U. after   10 cycles
 SCF Done:  E(UM062X) =  -664.729054823     A.U. after    8 cycles
 Optimization completed.
    -- Stationary point found.
 Normal termination of Gaussian 16 at Sat May 24 00:52:33 2025.

 ---------------------------------------------------------------------
 #P Geom=AllCheck Guess=TCheck SCRF=Check GenChk UM062X/def2TZVPP Freq
 ---------------------------------------------------------------------

 Structure from the checkpoint file:  "/tmp/Gau-214117.chk"
 ------------------------------
 Gaussian input prepared by ASE
 ------------------------------
 Charge =  0 Multiplicity = 2

                          Input orientation:
 ---------------------------------------------------------------------
 Center     Atomic      Atomic             Coordinates (Angstroms)
 Number     Number       Type             X           Y           Z
 ---------------------------------------------------------------------
      1          6           0        1.575288    0.113233    0.058747
      2          8           0        2.163740   -0.675810    0.720493
      3          6           0        0.023656    0.086268    0.012498
      4          6           0       -0.594625    0.460407    1.342196
      5          9           0       -0.485892   -0.442153    2.280534
      6          9           0       -0.230304    1.655803    1.761790
      7          9           0       -0.421742    0.975303   -0.912601
      8          9           0       -0.385815   -1.135584   -0.332197
      9          8           0        2.154598    1.081090   -0.644132
     10          1           0        1.501339    1.592300   -1.137329
 ---------------------------------------------------------------------

 SCF Done:  E(UM062X) =  -664.729054823     A.U. after    1 cycles

 Isotropic polarizability for W=    0.000000       42.94 Bohr**3.
 End of Minotr F.D. properties file   721 does not exist.

                      1                      2                      3
                      A                      A                      A
 Frequencies --     22.1650                67.7564               137.6145
 Red. masses --      9.4287                16.7483                16.7998
 Frc consts  --      0.0027                 0.0453                 0.1874
 IR Inten    --      3.6848                 0.2480                 2.6258

                      4                      5                      6
                      A                      A                      A
 Frequencies --    207.7949               271.4823               359.4292
 Red. masses --     17.2418                13.9705                15.0962
 Frc consts  --      0.4386                 0.6067                 1.1491
 IR Inten    --      3.4268                 7.2945                 2.2117

                      7                      8                      9
                      A                      A                      A
 Frequencies --    373.9517               426.1608               497.0171
 Red. masses --     10.0316                14.1218                 6.0358
 Frc consts  --      0.8265                 1.5111                 0.8785
 IR Inten    --     11.7663                 1.0294                46.7974

                     10                     11                     12
                      A                      A                      A
 Frequencies --    557.3207               565.8437               601.6617
 Red. masses --      1.5383                 5.3929                 7.5612
 Frc consts  --      0.2815                 1.0173                 1.6127
 IR Inten    --     45.8065                38.4219                 3.1366

                     13                     14                     15
                      A                      A                      A
 Frequencies --    665.7789               779.1299               805.7022
 Red. masses --     13.8086                 9.9866                11.2882
 Frc consts  --      3.6063                 3.5718                 4.3174
 IR Inten    --      7.0787                13.6223                 4.7038

                     16                     17                     18
                      A                      A                      A
 Frequencies --   1071.7252              1170.4503              1245.4721
 Red. masses --     12.8339                 6.2115                 2.1044
 Frc consts  --      8.6851                 5.0137                 1.9233
 IR Inten    --     79.9906               124.7683                31.4591

                     19                     20                     21
                      A                      A                      A
 Frequencies --   1258.0235              1334.5040              1383.6782
 Red. masses --      7.3715                 9.8932                 4.1225
 Frc consts  --      6.8736                10.3807                 4.6503
 IR Inten    --    287.2680               131.8342               442.0115

                     22                     23                     24
                      A                      A                      A
 Frequencies --   1408.9257              1933.0921              3835.9984
 Red. masses --      8.8334                11.4233                 1.0655
 Frc consts  --     10.3312                25.1504                 9.2377
 IR Inten    --     10.5939               297.5609               141.4170

 - Thermochemistry -
 -------------------
 Temperature   298.150 Kelvin.  Pressure   1.00000 Atm.
 Atom     1 has atomic number  6 and mass  12.00000

 Molecular mass:   144.99127 amu.
 Principal axes and moments of inertia in atomic units:
                           1         2         3
     Eigenvalues --   880.963211249.597661280.88385
           X           -0.69840   0.64698   0.30604
           Y           -0.02170  -0.44655   0.89450
           Z            0.71538   0.61807   0.32591
 This molecule is an asymmetric top.
 Rotational symmetry number  1.
 Warning -- assumption of classical behavior for rotation
           may cause significant error
 Rotational temperatures (Kelvin)      0.09832     0.06931     0.06762
 Rotational constants (GHZ):           2.04860     1.44426     1.40898
 Zero-point vibrational energy     125492.3 (Joules/Mol)
                                   29.99339 (Kcal/Mol)
 Warning -- explicit consideration of  12 degrees of freedom as
           vibrations may cause significant error
 Vibrational temperatures:     31.89    97.49   198.00   298.97   390.60
          (Kelvin)            517.14   538.03   613.15   715.10   801.86
                              814.12   865.66   957.91  1120.99  1159.23
                             1541.97  1684.02  1791.96  1810.02  1920.05
                             1990.80  2027.13  2781.29  5519.15

 Zero-point correction=                           0.047798 (Hartree/Particle)
 Thermal correction to Energy=                    0.056103
 Thermal correction to Enthalpy=                  0.057047
 Thermal correction to Gibbs Free Energy=         0.012239
 Sum of electronic and zero-point Energies=           -664.681257
 Sum of electronic and thermal Energies=              -664.672952
 Sum of electronic and thermal Enthalpies=            -664.672007
 Sum of electronic and thermal Free Energies=         -664.716816

                     E (Thermal)             CV                S
                      KCal/Mol        Cal/Mol-Kelvin    Cal/Mol-Kelvin
 Total                   35.205             27.857             94.308
 Electronic               0.000              0.000              1.377
 Translational            0.889              2.981             40.825
 Rotational               0.889              2.981             28.735
 Vibrational             33.428             21.896             23.370
 Vibration     1          0.593              1.985              6.430
 Vibration     2          0.598              1.970              4.217
 Vibration     3          0.614              1.916              2.837
 Vibration     4          0.641              1.829              2.063
 Vibration     5          0.675              1.726              1.587
 Vibration     6          0.734              1.556              1.125
 Vibration     7          0.745              1.526              1.064
 Vibration     8          0.788              1.413              0.871
 Vibration     9          0.853              1.257              0.666
 Vibration    10          0.913              1.124              0.529
 Vibration    11          0.922              1.105              0.512
 Vibration    12          0.960              1.028              0.447

                           ! Non-Optimized Parameters !
 Normal termination of Gaussian 16 at Sat May 24 00:56:34 2025.
