 Gaussian 16, Revision C.01,
 Gaussian 16:  ES64L-G16RevC.01  3-Jul-2019

 -----------------------------------------------------------------
 #P M062X/Def2TZVPP Symm(None) scf(xqc) pop(None) freq opt(CalcFC)
 -----------------------------------------------------------------

 ------------------------------
 Gaussian input prepared by ASE
 ------------------------------
 Symbolic Z-matrix:
 Charge =  0 Multiplicity = 2

 SCF Done:  E(UM062X) =  -664.731656048     A.U. after   16 cycles
 SCF Done:  E(UM062X) =  -664.732186691     A.U. after   13 cycles
 SCF Done:  E(UM062X) =  -664.732211437     A.U. after   12 cycles
 SCF Done:  E(UM062X) =  -664.732212709     A.U. after    8 cycles
 SCF Done:  E(UM062X) =  -664.732212765     A.U. after    7 cycles
 Optimization completed.
    -- Stationary point found.
 Normal termination of Gaussian 16 at Sat May 24 00:49:34 2025.

 ---------------------------------------------------------------------
 #P Geom=AllCheck Guess=TCheck SCRF=Check GenChk UM062X/def2TZVPP Freq
 ---------------------------------------------------------------------

 Structure from the checkpoint file:  "/tmp/Gau-208163.chk"
 ------------------------------
 Gaussian input prepared by ASE
 ------------------------------
 Charge =  0 Multiplicity = 2

                          Input orientation:
 ---------------------------------------------------------------------
 Center     Atomic      Atomic             Coordinates (Angstroms)
 Number     Number       Type             X           Y           Z
 ---------------------------------------------------------------------
      1          6           0        1.545113    0.007296    0.000639
      2          8           0        2.201158   -0.985296   -0.061242
      3          6           0        0.000573   -0.003045   -0.029233
      4          6           0       -0.581657   -1.393235   -0.145695
      5          9           0       -0.324625   -2.000110   -1.280040
      6          9           0       -0.366501   -2.164726    0.893296
      7          9           0       -0.458944    0.559371    1.101169
      8          9           0       -0.417670    0.724756   -1.078376
      9          8           0        2.004439    1.248815    0.102017
     10          1           0        2.971316    1.216678    0.117269
 ---------------------------------------------------------------------

 SCF Done:  E(UM062X) =  -664.732212765     A.U. after    1 cycles

 Isotropic polarizability for W=    0.000000       42.65 Bohr**3.
 End of Minotr F.D. properties file   721 does not exist.

                      1                      2                      3
                      A                      A                      A
 Frequencies --     27.7961                87.5079               145.3855
 Red. masses --     12.5675                18.1297                13.0096
 Frc consts  --      0.0057                 0.0818                 0.1620
 IR Inten    --      1.9058                 0.0022                 0.2198

                      4                      5                      6
                      A                      A                      A
 Frequencies --    206.0370               246.9847               300.8550
 Red. masses --     15.3119                10.3020                 9.9024
 Frc consts  --      0.3830                 0.3703                 0.5281
 IR Inten    --      1.6837                 0.1482                 4.2034

                      7                      8                      9
                      A                      A                      A
 Frequencies --    361.3407               411.1481               489.1897
 Red. masses --     18.3352                16.3165                 6.7484
 Frc consts  --      1.4105                 1.6251                 0.9515
 IR Inten    --      0.2607                 1.8989                 5.5550

                     10                     11                     12
                      A                      A                      A
 Frequencies --    557.8071               590.8320               627.7838
 Red. masses --     11.7151                 1.2987                 7.4346
 Frc consts  --      2.1476                 0.2671                 1.7264
 IR Inten    --     23.9216                94.7597                84.5565

                     13                     14                     15
                      A                      A                      A
 Frequencies --    694.9911               763.1813               803.3177
 Red. masses --     14.5247                 5.4006                 9.5206
 Frc consts  --      4.1335                 1.8533                 3.6198
 IR Inten    --      2.9095                13.7628                33.4750

                     16                     17                     18
                      A                      A                      A
 Frequencies --   1083.3051              1205.8181              1219.8666
 Red. masses --     13.0622                 3.0222                 3.2513
 Frc consts  --      9.0316                 2.5890                 2.8506
 IR Inten    --    163.2025                43.4056               234.3058

                     19                     20                     21
                      A                      A                      A
 Frequencies --   1225.8142              1348.5257              1421.5634
 Red. masses --     13.1442                13.3523                 5.2726
 Frc consts  --     11.6368                14.3063                 6.2778
 IR Inten    --    180.2517               256.3329                27.4523

                     22                     23                     24
                      A                      A                      A
 Frequencies --   1429.0247              1901.0492              3804.9320
 Red. masses --      7.5578                11.6995                 1.0646
 Frc consts  --      9.0934                24.9117                 9.0807
 IR Inten    --     87.2259               295.0241               120.9068

 - Thermochemistry -
 -------------------
 Temperature   298.150 Kelvin.  Pressure   1.00000 Atm.
 Atom     1 has atomic number  6 and mass  12.00000

 Molecular mass:   144.99127 amu.
 Principal axes and moments of inertia in atomic units:
                           1         2         3
     Eigenvalues --   801.445291251.072451405.84314
           X            0.58225   0.81280  -0.01858
           Y            0.80981  -0.58184  -0.07528
           Z            0.07199  -0.02878   0.99699
 This molecule is an asymmetric top.
 Rotational symmetry number  1.
 Warning -- assumption of classical behavior for rotation
           may cause significant error
 Rotational temperatures (Kelvin)      0.10807     0.06923     0.06161
 Rotational constants (GHZ):           2.25186     1.44256     1.28374
 Zero-point vibrational energy     125333.1 (Joules/Mol)
                                   29.95533 (Kcal/Mol)
 Warning -- explicit consideration of  11 degrees of freedom as
           vibrations may cause significant error
 Vibrational temperatures:     39.99   125.90   209.18   296.44   355.36
          (Kelvin)            432.86   519.89   591.55   703.83   802.56
                              850.08   903.24   999.94  1098.05  1155.79
                             1558.63  1734.90  1755.12  1763.67  1940.23
                             2045.31  2056.05  2735.19  5474.45

 Zero-point correction=                           0.047737 (Hartree/Particle)
 Thermal correction to Energy=                    0.056077
 Thermal correction to Enthalpy=                  0.057021
 Thermal correction to Gibbs Free Energy=         0.012489
 Sum of electronic and zero-point Energies=           -664.684476
 Sum of electronic and thermal Energies=              -664.676136
 Sum of electronic and thermal Enthalpies=            -664.675192
 Sum of electronic and thermal Free Energies=         -664.719724

                     E (Thermal)             CV                S
                      KCal/Mol        Cal/Mol-Kelvin    Cal/Mol-Kelvin
 Total                   35.189             27.913             93.726
 Electronic               0.000              0.000              1.377
 Translational            0.889              2.981             40.825
 Rotational               0.889              2.981             28.735
 Vibrational             33.411             21.952             22.788
 Vibration     1          0.593              1.984              5.981
 Vibration     2          0.601              1.958              3.715
 Vibration     3          0.617              1.908              2.732
 Vibration     4          0.641              1.831              2.079
 Vibration     5          0.661              1.768              1.752
 Vibration     6          0.693              1.672              1.412
 Vibration     7          0.736              1.552              1.116
 Vibration     8          0.775              1.446              0.923
 Vibration     9          0.845              1.274              0.686
 Vibration    10          0.913              1.123              0.528
 Vibration    11          0.948              1.051              0.466

 Optimization completed.
    -- Stationary point found.
 Normal termination of Gaussian 16 at Sat May 24 00:53:28 2025.
