 Gaussian 16, Revision C.01,
 Gaussian 16:  ES64L-G16RevC.01  3-Jul-2019

 -----------------------------------------------------------------
 #P M062X/Def2TZVPP Symm(None) scf(xqc) pop(None) freq opt(CalcFC)
 -----------------------------------------------------------------

 ------------------------------
 Gaussian input prepared by ASE
 ------------------------------
 Symbolic Z-matrix:
 Charge =  0 Multiplicity = 2

 SCF Done:  E(UM062X) =  -664.711708348     A.U. after   17 cycles
 SCF Done:  E(UM062X) =  -664.724032323     A.U. after   17 cycles
 SCF Done:  E(UM062X) =  -664.725807520     A.U. after   18 cycles
 SCF Done:  E(UM062X) =  -664.727128249     A.U. after   18 cycles
 SCF Done:  E(UM062X) =  -664.728760356     A.U. after   15 cycles
 SCF Done:  E(UM062X) =  -664.728905635     A.U. after   15 cycles
 SCF Done:  E(UM062X) =  -664.729003086     A.U. after   12 cycles
 SCF Done:  E(UM062X) =  -664.729031801     A.U. after   12 cycles
 SCF Done:  E(UM062X) =  -664.729041779     A.U. after   11 cycles
 SCF Done:  E(UM062X) =  -664.729045127     A.U. after    9 cycles
 SCF Done:  E(UM062X) =  -664.729045897     A.U. after    8 cycles
 Optimization completed.
    -- Stationary point found.
 Normal termination of Gaussian 16 at Sat May 24 00:52:14 2025.

 ---------------------------------------------------------------------
 #P Geom=AllCheck Guess=TCheck SCRF=Check GenChk UM062X/def2TZVPP Freq
 ---------------------------------------------------------------------

 Structure from the checkpoint file:  "/tmp/Gau-162308.chk"
 ------------------------------
 Gaussian input prepared by ASE
 ------------------------------
 Charge =  0 Multiplicity = 2

                          Input orientation:
 ---------------------------------------------------------------------
 Center     Atomic      Atomic             Coordinates (Angstroms)
 Number     Number       Type             X           Y           Z
 ---------------------------------------------------------------------
      1          6           0        1.568730    0.092336   -0.255949
      2          8           0        2.037080   -0.771431   -0.920011
      3          6           0        0.030900    0.187649   -0.069110
      4          6           0       -0.667374    0.631050   -1.336916
      5          9           0       -0.254175    1.806403   -1.767945
      6          9           0       -0.697088   -0.258016   -2.294159
      7          9           0       -0.445517   -1.001132    0.300866
      8          9           0       -0.256407    1.097787    0.896933
      9          8           0        2.274967    1.056198    0.326708
     10          1           0        1.709128    1.629022    0.858787
 ---------------------------------------------------------------------

 SCF Done:  E(UM062X) =  -664.729045897     A.U. after    1 cycles

 Isotropic polarizability for W=    0.000000       42.97 Bohr**3.
 End of Minotr F.D. properties file   721 does not exist.

                      1                      2                      3
                      A                      A                      A
 Frequencies --     26.8129                67.1075               136.0711
 Red. masses --      9.4754                16.1794                16.7556
 Frc consts  --      0.0040                 0.0429                 0.1828
 IR Inten    --      3.7583                 0.3909                 2.5360

                      4                      5                      6
                      A                      A                      A
 Frequencies --    208.1119               269.8909               358.3613
 Red. masses --     17.1849                13.4087                15.0000
 Frc consts  --      0.4385                 0.5755                 1.1350
 IR Inten    --      3.5226                 7.6114                 2.1402

                      7                      8                      9
                      A                      A                      A
 Frequencies --    375.5343               426.2132               496.0354
 Red. masses --     10.3841                13.7055                 5.0880
 Frc consts  --      0.8628                 1.4669                 0.7376
 IR Inten    --     10.8535                 0.9672                54.7690

                     10                     11                     12
                      A                      A                      A
 Frequencies --    554.4000               565.5650               596.9712
 Red. masses --      1.4856                 7.4979                 7.7891
 Frc consts  --      0.2690                 1.4130                 1.6355
 IR Inten    --     45.7257                30.5157                 2.0990

                     13                     14                     15
                      A                      A                      A
 Frequencies --    665.0857               778.2894               807.7803
 Red. masses --     13.6227                 9.9864                11.3334
 Frc consts  --      3.5503                 3.5640                 4.3571
 IR Inten    --      7.5733                14.0959                 4.4071

                     16                     17                     18
                      A                      A                      A
 Frequencies --   1071.3024              1169.8178              1243.0752
 Red. masses --     12.8368                 5.9890                 1.9852
 Frc consts  --      8.6802                 4.8288                 1.8073
 IR Inten    --     76.2760               122.3815                40.0677

                     19                     20                     21
                      A                      A                      A
 Frequencies --   1261.4552              1332.7289              1380.5870
 Red. masses --      9.6447                 9.4102                 4.3646
 Frc consts  --      9.0424                 9.8477                 4.9014
 IR Inten    --    291.6928               120.9125               435.9119

                     22                     23                     24
                      A                      A                      A
 Frequencies --   1408.6764              1933.8315              3834.4577
 Red. masses --      8.5625                11.4416                 1.0656
 Frc consts  --     10.0109                25.2102                 9.2308
 IR Inten    --     15.4042               300.5904               140.1862

 - Thermochemistry -
 -------------------
 Temperature   298.150 Kelvin.  Pressure   1.00000 Atm.
 Atom     1 has atomic number  6 and mass  12.00000

 Molecular mass:   144.99127 amu.
 Principal axes and moments of inertia in atomic units:
                           1         2         3
     Eigenvalues --   889.956191245.008671267.88941
           X            0.76619  -0.46142   0.44726
           Y           -0.05237   0.64885   0.75911
           Z            0.64047   0.60505  -0.47298
 This molecule is an asymmetric top.
 Rotational symmetry number  1.
 Warning -- assumption of classical behavior for rotation
           may cause significant error
 Rotational temperatures (Kelvin)      0.09732     0.06957     0.06831
 Rotational constants (GHZ):           2.02790     1.44958     1.42342
 Zero-point vibrational energy     125417.5 (Joules/Mol)
                                   29.97549 (Kcal/Mol)
 Warning -- explicit consideration of  12 degrees of freedom as
           vibrations may cause significant error
 Vibrational temperatures:     38.58    96.55   195.78   299.43   388.31
          (Kelvin)            515.60   540.31   613.23   713.68   797.66
                              813.72   858.91   956.91  1119.78  1162.22
                             1541.37  1683.11  1788.51  1814.95  1917.50
                             1986.36  2026.77  2782.35  5516.93

 Zero-point correction=                           0.047769 (Hartree/Particle)
 Thermal correction to Energy=                    0.056075
 Thermal correction to Enthalpy=                  0.057020
 Thermal correction to Gibbs Free Energy=         0.012362
 Sum of electronic and zero-point Energies=           -664.681277
 Sum of electronic and thermal Energies=              -664.672971
 Sum of electronic and thermal Enthalpies=            -664.672026
 Sum of electronic and thermal Free Energies=         -664.716684

                     E (Thermal)             CV                S
                      KCal/Mol        Cal/Mol-Kelvin    Cal/Mol-Kelvin
 Total                   35.188             27.880             93.990
 Electronic               0.000              0.000              1.377
 Translational            0.889              2.981             40.825
 Rotational               0.889              2.981             28.731
 Vibrational             33.410             21.919             23.056
 Vibration     1          0.593              1.984              6.052
 Vibration     2          0.598              1.970              4.236
 Vibration     3          0.614              1.917              2.858
 Vibration     4          0.641              1.828              2.060
 Vibration     5          0.674              1.729              1.597
 Vibration     6          0.733              1.558              1.129
 Vibration     7          0.746              1.522              1.057
 Vibration     8          0.788              1.413              0.871
 Vibration     9          0.852              1.259              0.668
 Vibration    10          0.910              1.130              0.535
 Vibration    11          0.921              1.106              0.513
 Vibration    12          0.955              1.038              0.455

                           ! Non-Optimized Parameters !
 Normal termination of Gaussian 16 at Sat May 24 00:56:21 2025.
