 Gaussian 16, Revision C.01,
 Gaussian 16:  ES64L-G16RevC.01  3-Jul-2019

 -----------------------------------------------------------------
 #P M062X/Def2TZVPP Symm(None) scf(xqc) pop(None) freq opt(CalcFC)
 -----------------------------------------------------------------

 ------------------------------
 Gaussian input prepared by ASE
 ------------------------------
 Symbolic Z-matrix:
 Charge =  0 Multiplicity = 2

 SCF Done:  E(UM062X) =  -664.714029605     A.U. after   17 cycles
 SCF Done:  E(UM062X) =  -664.724624589     A.U. after   18 cycles
 SCF Done:  E(UM062X) =  -664.726859156     A.U. after   17 cycles
 SCF Done:  E(UM062X) =  -664.727871277     A.U. after   14 cycles
 SCF Done:  E(UM062X) =  -664.728112417     A.U. after   12 cycles
 SCF Done:  E(UM062X) =  -664.728346297     A.U. after   14 cycles
 SCF Done:  E(UM062X) =  -664.728481460     A.U. after   13 cycles
 SCF Done:  E(UM062X) =  -664.728645668     A.U. after   13 cycles
 SCF Done:  E(UM062X) =  -664.728783147     A.U. after   13 cycles
 SCF Done:  E(UM062X) =  -664.728857978     A.U. after   11 cycles
 SCF Done:  E(UM062X) =  -664.728960926     A.U. after   12 cycles
 SCF Done:  E(UM062X) =  -664.729014113     A.U. after   11 cycles
 SCF Done:  E(UM062X) =  -664.729041866     A.U. after   11 cycles
 SCF Done:  E(UM062X) =  -664.729049370     A.U. after    9 cycles
 SCF Done:  E(UM062X) =  -664.729052436     A.U. after   12 cycles
 SCF Done:  E(UM062X) =  -664.729053353     A.U. after   12 cycles
 SCF Done:  E(UM062X) =  -664.729053545     A.U. after    9 cycles
 Optimization completed.
    -- Stationary point found.
 Normal termination of Gaussian 16 at Sat May 24 00:55:09 2025.

 ---------------------------------------------------------------------
 #P Geom=AllCheck Guess=TCheck SCRF=Check GenChk UM062X/def2TZVPP Freq
 ---------------------------------------------------------------------

 Structure from the checkpoint file:  "/tmp/Gau-129101.chk"
 ------------------------------
 Gaussian input prepared by ASE
 ------------------------------
 Charge =  0 Multiplicity = 2

                          Input orientation:
 ---------------------------------------------------------------------
 Center     Atomic      Atomic             Coordinates (Angstroms)
 Number     Number       Type             X           Y           Z
 ---------------------------------------------------------------------
      1          6           0        1.563909    0.117776   -0.066546
      2          8           0        2.114748   -0.600835   -0.832633
      3          6           0        0.013198    0.138608    0.003494
      4          6           0       -0.607360    0.719048   -1.248932
      5          9           0       -0.207787    1.950054   -1.499645
      6          9           0       -0.539333   -0.042972   -2.308048
      7          9           0       -0.437202   -1.104489    0.179085
      8          9           0       -0.387049    0.902876    1.052383
      9          8           0        2.186737    0.970304    0.740817
     10          1           0        1.559117    1.434470    1.308243
 ---------------------------------------------------------------------

 SCF Done:  E(UM062X) =  -664.729053545     A.U. after    1 cycles

 Isotropic polarizability for W=    0.000000       42.93 Bohr**3.
 End of Minotr F.D. properties file   721 does not exist.

                      1                      2                      3
                      A                      A                      A
 Frequencies --     21.1249                66.2325               137.0829
 Red. masses --      9.4035                16.4187                16.8198
 Frc consts  --      0.0025                 0.0424                 0.1862
 IR Inten    --      3.7671                 0.3009                 2.7111

                      4                      5                      6
                      A                      A                      A
 Frequencies --    207.4811               270.2570               358.7919
 Red. masses --     17.1603                13.6322                14.6070
 Frc consts  --      0.4352                 0.5866                 1.1079
 IR Inten    --      3.4655                 7.6157                 2.6144

                      7                      8                      9
                      A                      A                      A
 Frequencies --    373.2104               426.1958               494.2421
 Red. masses --     10.2019                14.0303                 4.5339
 Frc consts  --      0.8372                 1.5015                 0.6525
 IR Inten    --     11.3975                 1.0005                57.0508

                     10                     11                     12
                      A                      A                      A
 Frequencies --    547.1713               564.6112               600.0214
 Red. masses --      1.4187                11.0713                 8.6169
 Frc consts  --      0.2503                 2.0795                 1.8278
 IR Inten    --     51.4326                21.9115                 3.0350

                     13                     14                     15
                      A                      A                      A
 Frequencies --    665.4248               778.3665               805.8940
 Red. masses --     13.7524                 9.9528                11.3622
 Frc consts  --      3.5878                 3.5527                 4.3478
 IR Inten    --      7.1947                13.7236                 4.7383

                     16                     17                     18
                      A                      A                      A
 Frequencies --   1071.3592              1170.1191              1243.0179
 Red. masses --     12.8411                 5.9576                 1.9980
 Frc consts  --      8.6841                 4.8060                 1.8188
 IR Inten    --     79.0187               123.0392                36.6092

                     19                     20                     21
                      A                      A                      A
 Frequencies --   1258.3330              1334.5279              1381.7353
 Red. masses --      8.9912                 9.7822                 4.2907
 Frc consts  --      8.3880                10.2645                 4.8265
 IR Inten    --    286.8843               127.0815               443.6751

                     22                     23                     24
                      A                      A                      A
 Frequencies --   1408.3738              1933.1297              3838.1631
 Red. masses --      8.9885                11.4409                 1.0656
 Frc consts  --     10.5045                25.1902                 9.2486
 IR Inten    --     10.2596               298.0041               141.0748

 - Thermochemistry -
 -------------------
 Temperature   298.150 Kelvin.  Pressure   1.00000 Atm.
 Atom     1 has atomic number  6 and mass  12.00000

 Molecular mass:   144.99127 amu.
 Principal axes and moments of inertia in atomic units:
                           1         2         3
     Eigenvalues --   882.996451248.853841278.12496
           X            0.71000  -0.60461   0.36104
           Y           -0.10587   0.41522   0.90354
           Z            0.69620   0.67973  -0.23080
 This molecule is an asymmetric top.
 Rotational symmetry number  1.
 Warning -- assumption of classical behavior for rotation
           may cause significant error
 Rotational temperatures (Kelvin)      0.09809     0.06935     0.06777
 Rotational constants (GHZ):           2.04388     1.44512     1.41202
 Zero-point vibrational energy     125337.9 (Joules/Mol)
                                   29.95649 (Kcal/Mol)
 Warning -- explicit consideration of  12 degrees of freedom as
           vibrations may cause significant error
 Vibrational temperatures:     30.39    95.29   197.23   298.52   388.84
          (Kelvin)            516.22   536.97   613.20   711.10   787.26
                              812.35   863.30   957.40  1119.90  1159.50
                             1541.45  1683.54  1788.43  1810.46  1920.09
                             1988.01  2026.34  2781.34  5522.26

 Zero-point correction=                           0.047739 (Hartree/Particle)
 Thermal correction to Energy=                    0.056065
 Thermal correction to Enthalpy=                  0.057009
 Thermal correction to Gibbs Free Energy=         0.012107
 Sum of electronic and zero-point Energies=           -664.681315
 Sum of electronic and thermal Energies=              -664.672988
 Sum of electronic and thermal Enthalpies=            -664.672044
 Sum of electronic and thermal Free Energies=         -664.716947

                     E (Thermal)             CV                S
                      KCal/Mol        Cal/Mol-Kelvin    Cal/Mol-Kelvin
 Total                   35.181             27.903             94.506
 Electronic               0.000              0.000              1.377
 Translational            0.889              2.981             40.825
 Rotational               0.889              2.981             28.735
 Vibrational             33.404             21.942             23.569
 Vibration     1          0.593              1.985              6.526
 Vibration     2          0.598              1.970              4.262
 Vibration     3          0.614              1.916              2.844
 Vibration     4          0.641              1.829              2.066
 Vibration     5          0.674              1.728              1.595
 Vibration     6          0.734              1.557              1.127
 Vibration     7          0.745              1.527              1.067
 Vibration     8          0.788              1.413              0.871
 Vibration     9          0.850              1.263              0.673
 Vibration    10          0.902              1.146              0.550
 Vibration    11          0.920              1.108              0.515
 Vibration    12          0.958              1.032              0.450

 Optimization completed.
    -- Stationary point found.
 Normal termination of Gaussian 16 at Sat May 24 00:59:08 2025.
