 Gaussian 16, Revision C.01,
 Gaussian 16:  ES64L-G16RevC.01  3-Jul-2019

 -----------------------------------------------------------------
 #P M062X/Def2TZVPP Symm(None) scf(xqc) pop(None) freq opt(CalcFC)
 -----------------------------------------------------------------

 ------------------------------
 Gaussian input prepared by ASE
 ------------------------------
 Symbolic Z-matrix:
 Charge =  0 Multiplicity = 2

 SCF Done:  E(UM062X) =  -664.732528701     A.U. after   17 cycles
 SCF Done:  E(UM062X) =  -664.732528906     A.U. after   10 cycles
 Optimization completed.
    -- Stationary point found.
 Normal termination of Gaussian 16 at Sat May 24 00:50:15 2025.

 ---------------------------------------------------------------------
 #P Geom=AllCheck Guess=TCheck SCRF=Check GenChk UM062X/def2TZVPP Freq
 ---------------------------------------------------------------------

 Structure from the checkpoint file:  "/tmp/Gau-266102.chk"
 ------------------------------
 Gaussian input prepared by ASE
 ------------------------------
 Charge =  0 Multiplicity = 2

                          Input orientation:
 ---------------------------------------------------------------------
 Center     Atomic      Atomic             Coordinates (Angstroms)
 Number     Number       Type             X           Y           Z
 ---------------------------------------------------------------------
      1          6           0        1.546096   -0.001009   -0.001414
      2          8           0        2.204447   -0.989547    0.020666
      3          6           0       -0.000133   -0.001050    0.000440
      4          6           0       -0.588374    0.535457    1.291648
      5          9           0       -0.173497   -0.105132    2.364123
      6          9           0       -0.511846    1.835411    1.444684
      7          9           0       -0.448761    0.755951   -1.014926
      8          9           0       -0.421018   -1.257537   -0.162587
      9          8           0        1.999819    1.250968    0.009065
     10          1           0        2.966468    1.225424    0.030825
 ---------------------------------------------------------------------

 SCF Done:  E(UM062X) =  -664.732528906     A.U. after    1 cycles

 Isotropic polarizability for W=    0.000000       43.19 Bohr**3.
 End of Minotr F.D. properties file   721 does not exist.

                      1                      2                      3
                      A                      A                      A
 Frequencies --     22.4140                68.3008               137.3040
 Red. masses --     13.0716                17.4440                10.5020
 Frc consts  --      0.0039                 0.0479                 0.1167
 IR Inten    --      1.3730                 0.2060                 0.7500

                      4                      5                      6
                      A                      A                      A
 Frequencies --    209.6839               247.3979               353.8187
 Red. masses --     17.2839                11.7267                14.2975
 Frc consts  --      0.4477                 0.4229                 1.0546
 IR Inten    --      1.5297                 0.9181                 0.5590

                      7                      8                      9
                      A                      A                      A
 Frequencies --    369.7931               413.6679               482.8430
 Red. masses --     14.8292                12.1945                 4.8466
 Frc consts  --      1.1948                 1.2295                 0.6657
 IR Inten    --      0.4902                 2.1247                 8.9639

                     10                     11                     12
                      A                      A                      A
 Frequencies --    560.8648               588.9578               625.4227
 Red. masses --      5.5646                 2.8403                 3.1004
 Frc consts  --      1.0313                 0.5805                 0.7145
 IR Inten    --     21.2168                49.3819                81.8249

                     13                     14                     15
                      A                      A                      A
 Frequencies --    656.0872               762.5259               816.9123
 Red. masses --      6.0829                 5.5978                10.5034
 Frc consts  --      1.5427                 1.9177                 4.1298
 IR Inten    --     29.7494                18.5374                17.1746

                     16                     17                     18
                      A                      A                      A
 Frequencies --   1073.7598              1182.9519              1222.3146
 Red. masses --     11.7374                 3.0486                 4.5298
 Frc consts  --      7.9733                 2.5135                 3.9874
 IR Inten    --     62.5028               297.6098               177.3967

                     19                     20                     21
                      A                      A                      A
 Frequencies --   1274.1646              1332.7993              1380.1433
 Red. masses --      8.7883                13.3443                 5.0365
 Frc consts  --      8.4064                13.9661                 5.6523
 IR Inten    --     85.1541               236.8144                38.1281

                     22                     23                     24
                      A                      A                      A
 Frequencies --   1421.3473              1916.9480              3810.0433
 Red. masses --      5.9752                11.7140                 1.0647
 Frc consts  --      7.1121                25.3617                 9.1059
 IR Inten    --     62.8751               350.0843               126.1982

 - Thermochemistry -
 -------------------
 Temperature   298.150 Kelvin.  Pressure   1.00000 Atm.
 Atom     1 has atomic number  6 and mass  12.00000

 Molecular mass:   144.99127 amu.
 Principal axes and moments of inertia in atomic units:
                           1         2         3
     Eigenvalues --   893.209101222.014571280.90125
           X            0.71004   0.59391   0.37831
           Y           -0.37806   0.77477  -0.50676
           Z           -0.59407   0.21680   0.77465
 This molecule is an asymmetric top.
 Rotational symmetry number  1.
 Warning -- assumption of classical behavior for rotation
           may cause significant error
 Rotational temperatures (Kelvin)      0.09697     0.07088     0.06762
 Rotational constants (GHZ):           2.02051     1.47686     1.40896
 Zero-point vibrational energy     125192.0 (Joules/Mol)
                                   29.92160 (Kcal/Mol)
 Warning -- explicit consideration of  11 degrees of freedom as
           vibrations may cause significant error
 Vibrational temperatures:     32.25    98.27   197.55   301.69   355.95
          (Kelvin)            509.07   532.05   595.18   694.70   806.96
                              847.38   899.84   943.96  1097.10  1175.35
                             1544.90  1702.00  1758.64  1833.24  1917.60
                             1985.72  2045.00  2758.06  5481.80

 Zero-point correction=                           0.047683 (Hartree/Particle)
 Thermal correction to Energy=                    0.056028
 Thermal correction to Enthalpy=                  0.056972
 Thermal correction to Gibbs Free Energy=         0.012091
 Sum of electronic and zero-point Energies=           -664.684846
 Sum of electronic and thermal Energies=              -664.676501
 Sum of electronic and thermal Enthalpies=            -664.675556
 Sum of electronic and thermal Free Energies=         -664.720438

                     E (Thermal)             CV                S
                      KCal/Mol        Cal/Mol-Kelvin    Cal/Mol-Kelvin
 Total                   35.158             27.891             94.461
 Electronic               0.000              0.000              1.377
 Translational            0.889              2.981             40.825
 Rotational               0.889              2.981             28.727
 Vibrational             33.381             21.929             23.532
 Vibration     1          0.593              1.985              6.408
 Vibration     2          0.598              1.969              4.202
 Vibration     3          0.614              1.916              2.841
 Vibration     4          0.642              1.826              2.046
 Vibration     5          0.661              1.767              1.749
 Vibration     6          0.730              1.567              1.149
 Vibration     7          0.742              1.534              1.081
 Vibration     8          0.777              1.441              0.914
 Vibration     9          0.839              1.288              0.702
 Vibration    10          0.917              1.116              0.522
 Vibration    11          0.946              1.055              0.469

 Optimization completed.
    -- Stationary point found.
 Normal termination of Gaussian 16 at Sat May 24 00:54:00 2025.
