 Gaussian 16, Revision C.01,
 Gaussian 16:  ES64L-G16RevC.01  3-Jul-2019

 -----------------------------------------------------------------
 #P M062X/Def2TZVPP Symm(None) scf(xqc) pop(None) freq opt(CalcFC)
 -----------------------------------------------------------------

 ------------------------------
 Gaussian input prepared by ASE
 ------------------------------
 Symbolic Z-matrix:
 Charge =  0 Multiplicity = 2

 SCF Done:  E(UM062X) =  -688.749728551     A.U. after   17 cycles
 Optimization completed.
    -- Stationary point found.
 Normal termination of Gaussian 16 at Sat May 24 00:35:05 2025.

 ---------------------------------------------------------------------
 #P Geom=AllCheck Guess=TCheck SCRF=Check GenChk UM062X/def2TZVPP Freq
 ---------------------------------------------------------------------

 Structure from the checkpoint file:  "/tmp/Gau-150134.chk"
 ------------------------------
 Gaussian input prepared by ASE
 ------------------------------
 Charge =  0 Multiplicity = 2

                          Input orientation:
 ---------------------------------------------------------------------
 Center     Atomic      Atomic             Coordinates (Angstroms)
 Number     Number       Type             X           Y           Z
 ---------------------------------------------------------------------
      1          6           0        1.528480    0.034707   -0.014328
      2          8           0        2.218049   -0.893722    0.095888
      3          6           0       -0.035295   -0.028700   -0.017241
      4          6           0       -0.583589    0.372747    1.365890
      5          9           0       -1.904801    0.317589    1.362716
      6          9           0       -0.115181   -0.456951    2.288661
      7          9           0       -0.200660    1.606852    1.661367
      8          9           0       -0.499186    0.824431   -0.932812
      9          9           0       -0.466175   -1.258436   -0.310164
 ---------------------------------------------------------------------

 SCF Done:  E(UM062X) =  -688.749728551     A.U. after    1 cycles

 Isotropic polarizability for W=    0.000000       39.47 Bohr**3.
 End of Minotr F.D. properties file   721 does not exist.

                      1                      2                      3
                      A                      A                      A
 Frequencies --     27.3919                62.9090               209.6929
 Red. masses --     16.2074                17.8277                15.9939
 Frc consts  --      0.0072                 0.0416                 0.4144
 IR Inten    --      0.4779                 0.1115                 2.1522

                      4                      5                      6
                      A                      A                      A
 Frequencies --    213.6493               245.3501               330.7051
 Red. masses --     18.0954                17.2766                15.7503
 Frc consts  --      0.4867                 0.6127                 1.0149
 IR Inten    --      3.2673                 1.1499                 0.0997

                      7                      8                      9
                      A                      A                      A
 Frequencies --    368.1591               387.8615               469.7484
 Red. masses --     17.9979                17.2354                16.2752
 Frc consts  --      1.4373                 1.5277                 2.1160
 IR Inten    --      0.0867                 0.3814                 4.1760

                     10                     11                     12
                      A                      A                      A
 Frequencies --    548.2043               588.6490               633.8492
 Red. masses --     17.6028                16.6949                16.7445
 Frc consts  --      3.1169                 3.4084                 3.9636
 IR Inten    --      7.7205                 1.5124                10.0211

                     13                     14                     15
                      A                      A                      A
 Frequencies --    689.0811               785.0313               992.2285
 Red. masses --     14.2420                16.6595                13.3066
 Frc consts  --      3.9844                 6.0490                 7.7187
 IR Inten    --     40.3339                 9.8044                90.3000

                     16                     17                     18
                      A                      A                      A
 Frequencies --   1188.7581              1265.8154              1291.8877
 Red. masses --     13.6104                13.0541                13.2291
 Frc consts  --     11.3320                12.3236                13.0085
 IR Inten    --    210.7730                98.0782               348.5171

                     19                     20                     21
                      A                      A                      A
 Frequencies --   1294.0644              1382.5830              2034.4559
 Red. masses --     13.0699                12.6366                13.3930
 Frc consts  --     12.8954                14.2319                32.6606
 IR Inten    --    199.5803               129.9517                92.9898

 - Thermochemistry -
 -------------------
 Temperature   298.150 Kelvin.  Pressure   1.00000 Atm.
 Atom     1 has atomic number  6 and mass  12.00000

 Molecular mass:   146.98693 amu.
 Principal axes and moments of inertia in atomic units:
                           1         2         3
     Eigenvalues --   784.056151201.353091349.42569
           X            0.73515   0.57417   0.36039
           Y           -0.37525  -0.09808   0.92172
           Z           -0.56457   0.81284  -0.14336
 This molecule is an asymmetric top.
 Rotational symmetry number  1.
 Warning -- assumption of classical behavior for rotation
           may cause significant error
 Rotational temperatures (Kelvin)      0.11047     0.07210     0.06419
 Rotational constants (GHZ):           2.30180     1.50226     1.33741
 Zero-point vibrational energy      89780.2 (Joules/Mol)
                                   21.45798 (Kcal/Mol)
 Warning -- explicit consideration of  11 degrees of freedom as
           vibrations may cause significant error
 Vibrational temperatures:     39.41    90.51   301.70   307.39   353.00
          (Kelvin)            475.81   529.70   558.05   675.86   788.74
                              846.93   911.97   991.43  1129.48  1427.60
                             1710.36  1821.23  1858.74  1861.87  1989.23
                             2927.13

 Zero-point correction=                           0.034195 (Hartree/Particle)
 Thermal correction to Energy=                    0.042391
 Thermal correction to Enthalpy=                  0.043335
 Thermal correction to Gibbs Free Energy=        -0.001025
 Sum of electronic and zero-point Energies=           -688.715533
 Sum of electronic and thermal Energies=              -688.707338
 Sum of electronic and thermal Enthalpies=            -688.706394
 Sum of electronic and thermal Free Energies=         -688.750753

                     E (Thermal)             CV                S
                      KCal/Mol        Cal/Mol-Kelvin    Cal/Mol-Kelvin
 Total                   26.600             27.176             93.362
 Electronic               0.000              0.000              1.377
 Translational            0.889              2.981             40.866
 Rotational               0.889              2.981             28.632
 Vibrational             24.823             21.214             22.486
 Vibration     1          0.593              1.984              6.010
 Vibration     2          0.597              1.972              4.364
 Vibration     3          0.642              1.826              2.046
 Vibration     4          0.644              1.820              2.012
 Vibration     5          0.660              1.770              1.764
 Vibration     6          0.713              1.614              1.257
 Vibration     7          0.741              1.538              1.087
 Vibration     8          0.756              1.496              1.008
 Vibration     9          0.827              1.317              0.738
 Vibration    10          0.903              1.144              0.548
 Vibration    11          0.946              1.056              0.470

 Optimization completed.
    -- Stationary point found.
 Normal termination of Gaussian 16 at Sat May 24 00:38:28 2025.
