 Gaussian 16, Revision C.01,
 Gaussian 16:  ES64L-G16RevC.01  3-Jul-2019

 -----------------------------------------------------------------
 #P M062X/Def2TZVPP Symm(None) scf(xqc) pop(None) freq opt(CalcFC)
 -----------------------------------------------------------------

 ------------------------------
 Gaussian input prepared by ASE
 ------------------------------
 Symbolic Z-matrix:
 Charge =  0 Multiplicity = 1

 SCF Done:  E(RM062X) =  -689.287814551     A.U. after   15 cycles
 SCF Done:  E(RM062X) =  -689.324151224     A.U. after   15 cycles
 SCF Done:  E(RM062X) =  -689.323160293     A.U. after   15 cycles
 SCF Done:  E(RM062X) =  -689.325574021     A.U. after   14 cycles
 SCF Done:  E(RM062X) =  -689.325740431     A.U. after   12 cycles
 SCF Done:  E(RM062X) =  -689.325764469     A.U. after   10 cycles
 SCF Done:  E(RM062X) =  -689.325771774     A.U. after   10 cycles
 SCF Done:  E(RM062X) =  -689.325773652     A.U. after    9 cycles
 SCF Done:  E(RM062X) =  -689.325774014     A.U. after    8 cycles
 Optimization completed.
    -- Stationary point found.
 Normal termination of Gaussian 16 at Sat May 24 00:26:47 2025.

 ---------------------------------------------------------------------
 #P Geom=AllCheck Guess=TCheck SCRF=Check GenChk RM062X/def2TZVPP Freq
 ---------------------------------------------------------------------

 Structure from the checkpoint file:  "/tmp/Gau-107916.chk"
 ------------------------------
 Gaussian input prepared by ASE
 ------------------------------
 Charge =  0 Multiplicity = 1

                          Input orientation:
 ---------------------------------------------------------------------
 Center     Atomic      Atomic             Coordinates (Angstroms)
 Number     Number       Type             X           Y           Z
 ---------------------------------------------------------------------
      1          6           0        1.578057   -0.013838   -0.059089
      2          6           0        0.028231    0.011208   -0.065473
      3          6           0       -0.537151   -0.840014   -1.213715
      4          9           0       -1.857550   -0.740541   -1.262437
      5          9           0       -0.032226   -0.395313   -2.364605
      6          9           0       -0.207944   -2.109606   -1.059980
      7          9           0       -0.406618   -0.471943    1.103752
      8          9           0       -0.488679    1.266685   -0.211245
      9          8           0        2.025986    1.172362   -0.229276
     10          1           0        1.337060    1.863129   -0.336915
 ---------------------------------------------------------------------

 SCF Done:  E(RM062X) =  -689.325774014     A.U. after    1 cycles

 Isotropic polarizability for W=    0.000000       42.18 Bohr**3.
 End of Minotr F.D. properties file   721 does not exist.

                      1                      2                      3
                      A                      A                      A
 Frequencies --     66.0778                75.9433               210.6980
 Red. masses --     15.8893                 7.7047                11.5563
 Frc consts  --      0.0409                 0.0262                 0.3023
 IR Inten    --      0.5086                 5.0792                 6.7039

                      4                      5                      6
                      A                      A                      A
 Frequencies --    215.5437               332.1640               339.8774
 Red. masses --     17.8362                13.1116                 8.5895
 Frc consts  --      0.4882                 0.8523                 0.5846
 IR Inten    --      3.4603                10.1618                17.2576

                      7                      8                      9
                      A                      A                      A
 Frequencies --    368.2058               392.2713               475.2171
 Red. masses --     14.1419                 9.9075                12.1215
 Frc consts  --      1.1296                 0.8982                 1.6128
 IR Inten    --      3.7717                11.2634                15.1120

                     10                     11                     12
                      A                      A                      A
 Frequencies --    549.0834               590.2771               614.0123
 Red. masses --     15.2239                15.1431                11.0518
 Frc consts  --      2.7043                 3.1087                 2.4549
 IR Inten    --      6.9342                 3.1691                28.2002

                     13                     14                     15
                      A                      A                      A
 Frequencies --    731.6009               792.5669               893.8244
 Red. masses --      7.2990                12.3686                 1.3976
 Frc consts  --      2.3018                 4.5776                 0.6578
 IR Inten    --     36.5479                16.3468               114.5774

                     16                     17                     18
                      A                      A                      A
 Frequencies --   1053.5635              1162.8157              1251.1488
 Red. masses --      8.4817                12.7731                12.8163
 Frc consts  --      5.5470                10.1758                11.8203
 IR Inten    --     98.5319               140.4663               292.0346

                     19                     20                     21
                      A                      A                      A
 Frequencies --   1276.2899              1301.3629              1373.0108
 Red. masses --     11.7528                10.3003                 1.5399
 Frc consts  --     11.2795                10.2777                 1.7104
 IR Inten    --    100.8678               257.2464               234.4188

                     22                     23                     24
                      A                      A                      A
 Frequencies --   1398.5388              1481.4225              3533.2804
 Red. masses --      4.4974                11.6987                 1.0626
 Frc consts  --      5.1828                15.1267                 7.8158
 IR Inten    --     22.6822                75.6243                53.1291

 - Thermochemistry -
 -------------------
 Temperature   298.150 Kelvin.  Pressure   1.00000 Atm.
 Atom     1 has atomic number  6 and mass  12.00000

 Molecular mass:   147.99476 amu.
 Principal axes and moments of inertia in atomic units:
                           1         2         3
     Eigenvalues --   751.318501270.104501372.39813
           X            0.65121  -0.57714  -0.49279
           Y            0.62035   0.03079   0.78372
           Z            0.43715   0.81607  -0.37807
 This molecule is an asymmetric top.
 Rotational symmetry number  1.
 Warning -- assumption of classical behavior for rotation
           may cause significant error
 Rotational temperatures (Kelvin)      0.11528     0.06819     0.06311
 Rotational constants (GHZ):           2.40210     1.42094     1.31503
 Zero-point vibrational energy     122490.4 (Joules/Mol)
                                   29.27591 (Kcal/Mol)
 Warning -- explicit consideration of  12 degrees of freedom as
           vibrations may cause significant error
 Vibrational temperatures:     95.07   109.27   303.15   310.12   477.91
          (Kelvin)            489.01   529.77   564.39   683.73   790.01
                              849.28   883.43  1052.61  1140.33  1286.01
                             1515.84  1673.03  1800.12  1836.30  1872.37
                             1975.46  2012.19  2131.44  5083.60

 Zero-point correction=                           0.046654 (Hartree/Particle)
 Thermal correction to Energy=                    0.054659
 Thermal correction to Enthalpy=                  0.055603
 Thermal correction to Gibbs Free Energy=         0.013108
 Sum of electronic and zero-point Energies=           -689.279120
 Sum of electronic and thermal Energies=              -689.271115
 Sum of electronic and thermal Enthalpies=            -689.270171
 Sum of electronic and thermal Free Energies=         -689.312666

                     E (Thermal)             CV                S
                      KCal/Mol        Cal/Mol-Kelvin    Cal/Mol-Kelvin
 Total                   34.299             27.549             89.437
 Electronic               0.000              0.000              0.000
 Translational            0.889              2.981             40.886
 Rotational               0.889              2.981             28.662
 Vibrational             32.521             21.588             19.889
 Vibration     1          0.597              1.970              4.267
 Vibration     2          0.599              1.965              3.993
 Vibration     3          0.643              1.825              2.038
 Vibration     4          0.645              1.817              1.996
 Vibration     5          0.714              1.611              1.250
 Vibration     6          0.720              1.596              1.213
 Vibration     7          0.741              1.538              1.087
 Vibration     8          0.760              1.487              0.991
 Vibration     9          0.832              1.305              0.723
 Vibration    10          0.904              1.142              0.546
 Vibration    11          0.948              1.053              0.467
 Vibration    12          0.973              1.002              0.426

 Optimization completed.
    -- Stationary point found.
 Normal termination of Gaussian 16 at Sat May 24 00:28:55 2025.
