 Gaussian 16, Revision C.01,
 Gaussian 16:  ES64L-G16RevC.01  3-Jul-2019

 -----------------------------------------------------------------
 #P M062X/Def2TZVPP Symm(None) scf(xqc) pop(None) freq opt(CalcFC)
 -----------------------------------------------------------------

 ------------------------------
 Gaussian input prepared by ASE
 ------------------------------
 Symbolic Z-matrix:
 Charge =  0 Multiplicity = 1

 SCF Done:  E(RM062X) =  -689.286907902     A.U. after   15 cycles
 SCF Done:  E(RM062X) =  -689.322898376     A.U. after   15 cycles
 SCF Done:  E(RM062X) =  -689.322980022     A.U. after   16 cycles
 SCF Done:  E(RM062X) =  -689.325441044     A.U. after   15 cycles
 SCF Done:  E(RM062X) =  -689.325620170     A.U. after   12 cycles
 SCF Done:  E(RM062X) =  -689.325705745     A.U. after   12 cycles
 SCF Done:  E(RM062X) =  -689.325765227     A.U. after   12 cycles
 SCF Done:  E(RM062X) =  -689.325773926     A.U. after   11 cycles
 SCF Done:  E(RM062X) =  -689.325774245     A.U. after    9 cycles
 Optimization completed.
    -- Stationary point found.
 Normal termination of Gaussian 16 at Sat May 24 00:27:51 2025.

 ---------------------------------------------------------------------
 #P Geom=AllCheck Guess=TCheck SCRF=Check GenChk RM062X/def2TZVPP Freq
 ---------------------------------------------------------------------

 Structure from the checkpoint file:  "/tmp/Gau-236064.chk"
 ------------------------------
 Gaussian input prepared by ASE
 ------------------------------
 Charge =  0 Multiplicity = 1

                          Input orientation:
 ---------------------------------------------------------------------
 Center     Atomic      Atomic             Coordinates (Angstroms)
 Number     Number       Type             X           Y           Z
 ---------------------------------------------------------------------
      1          6           0        1.558058   -0.072414    0.153438
      2          6           0        0.009436   -0.059966    0.087996
      3          6           0       -0.499179   -0.749655   -1.188047
      4          9           0       -1.817817   -0.654289   -1.276379
      5          9           0        0.044788   -0.147441   -2.245770
      6          9           0       -0.159793   -2.025863   -1.196204
      7          9           0       -0.463737   -0.703158    1.161246
      8          9           0       -0.518759    1.199284    0.095225
      9          8           0        1.995317    1.129875    0.165429
     10          1           0        1.301284    1.822708    0.125279
 ---------------------------------------------------------------------

 SCF Done:  E(RM062X) =  -689.325774245     A.U. after    1 cycles

 Isotropic polarizability for W=    0.000000       42.18 Bohr**3.
 End of Minotr F.D. properties file   721 does not exist.

                      1                      2                      3
                      A                      A                      A
 Frequencies --     65.1312                78.0888               210.7871
 Red. masses --     16.1992                 7.6087                11.4677
 Frc consts  --      0.0405                 0.0273                 0.3002
 IR Inten    --      0.5196                 5.1440                 6.6849

                      4                      5                      6
                      A                      A                      A
 Frequencies --    216.0971               333.6306               339.9498
 Red. masses --     17.7626                13.4116                 8.4417
 Frc consts  --      0.4887                 0.8796                 0.5748
 IR Inten    --      3.7778                 9.3440                18.1004

                      7                      8                      9
                      A                      A                      A
 Frequencies --    368.1298               393.0946               475.0957
 Red. masses --     14.2608                 9.8472                12.0894
 Frc consts  --      1.1387                 0.8965                 1.6078
 IR Inten    --      3.6502                11.5840                15.2727

                     10                     11                     12
                      A                      A                      A
 Frequencies --    549.1059               590.2130               613.8576
 Red. masses --     15.2244                15.1325                10.9433
 Frc consts  --      2.7046                 3.1058                 2.4296
 IR Inten    --      6.9333                 3.2065                28.6227

                     13                     14                     15
                      A                      A                      A
 Frequencies --    731.9604               792.7871               889.5688
 Red. masses --      7.2774                12.3248                 1.4018
 Frc consts  --      2.2972                 4.5640                 0.6536
 IR Inten    --     36.6233                16.3262               112.3606

                     16                     17                     18
                      A                      A                      A
 Frequencies --   1053.8998              1163.2747              1251.9784
 Red. masses --      8.6772                12.7778                12.8442
 Frc consts  --      5.6784                10.1876                11.8618
 IR Inten    --    100.0328               140.5952               299.7926

                     19                     20                     21
                      A                      A                      A
 Frequencies --   1276.3768              1301.8636              1374.8326
 Red. masses --     11.7197                10.4197                 1.5379
 Frc consts  --     11.2493                10.4049                 1.7127
 IR Inten    --     92.4065               258.4008               233.8879

                     22                     23                     24
                      A                      A                      A
 Frequencies --   1400.0632              1480.9621              3532.0283
 Red. masses --      4.4764                11.6392                 1.0626
 Frc consts  --      5.1698                15.0405                 7.8102
 IR Inten    --     22.3527                74.9841                53.1413

 - Thermochemistry -
 -------------------
 Temperature   298.150 Kelvin.  Pressure   1.00000 Atm.
 Atom     1 has atomic number  6 and mass  12.00000

 Molecular mass:   147.99476 amu.
 Principal axes and moments of inertia in atomic units:
                           1         2         3
     Eigenvalues --   751.312851270.031241372.33769
           X            0.62505  -0.60853  -0.48889
           Y            0.55983  -0.08699   0.82403
           Z            0.54397   0.78875  -0.28630
 This molecule is an asymmetric top.
 Rotational symmetry number  1.
 Warning -- assumption of classical behavior for rotation
           may cause significant error
 Rotational temperatures (Kelvin)      0.11528     0.06820     0.06311
 Rotational constants (GHZ):           2.40212     1.42102     1.31509
 Zero-point vibrational energy     122514.2 (Joules/Mol)
                                   29.28160 (Kcal/Mol)
 Warning -- explicit consideration of  12 degrees of freedom as
           vibrations may cause significant error
 Vibrational temperatures:     93.71   112.35   303.28   310.92   480.02
          (Kelvin)            489.11   529.66   565.58   683.56   790.04
                              849.18   883.20  1053.13  1140.64  1279.89
                             1516.33  1673.69  1801.32  1836.42  1873.09
                             1978.08  2014.38  2130.77  5081.80

 Zero-point correction=                           0.046663 (Hartree/Particle)
 Thermal correction to Energy=                    0.054663
 Thermal correction to Enthalpy=                  0.055607
 Thermal correction to Gibbs Free Energy=         0.013131
 Sum of electronic and zero-point Energies=           -689.279111
 Sum of electronic and thermal Energies=              -689.271112
 Sum of electronic and thermal Enthalpies=            -689.270167
 Sum of electronic and thermal Free Energies=         -689.312643

                     E (Thermal)             CV                S
                      KCal/Mol        Cal/Mol-Kelvin    Cal/Mol-Kelvin
 Total                   34.301             27.546             89.397
 Electronic               0.000              0.000              0.000
 Translational            0.889              2.981             40.886
 Rotational               0.889              2.981             28.661
 Vibrational             32.524             21.584             19.849
 Vibration     1          0.597              1.971              4.295
 Vibration     2          0.599              1.964              3.938
 Vibration     3          0.643              1.824              2.037
 Vibration     4          0.645              1.817              1.992
 Vibration     5          0.715              1.608              1.242
 Vibration     6          0.720              1.596              1.212
 Vibration     7          0.741              1.538              1.088
 Vibration     8          0.760              1.485              0.988
 Vibration     9          0.832              1.305              0.723
 Vibration    10          0.904              1.142              0.546
 Vibration    11          0.948              1.053              0.467
 Vibration    12          0.973              1.003              0.426

 Optimization completed.
    -- Stationary point found.
 Normal termination of Gaussian 16 at Sat May 24 00:30:24 2025.
