 Gaussian 16, Revision C.01,
 Gaussian 16:  ES64L-G16RevC.01  3-Jul-2019

 -----------------------------------------------------------------
 #P M062X/Def2TZVPP Symm(None) scf(xqc) pop(None) freq opt(CalcFC)
 -----------------------------------------------------------------

 ------------------------------
 Gaussian input prepared by ASE
 ------------------------------
 Symbolic Z-matrix:
 Charge =  0 Multiplicity = 1

 SCF Done:  E(RM062X) =  -689.327359330     A.U. after   14 cycles
 SCF Done:  E(RM062X) =  -689.327359369     A.U. after    8 cycles
 Optimization completed.
    -- Stationary point found.
 Normal termination of Gaussian 16 at Sat May 24 00:31:52 2025.

 ---------------------------------------------------------------------
 #P Geom=AllCheck Guess=TCheck SCRF=Check GenChk RM062X/def2TZVPP Freq
 ---------------------------------------------------------------------

 Structure from the checkpoint file:  "/tmp/Gau-129727.chk"
 ------------------------------
 Gaussian input prepared by ASE
 ------------------------------
 Charge =  0 Multiplicity = 1

                          Input orientation:
 ---------------------------------------------------------------------
 Center     Atomic      Atomic             Coordinates (Angstroms)
 Number     Number       Type             X           Y           Z
 ---------------------------------------------------------------------
      1          6           0        1.541074   -0.000197   -0.000561
      2          6           0       -0.000206    0.000063   -0.000222
      3          6           0       -0.529291   -0.648824    1.293172
      4          9           0       -1.851676   -0.589613    1.337274
      5          9           0       -0.156276   -1.916110    1.373125
      6          9           0       -0.036457    0.010342    2.342381
      7          9           0       -0.572784    1.213865   -0.103710
      8          9           0       -0.405294   -0.740807   -1.047670
      9          8           0        1.901956    1.234080    0.000373
     10          1           0        2.867777    1.284393   -0.005725
 ---------------------------------------------------------------------

 SCF Done:  E(RM062X) =  -689.327359369     A.U. after    1 cycles

 Isotropic polarizability for W=    0.000000       42.08 Bohr**3.
 End of Minotr F.D. properties file   721 does not exist.

                      1                      2                      3
                      A                      A                      A
 Frequencies --     45.6494                63.4457               205.5143
 Red. masses --      9.8042                14.9377                13.5788
 Frc consts  --      0.0120                 0.0354                 0.3379
 IR Inten    --      4.2831                 0.7483                 2.2931

                      4                      5                      6
                      A                      A                      A
 Frequencies --    216.6221               299.8852               334.4991
 Red. masses --     15.5305                10.7454                12.6561
 Frc consts  --      0.4294                 0.5694                 0.8343
 IR Inten    --      0.5309                 5.4817                 0.1735

                      7                      8                      9
                      A                      A                      A
 Frequencies --    371.4967               386.4174               477.1882
 Red. masses --     15.3217                13.9618                11.9779
 Frc consts  --      1.2459                 1.2283                 1.6070
 IR Inten    --      0.1529                 1.6448                 4.3035

                     10                     11                     12
                      A                      A                      A
 Frequencies --    549.4597               590.9673               609.6564
 Red. masses --     15.9569                12.8914                 9.4760
 Frc consts  --      2.8384                 2.6526                 2.0751
 IR Inten    --      4.3994                 2.5156                 1.4712

                     13                     14                     15
                      A                      A                      A
 Frequencies --    719.5242               799.9779               850.3754
 Red. masses --      6.8791                 9.8514                 1.3823
 Frc consts  --      2.0983                 3.7145                 0.5890
 IR Inten    --     49.1194                 6.1799                51.1625

                     16                     17                     18
                      A                      A                      A
 Frequencies --   1063.4628              1209.8854              1237.1304
 Red. masses --      7.2150                 5.9508                10.9897
 Frc consts  --      4.8077                 5.1323                 9.9098
 IR Inten    --    170.7161               202.6669               257.0848

                     19                     20                     21
                      A                      A                      A
 Frequencies --   1272.8118              1294.9287              1337.2483
 Red. masses --      9.8575                 7.8222                 1.7890
 Frc consts  --      9.4091                 7.7280                 1.8849
 IR Inten    --    196.3229               204.1980                63.6488

                     22                     23                     24
                      A                      A                      A
 Frequencies --   1391.7292              1471.7837              3783.0739
 Red. masses --      9.0878                 8.4869                 1.0667
 Frc consts  --     10.3709                10.8314                 8.9943
 IR Inten    --    150.0524                69.2229               170.4405

 - Thermochemistry -
 -------------------
 Temperature   298.150 Kelvin.  Pressure   1.00000 Atm.
 Atom     1 has atomic number  6 and mass  12.00000

 Molecular mass:   147.99476 amu.
 Principal axes and moments of inertia in atomic units:
                           1         2         3
     Eigenvalues --   759.663171257.588271371.49399
           X            0.64424   0.57371  -0.50578
           Y            0.54391   0.12124   0.83034
           Z           -0.53769   0.81004   0.23394
 This molecule is an asymmetric top.
 Rotational symmetry number  1.
 Warning -- assumption of classical behavior for rotation
           may cause significant error
 Rotational temperatures (Kelvin)      0.11402     0.06887     0.06315
 Rotational constants (GHZ):           2.37571     1.43508     1.31589
 Zero-point vibrational energy     123112.1 (Joules/Mol)
                                   29.42449 (Kcal/Mol)
 Warning -- explicit consideration of  12 degrees of freedom as
           vibrations may cause significant error
 Vibrational temperatures:     65.68    91.28   295.69   311.67   431.47
          (Kelvin)            481.27   534.50   555.97   686.57   790.55
                              850.27   877.16  1035.23  1150.99  1223.50
                             1530.09  1740.76  1779.95  1831.29  1863.11
                             1924.00  2002.39  2117.57  5443.00

 Zero-point correction=                           0.046891 (Hartree/Particle)
 Thermal correction to Energy=                    0.055028
 Thermal correction to Enthalpy=                  0.055972
 Thermal correction to Gibbs Free Energy=         0.012834
 Sum of electronic and zero-point Energies=           -689.280468
 Sum of electronic and thermal Energies=              -689.272332
 Sum of electronic and thermal Enthalpies=            -689.271388
 Sum of electronic and thermal Free Energies=         -689.314525

                     E (Thermal)             CV                S
                      KCal/Mol        Cal/Mol-Kelvin    Cal/Mol-Kelvin
 Total                   34.530             27.717             90.791
 Electronic               0.000              0.000              0.000
 Translational            0.889              2.981             40.886
 Rotational               0.889              2.981             28.662
 Vibrational             32.753             21.755             21.242
 Vibration     1          0.595              1.979              4.997
 Vibration     2          0.597              1.972              4.347
 Vibration     3          0.640              1.832              2.083
 Vibration     4          0.645              1.816              1.987
 Vibration     5          0.692              1.674              1.418
 Vibration     6          0.716              1.607              1.238
 Vibration     7          0.743              1.531              1.074
 Vibration     8          0.755              1.499              1.014
 Vibration     9          0.834              1.301              0.718
 Vibration    10          0.905              1.141              0.545
 Vibration    11          0.948              1.051              0.465
 Vibration    12          0.969              1.011              0.433

 Optimization completed.
    -- Stationary point found.
 Normal termination of Gaussian 16 at Sat May 24 00:33:59 2025.
