 Gaussian 16, Revision C.01,
 Gaussian 16:  ES64L-G16RevC.01  3-Jul-2019

 -----------------------------------------------------------------
 #P M062X/Def2TZVPP Symm(None) scf(xqc) pop(None) freq opt(CalcFC)
 -----------------------------------------------------------------

 ------------------------------
 Gaussian input prepared by ASE
 ------------------------------
 Symbolic Z-matrix:
 Charge =  0 Multiplicity = 1

 SCF Done:  E(RM062X) =  -689.316724115     A.U. after   13 cycles
 SCF Done:  E(RM062X) =  -689.325473678     A.U. after   17 cycles
 SCF Done:  E(RM062X) =  -689.325222205     A.U. after   15 cycles
 SCF Done:  E(RM062X) =  -689.326338661     A.U. after   13 cycles
 SCF Done:  E(RM062X) =  -689.326411820     A.U. after   13 cycles
 SCF Done:  E(RM062X) =  -689.326463694     A.U. after   12 cycles
 SCF Done:  E(RM062X) =  -689.326487740     A.U. after   12 cycles
 SCF Done:  E(RM062X) =  -689.326507486     A.U. after   11 cycles
 SCF Done:  E(RM062X) =  -689.326512359     A.U. after   11 cycles
 SCF Done:  E(RM062X) =  -689.326514838     A.U. after   11 cycles
 SCF Done:  E(RM062X) =  -689.326515318     A.U. after    9 cycles
 SCF Done:  E(RM062X) =  -689.326515347     A.U. after    8 cycles
 Optimization completed.
    -- Stationary point found.
 Normal termination of Gaussian 16 at Sat May 24 00:29:05 2025.

 ---------------------------------------------------------------------
 #P Geom=AllCheck Guess=TCheck SCRF=Check GenChk RM062X/def2TZVPP Freq
 ---------------------------------------------------------------------

 Structure from the checkpoint file:  "/tmp/Gau-8583.chk"
 ------------------------------
 Gaussian input prepared by ASE
 ------------------------------
 Charge =  0 Multiplicity = 1

                          Input orientation:
 ---------------------------------------------------------------------
 Center     Atomic      Atomic             Coordinates (Angstroms)
 Number     Number       Type             X           Y           Z
 ---------------------------------------------------------------------
      1          6           0        1.566824   -0.039700    0.046754
      2          6           0        0.027148    0.088276    0.015238
      3          6           0       -0.627140    1.479515   -0.086538
      4          9           0       -1.949979    1.369952   -0.100865
      5          9           0       -0.280993    2.230796    0.953728
      6          9           0       -0.245794    2.089258   -1.204340
      7          9           0       -0.395079   -0.627014   -1.041875
      8          9           0       -0.426935   -0.482046    1.144954
      9          8           0        2.062554    1.147884   -0.017532
     10          1           0        3.028216    1.097279    0.001012
 ---------------------------------------------------------------------

 SCF Done:  E(RM062X) =  -689.326515347     A.U. after    1 cycles

 Isotropic polarizability for W=    0.000000       42.30 Bohr**3.
 End of Minotr F.D. properties file   721 does not exist.

                      1                      2                      3
                      A                      A                      A
 Frequencies --     35.8200                94.4692               176.5689
 Red. masses --     13.3807                13.0851                 9.4733
 Frc consts  --      0.0101                 0.0688                 0.1740
 IR Inten    --      2.4574                 1.8168                 3.7180

                      4                      5                      6
                      A                      A                      A
 Frequencies --    219.3157               287.5292               355.0964
 Red. masses --     16.8309                13.0935                17.5074
 Frc consts  --      0.4770                 0.6378                 1.3007
 IR Inten    --      1.6121                 0.6272                 0.0682

                      7                      8                      9
                      A                      A                      A
 Frequencies --    374.2841               421.1808               446.1640
 Red. masses --     10.6809                13.3597                10.0539
 Frc consts  --      0.8816                 1.3963                 1.1792
 IR Inten    --      0.0334                 2.4588                 0.3990

                     10                     11                     12
                      A                      A                      A
 Frequencies --    519.8896               599.1355               621.9864
 Red. masses --     12.8294                14.4122                 8.5421
 Frc consts  --      2.0430                 3.0481                 1.9470
 IR Inten    --      9.9046                 2.3242                19.0465

                     13                     14                     15
                      A                      A                      A
 Frequencies --    687.9725               790.9855               853.3812
 Red. masses --     13.5731                14.3449                 1.2260
 Frc consts  --      3.7851                 5.2879                 0.5261
 IR Inten    --      7.8589                 9.3761                51.4575

                     16                     17                     18
                      A                      A                      A
 Frequencies --   1093.7972              1224.4201              1240.8642
 Red. masses --      5.8765                10.7707                 8.2584
 Frc consts  --      4.1423                 9.5138                 7.4920
 IR Inten    --    171.4939               168.3744               165.5968

                     19                     20                     21
                      A                      A                      A
 Frequencies --   1274.1090              1278.8497              1327.0185
 Red. masses --     12.5599                13.1478                 1.8261
 Frc consts  --     12.0129                12.6690                 1.8946
 IR Inten    --     88.0677               326.5648               204.7712

                     22                     23                     24
                      A                      A                      A
 Frequencies --   1413.0888              1462.1034              3781.2081
 Red. masses --      5.0998                 9.4839                 1.0667
 Frc consts  --      5.9999                11.9452                 8.9856
 IR Inten    --     82.0098                85.9048               172.3234

 - Thermochemistry -
 -------------------
 Temperature   298.150 Kelvin.  Pressure   1.00000 Atm.
 Atom     1 has atomic number  6 and mass  12.00000

 Molecular mass:   147.99476 amu.
 Principal axes and moments of inertia in atomic units:
                           1         2         3
     Eigenvalues --   876.547811052.609291285.80350
           X            0.85339   0.52097  -0.01785
           Y           -0.51897   0.85233   0.06488
           Z            0.04901  -0.04610   0.99773
 This molecule is an asymmetric top.
 Rotational symmetry number  1.
 Warning -- assumption of classical behavior for rotation
           may cause significant error
 Rotational temperatures (Kelvin)      0.09881     0.08228     0.06736
 Rotational constants (GHZ):           2.05892     1.71454     1.40359
 Zero-point vibrational energy     123091.2 (Joules/Mol)
                                   29.41950 (Kcal/Mol)
 Warning -- explicit consideration of  11 degrees of freedom as
           vibrations may cause significant error
 Vibrational temperatures:     51.54   135.92   254.04   315.55   413.69
          (Kelvin)            510.90   538.51   605.99   641.93   748.01
                              862.02   894.90   989.84  1138.05  1227.83
                             1573.73  1761.67  1785.33  1833.16  1839.98
                             1909.28  2033.12  2103.64  5440.32

 Zero-point correction=                           0.046883 (Hartree/Particle)
 Thermal correction to Energy=                    0.055022
 Thermal correction to Enthalpy=                  0.055967
 Thermal correction to Gibbs Free Energy=         0.012900
 Sum of electronic and zero-point Energies=           -689.279632
 Sum of electronic and thermal Energies=              -689.271493
 Sum of electronic and thermal Enthalpies=            -689.270549
 Sum of electronic and thermal Free Energies=         -689.313616

                     E (Thermal)             CV                S
                      KCal/Mol        Cal/Mol-Kelvin    Cal/Mol-Kelvin
 Total                   34.527             27.766             90.642
 Electronic               0.000              0.000              0.000
 Translational            0.889              2.981             40.886
 Rotational               0.889              2.981             28.563
 Vibrational             32.750             21.805             21.192
 Vibration     1          0.594              1.982              5.478
 Vibration     2          0.603              1.953              3.565
 Vibration     3          0.628              1.871              2.364
 Vibration     4          0.647              1.812              1.965
 Vibration     5          0.685              1.697              1.488
 Vibration     6          0.731              1.565              1.143
 Vibration     7          0.745              1.525              1.062
 Vibration     8          0.784              1.424              0.888
 Vibration     9          0.805              1.369              0.807
 Vibration    10          0.875              1.206              0.610
 Vibration    11          0.957              1.034              0.451

 Optimization completed.
    -- Stationary point found.
 Normal termination of Gaussian 16 at Sat May 24 00:31:44 2025.
