 Gaussian 16, Revision C.01,
 Gaussian 16:  ES64L-G16RevC.01  3-Jul-2019

 -----------------------------------------------------------------
 #P M062X/Def2TZVPP Symm(None) scf(xqc) pop(None) freq opt(CalcFC)
 -----------------------------------------------------------------

 ------------------------------
 Gaussian input prepared by ASE
 ------------------------------
 Symbolic Z-matrix:
 Charge =  0 Multiplicity = 1

 SCF Done:  E(RM062X) =  -689.293263387     A.U. after   15 cycles
 SCF Done:  E(RM062X) =  -689.324967829     A.U. after   16 cycles
 SCF Done:  E(RM062X) =  -689.325381037     A.U. after   14 cycles
 SCF Done:  E(RM062X) =  -689.322079420     A.U. after   16 cycles
 SCF Done:  E(RM062X) =  -689.325738966     A.U. after   14 cycles
 SCF Done:  E(RM062X) =  -689.325769604     A.U. after   11 cycles
 SCF Done:  E(RM062X) =  -689.325770146     A.U. after    9 cycles
 Optimization completed.
    -- Stationary point found.
 Normal termination of Gaussian 16 at Sat May 24 00:31:06 2025.

 ---------------------------------------------------------------------
 #P Geom=AllCheck Guess=TCheck SCRF=Check GenChk RM062X/def2TZVPP Freq
 ---------------------------------------------------------------------

 Structure from the checkpoint file:  "/tmp/Gau-16082.chk"
 ------------------------------
 Gaussian input prepared by ASE
 ------------------------------
 Charge =  0 Multiplicity = 1

                          Input orientation:
 ---------------------------------------------------------------------
 Center     Atomic      Atomic             Coordinates (Angstroms)
 Number     Number       Type             X           Y           Z
 ---------------------------------------------------------------------
      1          6           0        1.571529   -0.076900   -0.079017
      2          6           0        0.021612   -0.067818   -0.055169
      3          6           0       -0.517507   -0.612381    1.277236
      4          9           0       -1.838686   -0.520235    1.318901
      5          9           0       -0.170216   -1.875995    1.440356
      6          9           0       -0.006840    0.111776    2.273296
      7          9           0       -0.511189    1.178811   -0.218273
      8          9           0       -0.420742   -0.831433   -1.060568
      9          8           0        2.004275    1.119275   -0.215954
     10          1           0        1.306930    1.807527   -0.273558
 ---------------------------------------------------------------------

 SCF Done:  E(RM062X) =  -689.325770146     A.U. after    1 cycles

 Isotropic polarizability for W=    0.000000       42.19 Bohr**3.
 End of Minotr F.D. properties file   721 does not exist.

                      1                      2                      3
                      A                      A                      A
 Frequencies --     64.5042                76.6292               209.7863
 Red. masses --     15.9615                 7.6562                11.6357
 Frc consts  --      0.0391                 0.0265                 0.3017
 IR Inten    --      0.5024                 5.1711                 6.3597

                      4                      5                      6
                      A                      A                      A
 Frequencies --    215.8123               333.1805               340.2033
 Red. masses --     17.5648                13.3766                 8.5627
 Frc consts  --      0.4820                 0.8749                 0.5839
 IR Inten    --      4.0162                 9.3254                17.7397

                      7                      8                      9
                      A                      A                      A
 Frequencies --    368.0934               393.0641               474.9584
 Red. masses --     14.2250                 9.8360                12.0980
 Frc consts  --      1.1356                 0.8954                 1.6080
 IR Inten    --      3.6820                11.6010                15.1655

                     10                     11                     12
                      A                      A                      A
 Frequencies --    548.9026               590.2149               613.8736
 Red. masses --     15.2412                15.1036                10.9962
 Frc consts  --      2.7056                 3.0999                 2.4415
 IR Inten    --      6.8988                 3.3023                28.3334

                     13                     14                     15
                      A                      A                      A
 Frequencies --    732.0042               792.7037               891.2584
 Red. masses --      7.3278                12.3460                 1.3996
 Frc consts  --      2.3134                 4.5709                 0.6550
 IR Inten    --     36.4743                16.3478               113.4888

                     16                     17                     18
                      A                      A                      A
 Frequencies --   1053.8544              1163.2750              1251.3066
 Red. masses --      8.5752                12.7780                12.8433
 Frc consts  --      5.6112                10.1878                11.8483
 IR Inten    --     98.6833               140.2582               295.0785

                     19                     20                     21
                      A                      A                      A
 Frequencies --   1276.0598              1301.4445              1375.2870
 Red. masses --     11.7741                10.4544                 1.6037
 Frc consts  --     11.2958                10.4328                 1.7871
 IR Inten    --     97.7229               257.2740               240.7290

                     22                     23                     24
                      A                      A                      A
 Frequencies --   1399.1547              1480.8944              3533.7076
 Red. masses --      3.9737                11.6602                 1.0626
 Frc consts  --      4.5833                15.0662                 7.8176
 IR Inten    --     16.3742                75.4372                53.0069

 - Thermochemistry -
 -------------------
 Temperature   298.150 Kelvin.  Pressure   1.00000 Atm.
 Atom     1 has atomic number  6 and mass  12.00000

 Molecular mass:   147.99476 amu.
 Principal axes and moments of inertia in atomic units:
                           1         2         3
     Eigenvalues --   751.308681270.053331372.37552
           X            0.63691   0.58733  -0.49939
           Y            0.49905   0.17964   0.84775
           Z           -0.58762   0.78916   0.17870
 This molecule is an asymmetric top.
 Rotational symmetry number  1.
 Warning -- assumption of classical behavior for rotation
           may cause significant error
 Rotational temperatures (Kelvin)      0.11528     0.06820     0.06311
 Rotational constants (GHZ):           2.40213     1.42100     1.31505
 Zero-point vibrational energy     122498.6 (Joules/Mol)
                                   29.27788 (Kcal/Mol)
 Warning -- explicit consideration of  12 degrees of freedom as
           vibrations may cause significant error
 Vibrational temperatures:     92.81   110.25   301.84   310.51   479.37
          (Kelvin)            489.48   529.60   565.53   683.36   789.75
                              849.19   883.23  1053.19  1140.52  1282.32
                             1516.26  1673.69  1800.35  1835.97  1872.49
                             1978.73  2013.07  2130.68  5084.22

 Zero-point correction=                           0.046657 (Hartree/Particle)
 Thermal correction to Energy=                    0.054663
 Thermal correction to Enthalpy=                  0.055607
 Thermal correction to Gibbs Free Energy=         0.013099
 Sum of electronic and zero-point Energies=           -689.279113
 Sum of electronic and thermal Energies=              -689.271107
 Sum of electronic and thermal Enthalpies=            -689.270163
 Sum of electronic and thermal Free Energies=         -689.312671

                     E (Thermal)             CV                S
                      KCal/Mol        Cal/Mol-Kelvin    Cal/Mol-Kelvin
 Total                   34.302             27.549             89.466
 Electronic               0.000              0.000              0.000
 Translational            0.889              2.981             40.886
 Rotational               0.889              2.981             28.662
 Vibrational             32.524             21.587             19.918
 Vibration     1          0.597              1.971              4.314
 Vibration     2          0.599              1.965              3.975
 Vibration     3          0.642              1.826              2.046
 Vibration     4          0.645              1.817              1.994
 Vibration     5          0.715              1.609              1.245
 Vibration     6          0.720              1.595              1.211
 Vibration     7          0.741              1.538              1.088
 Vibration     8          0.760              1.485              0.988
 Vibration     9          0.832              1.306              0.724
 Vibration    10          0.904              1.142              0.546
 Vibration    11          0.948              1.053              0.467
 Vibration    12          0.973              1.003              0.426

 Optimization completed.
    -- Stationary point found.
 Normal termination of Gaussian 16 at Sat May 24 00:33:39 2025.
