 Gaussian 16, Revision C.01,
 Gaussian 16:  ES64L-G16RevC.01  3-Jul-2019

 -----------------------------------------------------------------
 #P M062X/Def2TZVPP Symm(None) scf(xqc) pop(None) freq opt(CalcFC)
 -----------------------------------------------------------------

 ------------------------------
 Gaussian input prepared by ASE
 ------------------------------
 Symbolic Z-matrix:
 Charge =  0 Multiplicity = 1

 SCF Done:  E(RM062X) =  -689.275863588     A.U. after   15 cycles
 SCF Done:  E(RM062X) =  -689.313795840     A.U. after   15 cycles
 SCF Done:  E(RM062X) =  -689.285173421     A.U. after   16 cycles
 SCF Done:  E(RM062X) =  -689.314172343     A.U. after   16 cycles
 SCF Done:  E(RM062X) =  -689.317920600     A.U. after   15 cycles
 SCF Done:  E(RM062X) =  -689.318163008     A.U. after   13 cycles
 SCF Done:  E(RM062X) =  -689.318189881     A.U. after   10 cycles
 SCF Done:  E(RM062X) =  -689.318198627     A.U. after   10 cycles
 SCF Done:  E(RM062X) =  -689.318215849     A.U. after   12 cycles
 SCF Done:  E(RM062X) =  -689.318239077     A.U. after   12 cycles
 SCF Done:  E(RM062X) =  -689.325724679     A.U. after   10 cycles
 SCF Done:  E(RM062X) =  -689.325736159     A.U. after   11 cycles
 SCF Done:  E(RM062X) =  -689.325743748     A.U. after   10 cycles
 SCF Done:  E(RM062X) =  -689.325756106     A.U. after   10 cycles
 SCF Done:  E(RM062X) =  -689.325765137     A.U. after    8 cycles
 SCF Done:  E(RM062X) =  -689.325768994     A.U. after   10 cycles
 SCF Done:  E(RM062X) =  -689.325770209     A.U. after    8 cycles
 SCF Done:  E(RM062X) =  -689.325771323     A.U. after    8 cycles
 SCF Done:  E(RM062X) =  -689.325771587     A.U. after    7 cycles
 Optimization completed.
    -- Stationary point found.
 Normal termination of Gaussian 16 at Sat May 24 00:38:36 2025.

 ---------------------------------------------------------------------
 #P Geom=AllCheck Guess=TCheck SCRF=Check GenChk RM062X/def2TZVPP Freq
 ---------------------------------------------------------------------

 Structure from the checkpoint file:  "/tmp/Gau-30109.chk"
 ------------------------------
 Gaussian input prepared by ASE
 ------------------------------
 Charge =  0 Multiplicity = 1

                          Input orientation:
 ---------------------------------------------------------------------
 Center     Atomic      Atomic             Coordinates (Angstroms)
 Number     Number       Type             X           Y           Z
 ---------------------------------------------------------------------
      1          6           0        1.470662    0.687634    0.775826
      2          6           0        0.086035    0.369420    0.156201
      3          6           0       -0.856976    1.579629    0.250116
      4          9           0       -2.005734    1.324545   -0.358999
      5          9           0       -1.099259    1.886455    1.511482
      6          9           0       -0.277779    2.620870   -0.348038
      7          9           0        0.154000    0.021292   -1.162506
      8          9           0       -0.446229   -0.662853    0.820052
      9          8           0        2.376315    0.579312   -0.121321
     10          1           0        2.048564    0.330283   -1.012268
 ---------------------------------------------------------------------

 SCF Done:  E(RM062X) =  -689.325771587     A.U. after    1 cycles

 Isotropic polarizability for W=    0.000000       42.17 Bohr**3.
 End of Minotr F.D. properties file   721 does not exist.

                      1                      2                      3
                      A                      A                      A
 Frequencies --     64.4240                76.2238               210.7747
 Red. masses --     16.2988                 7.5280                11.3544
 Frc consts  --      0.0399                 0.0258                 0.2972
 IR Inten    --      0.5346                 5.2850                 7.0803

                      4                      5                      6
                      A                      A                      A
 Frequencies --    214.6562               333.2183               340.1083
 Red. masses --     17.8900                13.2625                 8.4878
 Frc consts  --      0.4857                 0.8676                 0.5785
 IR Inten    --      3.3860                 9.4649                18.2089

                      7                      8                      9
                      A                      A                      A
 Frequencies --    367.9121               393.1183               474.7479
 Red. masses --     14.3362                 9.8113                12.0601
 Frc consts  --      1.1433                 0.8934                 1.6015
 IR Inten    --      3.5826                11.7056                15.2809

                     10                     11                     12
                      A                      A                      A
 Frequencies --    548.9414               590.2128               613.3772
 Red. masses --     15.2065                15.0849                10.9175
 Frc consts  --      2.6998                 3.0961                 2.4201
 IR Inten    --      6.9792                 3.3083                28.4166

                     13                     14                     15
                      A                      A                      A
 Frequencies --    731.9931               792.6286               887.1028
 Red. masses --      7.3080                12.3733                 1.4037
 Frc consts  --      2.3071                 4.5801                 0.6508
 IR Inten    --     36.5445                16.3675               111.8132

                     16                     17                     18
                      A                      A                      A
 Frequencies --   1053.6497              1162.9507              1251.8162
 Red. masses --      8.7160                12.7810                12.8570
 Frc consts  --      5.7011                10.1844                11.8705
 IR Inten    --     99.7970               140.6644               299.2213

                     19                     20                     21
                      A                      A                      A
 Frequencies --   1276.1147              1302.1381              1374.8995
 Red. masses --     11.7492                10.3927                 1.5702
 Frc consts  --     11.2729                10.3823                 1.7488
 IR Inten    --     93.5802               257.6121               237.0900

                     22                     23                     24
                      A                      A                      A
 Frequencies --   1399.7311              1482.5264              3532.6357
 Red. masses --      4.2068                11.7732                 1.0626
 Frc consts  --      4.8561                15.2458                 7.8127
 IR Inten    --     19.3120                76.2803                52.6487

 - Thermochemistry -
 -------------------
 Temperature   298.150 Kelvin.  Pressure   1.00000 Atm.
 Atom     1 has atomic number  6 and mass  12.00000

 Molecular mass:   147.99476 amu.
 Principal axes and moments of inertia in atomic units:
                           1         2         3
     Eigenvalues --   751.221891270.374641372.55799
           X            0.87924   0.45911   0.12708
           Y           -0.46103   0.88725  -0.01567
           Z           -0.11994  -0.04481   0.99177
 This molecule is an asymmetric top.
 Rotational symmetry number  1.
 Warning -- assumption of classical behavior for rotation
           may cause significant error
 Rotational temperatures (Kelvin)      0.11530     0.06818     0.06310
 Rotational constants (GHZ):           2.40241     1.42064     1.31487
 Zero-point vibrational energy     122473.1 (Joules/Mol)
                                   29.27177 (Kcal/Mol)
 Warning -- explicit consideration of  12 degrees of freedom as
           vibrations may cause significant error
 Vibrational temperatures:     92.69   109.67   303.26   308.84   479.43
          (Kelvin)            489.34   529.34   565.61   683.06   789.80
                              849.18   882.51  1053.17  1140.42  1276.34
                             1515.97  1673.23  1801.08  1836.04  1873.49
                             1978.17  2013.90  2133.02  5082.67

 Zero-point correction=                           0.046648 (Hartree/Particle)
 Thermal correction to Energy=                    0.054656
 Thermal correction to Enthalpy=                  0.055600
 Thermal correction to Gibbs Free Energy=         0.013083
 Sum of electronic and zero-point Energies=           -689.279124
 Sum of electronic and thermal Energies=              -689.271116
 Sum of electronic and thermal Enthalpies=            -689.270171
 Sum of electronic and thermal Free Energies=         -689.312688

                     E (Thermal)             CV                S
                      KCal/Mol        Cal/Mol-Kelvin    Cal/Mol-Kelvin
 Total                   34.297             27.557             89.485
 Electronic               0.000              0.000              0.000
 Translational            0.889              2.981             40.886
 Rotational               0.889              2.981             28.662
 Vibrational             32.520             21.595             19.936
 Vibration     1          0.597              1.971              4.317
 Vibration     2          0.599              1.965              3.986
 Vibration     3          0.643              1.824              2.037
 Vibration     4          0.645              1.819              2.004
 Vibration     5          0.715              1.609              1.244
 Vibration     6          0.720              1.595              1.212
 Vibration     7          0.741              1.538              1.088
 Vibration     8          0.760              1.485              0.988
 Vibration     9          0.831              1.306              0.724
 Vibration    10          0.904              1.142              0.546
 Vibration    11          0.948              1.053              0.467
 Vibration    12          0.973              1.004              0.427

 Optimization completed.
    -- Stationary point found.
 Normal termination of Gaussian 16 at Sat May 24 00:41:10 2025.
