 Gaussian 16, Revision C.01,
 Gaussian 16:  ES64L-G16RevC.01  3-Jul-2019

 -----------------------------------------------------------------
 #P M062X/Def2TZVPP Symm(None) scf(xqc) pop(None) freq opt(CalcFC)
 -----------------------------------------------------------------

 ------------------------------
 Gaussian input prepared by ASE
 ------------------------------
 Symbolic Z-matrix:
 Charge =  0 Multiplicity = 1

 SCF Done:  E(RM062X) =  -689.321341112     A.U. after   13 cycles
 SCF Done:  E(RM062X) =  -689.326799999     A.U. after   15 cycles
 SCF Done:  E(RM062X) =  -689.326359538     A.U. after   16 cycles
 SCF Done:  E(RM062X) =  -689.327260126     A.U. after   14 cycles
 SCF Done:  E(RM062X) =  -689.327349359     A.U. after   14 cycles
 SCF Done:  E(RM062X) =  -689.327363705     A.U. after    9 cycles
 SCF Done:  E(RM062X) =  -689.327365375     A.U. after   11 cycles
 Optimization completed.
    -- Stationary point found.
 Normal termination of Gaussian 16 at Sat May 24 00:28:33 2025.

 ---------------------------------------------------------------------
 #P Geom=AllCheck Guess=TCheck SCRF=Check GenChk RM062X/def2TZVPP Freq
 ---------------------------------------------------------------------

 Structure from the checkpoint file:  "/tmp/Gau-37573.chk"
 ------------------------------
 Gaussian input prepared by ASE
 ------------------------------
 Charge =  0 Multiplicity = 1

                          Input orientation:
 ---------------------------------------------------------------------
 Center     Atomic      Atomic             Coordinates (Angstroms)
 Number     Number       Type             X           Y           Z
 ---------------------------------------------------------------------
      1          6           0        1.528292    0.013544    0.051722
      2          6           0       -0.012560    0.015218    0.014840
      3          6           0       -0.513187   -0.787538   -1.201521
      4          9           0       -1.833526   -0.729180   -1.287457
      5          9           0        0.010988   -0.266028   -2.311350
      6          9           0       -0.147351   -2.056329   -1.113600
      7          9           0       -0.444617   -0.591044    1.135455
      8          9           0       -0.583325    1.232802   -0.045144
      9          8           0        1.894244    1.237941   -0.091703
     10          1           0        2.859865    1.287308   -0.069038
 ---------------------------------------------------------------------

 SCF Done:  E(RM062X) =  -689.327365375     A.U. after    1 cycles

 Isotropic polarizability for W=    0.000000       42.09 Bohr**3.
 End of Minotr F.D. properties file   721 does not exist.

                      1                      2                      3
                      A                      A                      A
 Frequencies --     47.1430                65.2504               205.7244
 Red. masses --      9.7781                14.9573                13.7350
 Frc consts  --      0.0128                 0.0375                 0.3425
 IR Inten    --      4.2702                 0.7505                 2.3293

                      4                      5                      6
                      A                      A                      A
 Frequencies --    217.5782               300.2053               334.8648
 Red. masses --     15.2582                10.7895                12.6704
 Frc consts  --      0.4256                 0.5729                 0.8371
 IR Inten    --      0.4757                 5.5400                 0.1757

                      7                      8                      9
                      A                      A                      A
 Frequencies --    371.6320               386.3560               477.2637
 Red. masses --     15.2942                13.9636                11.9615
 Frc consts  --      1.2445                 1.2281                 1.6053
 IR Inten    --      0.1581                 1.6560                 4.2694

                     10                     11                     12
                      A                      A                      A
 Frequencies --    549.6916               591.0924               609.5134
 Red. masses --     15.9158                12.9051                 9.4332
 Frc consts  --      2.8335                 2.6566                 2.0648
 IR Inten    --      4.4127                 2.5032                 1.4383

                     13                     14                     15
                      A                      A                      A
 Frequencies --    719.8475               799.9970               849.2012
 Red. masses --      6.8743                 9.8248                 1.3836
 Frc consts  --      2.0987                 3.7047                 0.5879
 IR Inten    --     49.1083                 6.2084                51.2977

                     16                     17                     18
                      A                      A                      A
 Frequencies --   1063.0949              1209.6478              1237.0430
 Red. masses --      7.2466                 5.9553                11.0608
 Frc consts  --      4.8253                 5.1342                 9.9725
 IR Inten    --    171.3709               201.9904               259.0009

                     19                     20                     21
                      A                      A                      A
 Frequencies --   1272.7359              1295.1943              1337.5101
 Red. masses --      9.8786                 7.7881                 1.7874
 Frc consts  --      9.4281                 7.6975                 1.8840
 IR Inten    --    194.1188               203.4672                63.9761

                     22                     23                     24
                      A                      A                      A
 Frequencies --   1391.6061              1473.2792              3783.3705
 Red. masses --      9.0196                 8.5514                 1.0667
 Frc consts  --     10.2913                10.9360                 8.9957
 IR Inten    --    150.1399                70.1325               170.6271

 - Thermochemistry -
 -------------------
 Temperature   298.150 Kelvin.  Pressure   1.00000 Atm.
 Atom     1 has atomic number  6 and mass  12.00000

 Molecular mass:   147.99476 amu.
 Principal axes and moments of inertia in atomic units:
                           1         2         3
     Eigenvalues --   759.770801257.733941371.70990
           X            0.63333  -0.59354  -0.49659
           Y            0.60525  -0.01998   0.79579
           Z            0.48226   0.80455  -0.34658
 This molecule is an asymmetric top.
 Rotational symmetry number  1.
 Warning -- assumption of classical behavior for rotation
           may cause significant error
 Rotational temperatures (Kelvin)      0.11400     0.06887     0.06314
 Rotational constants (GHZ):           2.37538     1.43491     1.31569
 Zero-point vibrational energy     123148.6 (Joules/Mol)
                                   29.43323 (Kcal/Mol)
 Warning -- explicit consideration of  12 degrees of freedom as
           vibrations may cause significant error
 Vibrational temperatures:     67.83    93.88   295.99   313.05   431.93
          (Kelvin)            481.80   534.70   555.88   686.68   790.88
                              850.45   876.95  1035.70  1151.02  1221.81
                             1529.56  1740.41  1779.83  1831.18  1863.50
                             1924.38  2002.21  2119.72  5443.43

 Zero-point correction=                           0.046905 (Hartree/Particle)
 Thermal correction to Energy=                    0.055032
 Thermal correction to Enthalpy=                  0.055976
 Thermal correction to Gibbs Free Energy=         0.012902
 Sum of electronic and zero-point Energies=           -689.280461
 Sum of electronic and thermal Energies=              -689.272333
 Sum of electronic and thermal Enthalpies=            -689.271389
 Sum of electronic and thermal Free Energies=         -689.314464

                     E (Thermal)             CV                S
                      KCal/Mol        Cal/Mol-Kelvin    Cal/Mol-Kelvin
 Total                   34.533             27.713             90.658
 Electronic               0.000              0.000              0.000
 Translational            0.889              2.981             40.886
 Rotational               0.889              2.981             28.662
 Vibrational             32.756             21.751             21.109
 Vibration     1          0.595              1.979              4.934
 Vibration     2          0.597              1.971              4.292
 Vibration     3          0.640              1.832              2.081
 Vibration     4          0.646              1.814              1.979
 Vibration     5          0.693              1.673              1.416
 Vibration     6          0.716              1.606              1.237
 Vibration     7          0.743              1.530              1.073
 Vibration     8          0.755              1.499              1.014
 Vibration     9          0.834              1.300              0.717
 Vibration    10          0.905              1.140              0.545
 Vibration    11          0.949              1.051              0.465
 Vibration    12          0.968              1.012              0.434

                           ! Non-Optimized Parameters !
 Normal termination of Gaussian 16 at Sat May 24 00:31:06 2025.
