 Gaussian 16, Revision C.01,
 Gaussian 16:  ES64L-G16RevC.01  3-Jul-2019

 -----------------------------------------------------------------
 #P M062X/Def2TZVPP Symm(None) scf(xqc) pop(None) freq opt(CalcFC)
 -----------------------------------------------------------------

 ------------------------------
 Gaussian input prepared by ASE
 ------------------------------
 Symbolic Z-matrix:
 Charge =  0 Multiplicity = 1

 SCF Done:  E(RM062X) =  -689.293177195     A.U. after   13 cycles
 SCF Done:  E(RM062X) =  -689.324676425     A.U. after   15 cycles
 SCF Done:  E(RM062X) =  -689.323858691     A.U. after   14 cycles
 SCF Done:  E(RM062X) =  -689.325551256     A.U. after   13 cycles
 SCF Done:  E(RM062X) =  -689.325685710     A.U. after   11 cycles
 SCF Done:  E(RM062X) =  -689.325752880     A.U. after   12 cycles
 SCF Done:  E(RM062X) =  -689.325767035     A.U. after   11 cycles
 SCF Done:  E(RM062X) =  -689.325768617     A.U. after   10 cycles
 Optimization completed.
    -- Stationary point found.
 Normal termination of Gaussian 16 at Sat May 24 00:33:19 2025.

 ---------------------------------------------------------------------
 #P Geom=AllCheck Guess=TCheck SCRF=Check GenChk RM062X/def2TZVPP Freq
 ---------------------------------------------------------------------

 Structure from the checkpoint file:  "/tmp/Gau-125910.chk"
 ------------------------------
 Gaussian input prepared by ASE
 ------------------------------
 Charge =  0 Multiplicity = 1

                          Input orientation:
 ---------------------------------------------------------------------
 Center     Atomic      Atomic             Coordinates (Angstroms)
 Number     Number       Type             X           Y           Z
 ---------------------------------------------------------------------
      1          6           0        1.589531   -0.029410    0.121613
      2          6           0        0.040246    0.004737    0.090889
      3          6           0       -0.555727   -0.711340    1.313440
      4          9           0       -1.875799   -0.596915    1.323923
      5          9           0       -0.236249   -1.992673    1.305813
      6          9           0       -0.068922   -0.147560    2.419031
      7          9           0       -0.469873    1.271516    0.085871
      8          9           0       -0.373793   -0.602087   -1.027053
      9          8           0        2.043047    1.165718    0.169869
     10          1           0        1.357138    1.867595    0.185053
 ---------------------------------------------------------------------

 SCF Done:  E(RM062X) =  -689.325768617     A.U. after    1 cycles

 Isotropic polarizability for W=    0.000000       42.17 Bohr**3.
 End of Minotr F.D. properties file   721 does not exist.

                      1                      2                      3
                      A                      A                      A
 Frequencies --     64.5908                75.3299               209.1454
 Red. masses --     16.2184                 7.5143                11.4265
 Frc consts  --      0.0399                 0.0251                 0.2945
 IR Inten    --      0.5308                 5.3419                 6.7418

                      4                      5                      6
                      A                      A                      A
 Frequencies --    215.4548               331.7017               338.8852
 Red. masses --     17.8136                13.0160                 8.3884
 Frc consts  --      0.4872                 0.8438                 0.5676
 IR Inten    --      3.6828                10.4242                18.0574

                      7                      8                      9
                      A                      A                      A
 Frequencies --    367.8903               392.1211               474.6923
 Red. masses --     14.3209                 9.9088                12.0643
 Frc consts  --      1.1420                 0.8977                 1.6017
 IR Inten    --      3.5932                11.2160                15.3240

                     10                     11                     12
                      A                      A                      A
 Frequencies --    548.9963               590.0014               613.5703
 Red. masses --     15.2053                15.0834                10.9053
 Frc consts  --      2.7001                 3.0935                 2.4189
 IR Inten    --      6.9493                 3.2867                28.5119

                     13                     14                     15
                      A                      A                      A
 Frequencies --    731.3612               792.5197               886.7808
 Red. masses --      7.2352                12.3645                 1.4050
 Frc consts  --      2.2802                 4.5756                 0.6509
 IR Inten    --     36.6774                16.4180               111.4236

                     16                     17                     18
                      A                      A                      A
 Frequencies --   1053.4117              1162.9835              1251.8216
 Red. masses --      8.7187                12.7844                12.7935
 Frc consts  --      5.7003                10.1878                11.8120
 IR Inten    --     99.6903               140.9853               295.8047

                     19                     20                     21
                      A                      A                      A
 Frequencies --   1276.6539              1301.4786              1370.8795
 Red. masses --     11.6489                10.2035                 1.4915
 Frc consts  --     11.1861                10.1830                 1.6515
 IR Inten    --     95.0096               259.1135               227.1378

                     22                     23                     24
                      A                      A                      A
 Frequencies --   1398.5796              1481.7274              3528.7401
 Red. masses --      5.0564                11.6963                 1.0626
 Frc consts  --      5.8273                15.1299                 7.7957
 IR Inten    --     29.1489                75.5826                53.1637

 - Thermochemistry -
 -------------------
 Temperature   298.150 Kelvin.  Pressure   1.00000 Atm.
 Atom     1 has atomic number  6 and mass  12.00000

 Molecular mass:   147.99476 amu.
 Principal axes and moments of inertia in atomic units:
                           1         2         3
     Eigenvalues --   751.413191269.826541372.24798
           X            0.66512   0.55976  -0.49426
           Y            0.56479   0.05590   0.82334
           Z           -0.48850   0.82677   0.27896
 This molecule is an asymmetric top.
 Rotational symmetry number  1.
 Warning -- assumption of classical behavior for rotation
           may cause significant error
 Rotational temperatures (Kelvin)      0.11527     0.06821     0.06312
 Rotational constants (GHZ):           2.40180     1.42125     1.31517
 Zero-point vibrational energy     122373.9 (Joules/Mol)
                                   29.24806 (Kcal/Mol)
 Warning -- explicit consideration of  12 degrees of freedom as
           vibrations may cause significant error
 Vibrational temperatures:     92.93   108.38   300.91   309.99   477.24
          (Kelvin)            487.58   529.31   564.17   682.98   789.88
                              848.88   882.79  1052.27  1140.26  1275.88
                             1515.62  1673.27  1801.09  1836.82  1872.54
                             1972.39  2012.24  2131.88  5077.07

 Zero-point correction=                           0.046610 (Hartree/Particle)
 Thermal correction to Energy=                    0.054626
 Thermal correction to Enthalpy=                  0.055570
 Thermal correction to Gibbs Free Energy=         0.013032
 Sum of electronic and zero-point Energies=           -689.279159
 Sum of electronic and thermal Energies=              -689.271143
 Sum of electronic and thermal Enthalpies=            -689.270199
 Sum of electronic and thermal Free Energies=         -689.312736

                     E (Thermal)             CV                S
                      KCal/Mol        Cal/Mol-Kelvin    Cal/Mol-Kelvin
 Total                   34.278             27.570             89.528
 Electronic               0.000              0.000              0.000
 Translational            0.889              2.981             40.886
 Rotational               0.889              2.981             28.661
 Vibrational             32.501             21.609             19.980
 Vibration     1          0.597              1.971              4.312
 Vibration     2          0.599              1.965              4.009
 Vibration     3          0.642              1.827              2.051
 Vibration     4          0.645              1.817              1.997
 Vibration     5          0.714              1.612              1.252
 Vibration     6          0.719              1.598              1.217
 Vibration     7          0.740              1.538              1.089
 Vibration     8          0.760              1.487              0.992
 Vibration     9          0.831              1.306              0.725
 Vibration    10          0.904              1.142              0.546
 Vibration    11          0.947              1.053              0.467
 Vibration    12          0.973              1.003              0.427

 Optimization completed.
    -- Stationary point found.
 Normal termination of Gaussian 16 at Sat May 24 00:35:32 2025.
