 Gaussian 16, Revision C.01,
 Gaussian 16:  ES64L-G16RevC.01  3-Jul-2019

 -----------------------------------------------------------------
 #P M062X/Def2TZVPP Symm(None) scf(xqc) pop(None) freq opt(CalcFC)
 -----------------------------------------------------------------

 ------------------------------
 Gaussian input prepared by ASE
 ------------------------------
 Symbolic Z-matrix:
 Charge =  0 Multiplicity = 1

 SCF Done:  E(RM062X) =  -689.278140082     A.U. after   15 cycles
 SCF Done:  E(RM062X) =  -689.314475376     A.U. after   14 cycles
 SCF Done:  E(RM062X) =  -689.291004274     A.U. after   16 cycles
 SCF Done:  E(RM062X) =  -689.317783714     A.U. after   15 cycles
 SCF Done:  E(RM062X) =  -689.317928080     A.U. after   13 cycles
 SCF Done:  E(RM062X) =  -689.318226042     A.U. after   11 cycles
 SCF Done:  E(RM062X) =  -689.318241389     A.U. after   11 cycles
 SCF Done:  E(RM062X) =  -689.318261228     A.U. after   11 cycles
 SCF Done:  E(RM062X) =  -689.318547916     A.U. after   15 cycles
 SCF Done:  E(RM062X) =  -689.318900200     A.U. after   14 cycles
 SCF Done:  E(RM062X) =  -689.324301005     A.U. after   14 cycles
 SCF Done:  E(RM062X) =  -689.324751864     A.U. after   12 cycles
 SCF Done:  E(RM062X) =  -689.325299410     A.U. after   13 cycles
 SCF Done:  E(RM062X) =  -689.325440412     A.U. after   12 cycles
 SCF Done:  E(RM062X) =  -689.325589727     A.U. after   11 cycles
 SCF Done:  E(RM062X) =  -689.325673288     A.U. after   11 cycles
 SCF Done:  E(RM062X) =  -689.325733034     A.U. after   11 cycles
 SCF Done:  E(RM062X) =  -689.325757581     A.U. after   12 cycles
 SCF Done:  E(RM062X) =  -689.325765511     A.U. after   10 cycles
 Optimization completed.
    -- Stationary point found.
 Normal termination of Gaussian 16 at Sat May 24 00:33:23 2025.

 ---------------------------------------------------------------------
 #P Geom=AllCheck Guess=TCheck SCRF=Check GenChk RM062X/def2TZVPP Freq
 ---------------------------------------------------------------------

 Structure from the checkpoint file:  "/tmp/Gau-45437.chk"
 ------------------------------
 Gaussian input prepared by ASE
 ------------------------------
 Charge =  0 Multiplicity = 1

                          Input orientation:
 ---------------------------------------------------------------------
 Center     Atomic      Atomic             Coordinates (Angstroms)
 Number     Number       Type             X           Y           Z
 ---------------------------------------------------------------------
      1          6           0        1.563982    0.790358    0.435077
      2          6           0        0.112261    0.387221    0.070768
      3          6           0       -0.834860    1.595743    0.142029
      4          9           0       -2.053007    1.258817   -0.255979
      5          9           0       -0.900816    2.065515    1.374517
      6          9           0       -0.370510    2.550852   -0.663828
      7          9           0       -0.001742   -0.132262   -1.186837
      8          9           0       -0.294559   -0.550031    0.934310
      9          8           0        2.332735    0.569498   -0.563548
     10          1           0        1.885683    0.203922   -1.357161
 ---------------------------------------------------------------------

 SCF Done:  E(RM062X) =  -689.325765511     A.U. after    1 cycles

 Isotropic polarizability for W=    0.000000       42.19 Bohr**3.
 End of Minotr F.D. properties file   721 does not exist.

                      1                      2                      3
                      A                      A                      A
 Frequencies --     64.1095                77.1887               210.6588
 Red. masses --     16.2448                 7.5873                11.3752
 Frc consts  --      0.0393                 0.0266                 0.2974
 IR Inten    --      0.5160                 5.1366                 6.9235

                      4                      5                      6
                      A                      A                      A
 Frequencies --    214.8120               333.6082               339.7614
 Red. masses --     17.9034                13.2659                 8.4815
 Frc consts  --      0.4867                 0.8699                 0.5769
 IR Inten    --      3.4068                 9.2144                18.2577

                      7                      8                      9
                      A                      A                      A
 Frequencies --    367.7872               393.5130               474.4606
 Red. masses --     14.3860                 9.7940                12.0715
 Frc consts  --      1.1465                 0.8936                 1.6011
 IR Inten    --      3.5076                11.7946                15.2870

                     10                     11                     12
                      A                      A                      A
 Frequencies --    548.9490               590.0069               613.2005
 Red. masses --     15.2117                15.0767                10.9306
 Frc consts  --      2.7008                 3.0922                 2.4216
 IR Inten    --      6.9253                 3.3457                28.4560

                     13                     14                     15
                      A                      A                      A
 Frequencies --    731.7446               792.4602               888.0652
 Red. masses --      7.3074                12.3894                 1.4054
 Frc consts  --      2.3053                 4.5841                 0.6530
 IR Inten    --     36.4908                16.3215               112.0903

                     16                     17                     18
                      A                      A                      A
 Frequencies --   1053.1357              1162.2311              1251.4247
 Red. masses --      8.6194                12.7881                12.8321
 Frc consts  --      5.6324                10.1775                11.8402
 IR Inten    --     98.4868               141.2589               295.4055

                     19                     20                     21
                      A                      A                      A
 Frequencies --   1276.3406              1301.4749              1375.1470
 Red. masses --     11.7476                10.4651                 1.5828
 Frc consts  --     11.2754                10.4440                 1.7635
 IR Inten    --     96.6496               258.4467               238.7789

                     22                     23                     24
                      A                      A                      A
 Frequencies --   1399.3997              1481.8455              3531.7828
 Red. masses --      4.1011                11.7163                 1.0626
 Frc consts  --      4.7319                15.1581                 7.8090
 IR Inten    --     18.1399                75.9136                52.7728

 - Thermochemistry -
 -------------------
 Temperature   298.150 Kelvin.  Pressure   1.00000 Atm.
 Atom     1 has atomic number  6 and mass  12.00000

 Molecular mass:   147.99476 amu.
 Principal axes and moments of inertia in atomic units:
                           1         2         3
     Eigenvalues --   751.410961269.919381372.29305
           X            0.86329   0.42686   0.26928
           Y           -0.46928   0.87526   0.11701
           Z           -0.18574  -0.22739   0.95593
 This molecule is an asymmetric top.
 Rotational symmetry number  1.
 Warning -- assumption of classical behavior for rotation
           may cause significant error
 Rotational temperatures (Kelvin)      0.11527     0.06820     0.06312
 Rotational constants (GHZ):           2.40180     1.42115     1.31513
 Zero-point vibrational energy     122456.4 (Joules/Mol)
                                   29.26778 (Kcal/Mol)
 Warning -- explicit consideration of  12 degrees of freedom as
           vibrations may cause significant error
 Vibrational temperatures:     92.24   111.06   303.09   309.07   479.99
          (Kelvin)            488.84   529.16   566.18   682.64   789.82
                              848.89   882.26  1052.82  1140.17  1277.73
                             1515.23  1672.19  1800.52  1836.37  1872.53
                             1978.53  2013.42  2132.05  5081.45

 Zero-point correction=                           0.046641 (Hartree/Particle)
 Thermal correction to Energy=                    0.054649
 Thermal correction to Enthalpy=                  0.055593
 Thermal correction to Gibbs Free Energy=         0.013083
 Sum of electronic and zero-point Energies=           -689.279124
 Sum of electronic and thermal Energies=              -689.271117
 Sum of electronic and thermal Enthalpies=            -689.270173
 Sum of electronic and thermal Free Energies=         -689.312683

                     E (Thermal)             CV                S
                      KCal/Mol        Cal/Mol-Kelvin    Cal/Mol-Kelvin
 Total                   34.292             27.558             89.469
 Electronic               0.000              0.000              0.000
 Translational            0.889              2.981             40.886
 Rotational               0.889              2.981             28.661
 Vibrational             32.515             21.596             19.921
 Vibration     1          0.597              1.971              4.327
 Vibration     2          0.599              1.964              3.961
 Vibration     3          0.643              1.825              2.038
 Vibration     4          0.645              1.818              2.002
 Vibration     5          0.715              1.608              1.243
 Vibration     6          0.720              1.596              1.213
 Vibration     7          0.740              1.538              1.089
 Vibration     8          0.761              1.484              0.987
 Vibration     9          0.831              1.307              0.725
 Vibration    10          0.904              1.142              0.546
 Vibration    11          0.947              1.053              0.467
 Vibration    12          0.973              1.004              0.428

 Optimization completed.
    -- Stationary point found.
 Normal termination of Gaussian 16 at Sat May 24 00:35:49 2025.
