 Gaussian 16, Revision C.01,
 Gaussian 16:  ES64L-G16RevC.01  3-Jul-2019

 -----------------------------------------------------------------
 #P M062X/Def2TZVPP Symm(None) scf(xqc) pop(None) freq opt(CalcFC)
 -----------------------------------------------------------------

 ------------------------------
 Gaussian input prepared by ASE
 ------------------------------
 Symbolic Z-matrix:
 Charge =  0 Multiplicity = 2

 SCF Done:  E(UM062X) =  -763.973106683     A.U. after   26 cycles
 Optimization completed.
    -- Stationary point found.
 Normal termination of Gaussian 16 at Sat May 24 01:07:49 2025.

 ---------------------------------------------------------------------
 #P Geom=AllCheck Guess=TCheck SCRF=Check GenChk UM062X/def2TZVPP Freq
 ---------------------------------------------------------------------

 Structure from the checkpoint file:  "/tmp/Gau-23420.chk"
 ------------------------------
 Gaussian input prepared by ASE
 ------------------------------
 Charge =  0 Multiplicity = 2

                          Input orientation:
 ---------------------------------------------------------------------
 Center     Atomic      Atomic             Coordinates (Angstroms)
 Number     Number       Type             X           Y           Z
 ---------------------------------------------------------------------
      1          6           0        1.536354    0.048263    0.004518
      2          8           0        2.220768   -0.864039    0.341402
      3          6           0       -0.015388    0.010035   -0.001895
      4          6           0       -0.596631    0.337945    1.390408
      5          9           0       -1.917393    0.337829    1.335032
      6          9           0       -0.195950   -0.558711    2.275574
      7          9           0       -0.176741    1.539907    1.769198
      8          9           0       -0.496032    0.906589   -0.875128
      9          9           0       -0.409690   -1.211002   -0.353044
     10          8           0        2.002965    1.216520   -0.387167
 ---------------------------------------------------------------------

 SCF Done:  E(UM062X) =  -763.973106683     A.U. after    1 cycles

 Isotropic polarizability for W=    0.000000       42.60 Bohr**3.
 End of Minotr F.D. properties file   721 does not exist.

                      1                      2                      3
                      A                      A                      A
 Frequencies --     29.0505                64.2323               140.2491
 Red. masses --     16.6252                17.9287                16.9247
 Frc consts  --      0.0083                 0.0436                 0.1961
 IR Inten    --      0.9320                 0.2804                 1.2894

                      4                      5                      6
                      A                      A                      A
 Frequencies --    211.4763               236.5834               286.2879
 Red. masses --     17.9966                17.8266                18.1869
 Frc consts  --      0.4742                 0.5879                 0.8782
 IR Inten    --      3.7162                 1.0319                 3.6871

                      7                      8                      9
                      A                      A                      A
 Frequencies --    326.0169               365.0599               382.4651
 Red. masses --     16.7941                18.2740                17.3701
 Frc consts  --      1.0517                 1.4349                 1.4970
 IR Inten    --      2.8574                 0.1383                 0.7628

                     10                     11                     12
                      A                      A                      A
 Frequencies --    481.4838               535.3387               576.6010
 Red. masses --     16.4086                17.1404                15.7601
 Frc consts  --      2.2412                 2.8942                 3.0872
 IR Inten    --     14.1937                18.6079                16.8135

                     13                     14                     15
                      A                      A                      A
 Frequencies --    600.5646               628.9068               761.2450
 Red. masses --     16.0270                16.4895                14.1419
 Frc consts  --      3.4058                 3.8426                 4.8284
 IR Inten    --     28.8680                19.8501                 1.7915

                     16                     17                     18
                      A                      A                      A
 Frequencies --    788.5205              1054.2604              1200.4942
 Red. masses --     17.3013                13.4639                13.5681
 Frc consts  --      6.3380                 8.8169                11.5210
 IR Inten    --     10.2098               111.6460               128.1514

                     19                     20                     21
                      A                      A                      A
 Frequencies --   1232.1951              1288.8231              1296.8283
 Red. masses --     13.0775                13.2595                12.7735
 Frc consts  --     11.6986                12.9767                12.6568
 IR Inten    --    146.9879               318.1237                52.5943

                     22                     23                     24
                      A                      A                      A
 Frequencies --   1307.5569              1385.3013              1838.4702
 Red. masses --     13.0454                12.6196                13.3578
 Frc consts  --     13.1410                14.2687                26.6010
 IR Inten    --    208.1394               114.7874               193.3912

 - Thermochemistry -
 -------------------
 Temperature   298.150 Kelvin.  Pressure   1.00000 Atm.
 Atom     1 has atomic number  6 and mass  12.00000

 Molecular mass:   162.98185 amu.
 Principal axes and moments of inertia in atomic units:
                           1         2         3
     Eigenvalues --   939.647061520.815121552.15057
           X            0.84762   0.51250   0.13741
           Y           -0.07133  -0.14656   0.98663
           Z           -0.52579   0.84609   0.08767
 This molecule is an asymmetric top.
 Rotational symmetry number  1.
 Warning -- assumption of classical behavior for rotation
           may cause significant error
 Rotational temperatures (Kelvin)      0.09218     0.05695     0.05580
 Rotational constants (GHZ):           1.92066     1.18669     1.16274
 Zero-point vibrational energy     101790.3 (Joules/Mol)
                                   24.32847 (Kcal/Mol)
 Warning -- explicit consideration of  13 degrees of freedom as
           vibrations may cause significant error
 Vibrational temperatures:     41.80    92.42   201.79   304.27   340.39
          (Kelvin)            411.90   469.07   525.24   550.28   692.75
                              770.23   829.60   864.08   904.86  1095.26
                             1134.51  1516.85  1727.24  1772.85  1854.33
                             1865.85  1881.28  1993.14  2645.15

 Zero-point correction=                           0.038770 (Hartree/Particle)
 Thermal correction to Energy=                    0.047686
 Thermal correction to Enthalpy=                  0.048630
 Thermal correction to Gibbs Free Energy=         0.002610
 Sum of electronic and zero-point Energies=           -763.934337
 Sum of electronic and thermal Energies=              -763.925421
 Sum of electronic and thermal Enthalpies=            -763.924477
 Sum of electronic and thermal Free Energies=         -763.970497

                     E (Thermal)             CV                S
                      KCal/Mol        Cal/Mol-Kelvin    Cal/Mol-Kelvin
 Total                   29.923             30.037             96.857
 Electronic               0.000              0.000              1.377
 Translational            0.889              2.981             41.174
 Rotational               0.889              2.981             29.185
 Vibrational             28.146             24.076             25.121
 Vibration     1          0.593              1.984              5.893
 Vibration     2          0.597              1.971              4.323
 Vibration     3          0.615              1.913              2.800
 Vibration     4          0.643              1.823              2.031
 Vibration     5          0.655              1.785              1.828
 Vibration     6          0.684              1.699              1.496
 Vibration     7          0.710              1.623              1.280
 Vibration     8          0.738              1.544              1.100
 Vibration     9          0.752              1.508              1.029
 Vibration    10          0.838              1.291              0.706
 Vibration    11          0.890              1.172              0.575
 Vibration    12          0.933              1.082              0.492
 Vibration    13          0.959              1.031              0.449

 Optimization completed.
    -- Stationary point found.
 Normal termination of Gaussian 16 at Sat May 24 01:11:57 2025.
