 Gaussian 16, Revision C.01,
 Gaussian 16:  ES64L-G16RevC.01  3-Jul-2019

 ----------------------------------------------------------------------
 #P M062X/Def2TZVPP Symm(None) scf(xqc) pop(None) opt(NoFreeze,TS,CalcA
 ll,NoEigentest,MaxCycle=999)
 ----------------------------------------------------------------------

 ------------------------------
 Gaussian input prepared by ASE
 ------------------------------
 Symbolic Z-matrix:
 Charge =  0 Multiplicity = 1

 SCF Done:  E(RM062X) =  -764.510286253     A.U. after   18 cycles
 SCF Done:  E(RM062X) =  -764.517211879     A.U. after   13 cycles
 SCF Done:  E(RM062X) =  -764.523025791     A.U. after   15 cycles
 SCF Done:  E(RM062X) =  -764.527334231     A.U. after   15 cycles
 SCF Done:  E(RM062X) =  -764.528857956     A.U. after   14 cycles
 SCF Done:  E(RM062X) =  -764.529090932     A.U. after   13 cycles
 SCF Done:  E(RM062X) =  -764.529099424     A.U. after   11 cycles

 Isotropic polarizability for W=    0.000000       51.13 Bohr**3.
 End of Minotr F.D. properties file   721 does not exist.

 Optimization completed.
    -- Stationary point found.

                          Input orientation:
 ---------------------------------------------------------------------
 Center     Atomic      Atomic             Coordinates (Angstroms)
 Number     Number       Type             X           Y           Z
 ---------------------------------------------------------------------
      1          6           0        1.355148    0.103124   -0.016258
      2          8           0        1.990206   -0.640051   -0.770546
      3          6           0       -0.184188   -0.086906    0.097788
      4          6           0        1.569032   -0.368912    1.619832
      5          9           0        0.896901    0.352393    2.518707
      6          9           0        1.265192   -1.647833    1.800480
      7          9           0        2.856093   -0.194515    1.820868
      8          9           0       -0.974737    0.707714    0.682972
      9          9           0       -0.686649   -1.233071   -0.051821
     10          8           0        1.562086    1.484199    0.020844
     11          1           0        2.346133    1.617174   -0.524509
 ---------------------------------------------------------------------

 ******    1 imaginary frequencies (negative Signs) ******

                      1                      2                      3
                      A                      A                      A
 Frequencies --   -302.0890                47.8257               109.5057
 Red. masses --      8.5956                18.1481                14.8093
 Frc consts  --      0.4622                 0.0245                 0.1046
 IR Inten    --     90.0068                 0.2198                 1.8539

                      4                      5                      6
                      A                      A                      A
 Frequencies --    157.3232               200.9430               213.8596
 Red. masses --     12.3335                14.8447                14.9387
 Frc consts  --      0.1799                 0.3532                 0.4025
 IR Inten    --      3.1578                 0.5872                 1.5946

                      7                      8                      9
                      A                      A                      A
 Frequencies --    267.1715               284.8610               332.9531
 Red. masses --      3.2089                 2.6907                13.8613
 Frc consts  --      0.1350                 0.1286                 0.9054
 IR Inten    --     16.7973                42.2807                10.3427

                     10                     11                     12
                      A                      A                      A
 Frequencies --    363.8048               475.9916               515.6704
 Red. masses --      3.4165                14.3932                 9.5299
 Frc consts  --      0.2664                 1.9213                 1.4931
 IR Inten    --     16.1226                 4.7784                18.9928

                     13                     14                     15
                      A                      A                      A
 Frequencies --    550.1157               589.1219               631.2288
 Red. masses --      7.1486                15.6774                 9.2978
 Frc consts  --      1.2746                 3.2058                 2.1828
 IR Inten    --     54.7611                 3.8255                42.6703

                     16                     17                     18
                      A                      A                      A
 Frequencies --    676.4717               753.9285               762.9067
 Red. masses --     12.0320                15.5643                 9.6981
 Frc consts  --      3.2440                 5.2124                 3.3257
 IR Inten    --      0.5354                25.2454                 8.1446

                     19                     20                     21
                      A                      A                      A
 Frequencies --   1026.8760              1094.9236              1247.7016
 Red. masses --      5.7584                13.7253                12.9365
 Frc consts  --      3.5776                 9.6948                11.8656
 IR Inten    --    287.1340               395.2429               182.2512

                     22                     23                     24
                      A                      A                      A
 Frequencies --   1284.8997              1309.5480              1440.9233
 Red. masses --      2.4416                 3.5907                11.4678
 Frc consts  --      2.3750                 3.6280                14.0285
 IR Inten    --     42.2900               197.7482               272.0097

                     25                     26                     27
                      A                      A                      A
 Frequencies --   1481.6139              1585.9328              3852.9475
 Red. masses --     12.2591                 8.2132                 1.0654
 Frc consts  --     15.8554                12.1711                 9.3186
 IR Inten    --    272.9005               472.0656               130.8287

 - Thermochemistry -
 -------------------
 Temperature   298.150 Kelvin.  Pressure   1.00000 Atm.
 Atom     1 has atomic number  6 and mass  12.00000

 Molecular mass:   163.98967 amu.
 Principal axes and moments of inertia in atomic units:
                           1         2         3
     Eigenvalues --  1032.165231415.509561523.27895
           X            0.86725  -0.46913  -0.16674
           Y           -0.04600  -0.40897   0.91139
           Z            0.49575   0.78273   0.37626
 This molecule is an asymmetric top.
 Rotational symmetry number  1.
 Warning -- assumption of classical behavior for rotation
           may cause significant error
 Rotational temperatures (Kelvin)      0.08391     0.06119     0.05686
 Rotational constants (GHZ):           1.74850     1.27498     1.18477
    1 imaginary frequencies ignored.
 Zero-point vibrational energy     127157.4 (Joules/Mol)
                                   30.39134 (Kcal/Mol)
 Warning -- explicit consideration of  13 degrees of freedom as
           vibrations may cause significant error
 Vibrational temperatures:     68.81   157.55   226.35   289.11   307.70
          (Kelvin)            384.40   409.85   479.05   523.43   684.85
                              741.93   791.49   847.61   908.20   973.29
                             1084.74  1097.65  1477.45  1575.35  1795.16
                             1848.68  1884.15  2073.17  2131.71  2281.80
                             5543.53

 Zero-point correction=                           0.048432 (Hartree/Particle)
 Thermal correction to Energy=                    0.057548
 Thermal correction to Enthalpy=                  0.058492
 Thermal correction to Gibbs Free Energy=         0.013545
 Sum of electronic and zero-point Energies=           -764.480668
 Sum of electronic and thermal Energies=              -764.471551
 Sum of electronic and thermal Enthalpies=            -764.470607
 Sum of electronic and thermal Free Energies=         -764.515554

                     E (Thermal)             CV                S
                      KCal/Mol        Cal/Mol-Kelvin    Cal/Mol-Kelvin
 Total                   36.112             31.359             94.599
 Electronic               0.000              0.000              0.000
 Translational            0.889              2.981             41.192
 Rotational               0.889              2.981             29.188
 Vibrational             34.335             25.397             24.219
 Vibration     1          0.595              1.978              4.905
 Vibration     2          0.606              1.942              3.278
 Vibration     3          0.621              1.894              2.582
 Vibration     4          0.638              1.839              2.124
 Vibration     5          0.644              1.820              2.010
 Vibration     6          0.672              1.733              1.614
 Vibration     7          0.683              1.702              1.504
 Vibration     8          0.715              1.610              1.246
 Vibration     9          0.737              1.547              1.106
 Vibration    10          0.833              1.303              0.721
 Vibration    11          0.871              1.215              0.620
 Vibration    12          0.905              1.139              0.544
 Vibration    13          0.946              1.055              0.469

 Normal termination of Gaussian 16 at Sat May 24 05:29:17 2025.
