 Gaussian 16, Revision C.01,
 Gaussian 16:  ES64L-G16RevC.01  3-Jul-2019

 -----------------------------------------------------------------
 #P M062X/Def2TZVPP Symm(None) scf(xqc) pop(None) freq opt(CalcFC)
 -----------------------------------------------------------------

 ------------------------------
 Gaussian input prepared by ASE
 ------------------------------
 Symbolic Z-matrix:
 Charge =  0 Multiplicity = 1

 SCF Done:  E(RM062X) =  -764.496166596     A.U. after   14 cycles
 SCF Done:  E(RM062X) =  -764.538771553     A.U. after   14 cycles
 SCF Done:  E(RM062X) =  -764.512145964     A.U. after   14 cycles
 SCF Done:  E(RM062X) =  -764.548374783     A.U. after   14 cycles
 SCF Done:  E(RM062X) =  -764.534902938     A.U. after   14 cycles
 SCF Done:  E(RM062X) =  -764.557579485     A.U. after   13 cycles
 SCF Done:  E(RM062X) =  -764.569444759     A.U. after   14 cycles
 SCF Done:  E(RM062X) =  -764.450186504     A.U. after   15 cycles
 SCF Done:  E(RM062X) =  -764.567188928     A.U. after   14 cycles
 SCF Done:  E(RM062X) =  -764.576810865     A.U. after   11 cycles
 SCF Done:  E(RM062X) =  -764.591579432     A.U. after   12 cycles
 SCF Done:  E(RM062X) =  -764.591511342     A.U. after   12 cycles
 SCF Done:  E(RM062X) =  -764.591716703     A.U. after   11 cycles
 SCF Done:  E(RM062X) =  -764.591719934     A.U. after    8 cycles
 SCF Done:  E(RM062X) =  -764.591722089     A.U. after    7 cycles
 SCF Done:  E(RM062X) =  -764.591724809     A.U. after    8 cycles
 SCF Done:  E(RM062X) =  -764.591728826     A.U. after    8 cycles
 SCF Done:  E(RM062X) =  -764.591732016     A.U. after    9 cycles
 SCF Done:  E(RM062X) =  -764.591733093     A.U. after    7 cycles
 Optimization completed.
    -- Stationary point found.
 Normal termination of Gaussian 16 at Sat May 24 05:09:48 2025.

 ---------------------------------------------------------------------
 #P Geom=AllCheck Guess=TCheck SCRF=Check GenChk RM062X/def2TZVPP Freq
 ---------------------------------------------------------------------

 Structure from the checkpoint file:  "/tmp/Gau-243872.chk"
 ------------------------------
 Gaussian input prepared by ASE
 ------------------------------
 Charge =  0 Multiplicity = 1

                          Input orientation:
 ---------------------------------------------------------------------
 Center     Atomic      Atomic             Coordinates (Angstroms)
 Number     Number       Type             X           Y           Z
 ---------------------------------------------------------------------
      1          6           0        0.441803   -0.548380   -0.766568
      2          8           0        1.620762   -0.010055   -0.451085
      3          6           0        1.432188    2.415050   -1.026426
      4          6           0        1.831462    1.292441   -0.001261
      5          9           0        2.348570    3.372081   -1.004214
      6          9           0        1.210742    1.512369    1.154704
      7          9           0        3.139831    1.371648    0.205379
      8          9           0        1.375103    1.913723   -2.253190
      9          9           0        0.266099    2.958099   -0.724359
     10          8           0       -0.486076    0.362717   -0.604522
     11          1           0       -1.333407   -0.026732   -0.844228
 ---------------------------------------------------------------------

 SCF Done:  E(RM062X) =  -764.591733093     A.U. after    1 cycles

 Isotropic polarizability for W=    0.000000       46.07 Bohr**3.
 End of Minotr F.D. properties file   721 does not exist.

                      1                      2                      3
                      A                      A                      A
 Frequencies --     47.3238               111.4059               175.5670
 Red. masses --     14.8215                 8.8437                10.8257
 Frc consts  --      0.0196                 0.0647                 0.1966
 IR Inten    --      0.3462                 3.2556                 2.8137

                      4                      5                      6
                      A                      A                      A
 Frequencies --    221.1056               260.3080               283.7494
 Red. masses --      9.6480                18.0663                13.2401
 Frc consts  --      0.2779                 0.7213                 0.6281
 IR Inten    --      0.8043                 1.1595                 0.7417

                      7                      8                      9
                      A                      A                      A
 Frequencies --    361.6816               374.5134               399.7266
 Red. masses --     17.1896                16.8034                12.5120
 Frc consts  --      1.3249                 1.3886                 1.1779
 IR Inten    --      0.9434                 0.4569                 0.7162

                     10                     11                     12
                      A                      A                      A
 Frequencies --    486.5305               521.7656               594.1891
 Red. masses --     13.3128                14.0871                13.2982
 Frc consts  --      1.8567                 2.2596                 2.7663
 IR Inten    --      5.1616                 7.6885                 0.9744

                     13                     14                     15
                      A                      A                      A
 Frequencies --    605.8506               700.0688               728.5953
 Red. masses --     16.6541                 3.6715                 1.5598
 Frc consts  --      3.6017                 1.0602                 0.4879
 IR Inten    --      1.3063                83.3425                33.8144

                     16                     17                     18
                      A                      A                      A
 Frequencies --    792.9460               814.9549              1082.8118
 Red. masses --      9.1194                10.7584                13.3735
 Frc consts  --      3.3784                 4.2098                 9.2385
 IR Inten    --     22.7317                 9.2512               289.7986

                     19                     20                     21
                      A                      A                      A
 Frequencies --   1134.4099              1199.4599              1272.8198
 Red. masses --      2.6501                 9.2320                10.3777
 Frc consts  --      2.0094                 7.8256                 9.9057
 IR Inten    --    180.9533               295.7594               232.9567

                     22                     23                     24
                      A                      A                      A
 Frequencies --   1288.9363              1296.0054              1340.6318
 Red. masses --     13.0132                12.9812                10.3117
 Frc consts  --     12.7379                12.8464                10.9194
 IR Inten    --    133.7416               106.5940               470.5432

                     25                     26                     27
                      A                      A                      A
 Frequencies --   1371.0349              1392.3028              3868.3724
 Red. masses --      2.3686                10.5862                 1.0667
 Frc consts  --      2.6233                12.0908                 9.4050
 IR Inten    --    193.9069                 6.5701               206.1094

 - Thermochemistry -
 -------------------
 Temperature   298.150 Kelvin.  Pressure   1.00000 Atm.
 Atom     1 has atomic number  6 and mass  12.00000

 Molecular mass:   163.98967 amu.
 Principal axes and moments of inertia in atomic units:
                           1         2         3
     Eigenvalues --   975.388501301.161091586.78948
           X            0.47897   0.72245  -0.49865
           Y            0.86292  -0.28323   0.41852
           Z           -0.16113   0.63075   0.75907
 This molecule is an asymmetric top.
 Rotational symmetry number  1.
 Warning -- assumption of classical behavior for rotation
           may cause significant error
 Rotational temperatures (Kelvin)      0.08880     0.06657     0.05458
 Rotational constants (GHZ):           1.85028     1.38702     1.13735
 Zero-point vibrational energy     135938.0 (Joules/Mol)
                                   32.48997 (Kcal/Mol)
 Warning -- explicit consideration of  13 degrees of freedom as
           vibrations may cause significant error
 Vibrational temperatures:     68.09   160.29   252.60   318.12   374.53
          (Kelvin)            408.25   520.38   538.84   575.12   700.01
                              750.70   854.91   871.68  1007.24  1048.29
                             1140.87  1172.54  1557.92  1632.16  1725.76
                             1831.30  1854.49  1864.66  1928.87  1972.61
                             2003.21  5565.73

 Zero-point correction=                           0.051776 (Hartree/Particle)
 Thermal correction to Energy=                    0.060455
 Thermal correction to Enthalpy=                  0.061399
 Thermal correction to Gibbs Free Energy=         0.017409
 Sum of electronic and zero-point Energies=           -764.539957
 Sum of electronic and thermal Energies=              -764.531278
 Sum of electronic and thermal Enthalpies=            -764.530334
 Sum of electronic and thermal Free Energies=         -764.574324

                     E (Thermal)             CV                S
                      KCal/Mol        Cal/Mol-Kelvin    Cal/Mol-Kelvin
 Total                   37.936             30.568             92.585
 Electronic               0.000              0.000              0.000
 Translational            0.889              2.981             41.192
 Rotational               0.889              2.981             29.089
 Vibrational             36.158             24.606             22.304
 Vibration     1          0.595              1.979              4.926
 Vibration     2          0.607              1.940              3.244
 Vibration     3          0.628              1.872              2.375
 Vibration     4          0.648              1.809              1.950
 Vibration     5          0.668              1.745              1.660
 Vibration     6          0.682              1.704              1.511
 Vibration     7          0.736              1.551              1.115
 Vibration     8          0.746              1.524              1.061
 Vibration     9          0.766              1.471              0.964
 Vibration    10          0.843              1.280              0.693
 Vibration    11          0.877              1.202              0.606
 Vibration    12          0.952              1.044              0.460
 Vibration    13          0.964              1.019              0.440

                           ! Non-Optimized Parameters !
 Normal termination of Gaussian 16 at Sat May 24 05:13:19 2025.
