 Gaussian 16, Revision C.01,
 Gaussian 16:  ES64L-G16RevC.01  3-Jul-2019

 -----------------------------------------------------------------
 #P M062X/Def2TZVPP Symm(None) scf(xqc) pop(None) freq opt(CalcFC)
 -----------------------------------------------------------------

 ------------------------------
 Gaussian input prepared by ASE
 ------------------------------
 Symbolic Z-matrix:
 Charge =  0 Multiplicity = 1

 SCF Done:  E(RM062X) =  -764.529378546     A.U. after   13 cycles
 SCF Done:  E(RM062X) =  -764.560525267     A.U. after   14 cycles
 SCF Done:  E(RM062X) =  -764.538776527     A.U. after   15 cycles
 SCF Done:  E(RM062X) =  -764.563906970     A.U. after   14 cycles
 SCF Done:  E(RM062X) =  -764.588937518     A.U. after   13 cycles
 SCF Done:  E(RM062X) =  -764.587163478     A.U. after   12 cycles
 SCF Done:  E(RM062X) =  -764.590911016     A.U. after   12 cycles
 SCF Done:  E(RM062X) =  -764.591187296     A.U. after   12 cycles
 SCF Done:  E(RM062X) =  -764.591567200     A.U. after   12 cycles
 SCF Done:  E(RM062X) =  -764.591686161     A.U. after   11 cycles
 SCF Done:  E(RM062X) =  -764.591726712     A.U. after    8 cycles
 SCF Done:  E(RM062X) =  -764.591759472     A.U. after    9 cycles
 SCF Done:  E(RM062X) =  -764.591825292     A.U. after   10 cycles
 SCF Done:  E(RM062X) =  -764.591922645     A.U. after   11 cycles
 SCF Done:  E(RM062X) =  -764.591987496     A.U. after   10 cycles
 SCF Done:  E(RM062X) =  -764.592019226     A.U. after   11 cycles
 SCF Done:  E(RM062X) =  -764.592024247     A.U. after   11 cycles
 SCF Done:  E(RM062X) =  -764.592025479     A.U. after    8 cycles
 SCF Done:  E(RM062X) =  -764.592026229     A.U. after    8 cycles
 Optimization completed.
    -- Stationary point found.
 Normal termination of Gaussian 16 at Sat May 24 05:00:30 2025.

 ---------------------------------------------------------------------
 #P Geom=AllCheck Guess=TCheck SCRF=Check GenChk RM062X/def2TZVPP Freq
 ---------------------------------------------------------------------

 Structure from the checkpoint file:  "/tmp/Gau-71944.chk"
 ------------------------------
 Gaussian input prepared by ASE
 ------------------------------
 Charge =  0 Multiplicity = 1

                          Input orientation:
 ---------------------------------------------------------------------
 Center     Atomic      Atomic             Coordinates (Angstroms)
 Number     Number       Type             X           Y           Z
 ---------------------------------------------------------------------
      1          6           0       -0.010627   -0.123488    0.289941
      2          8           0        1.306077    0.081956    0.149655
      3          6           0        2.280950    1.869142    1.506734
      4          6           0        1.993281    1.290688    0.099236
      5          9           0        3.000038    2.975524    1.384642
      6          9           0        3.167421    1.014027   -0.460456
      7          9           0        1.383921    2.207065   -0.646073
      8          9           0        1.159553    2.157567    2.149177
      9          9           0        2.965032    0.984509    2.216070
     10          8           0       -0.623572    1.024456    0.408822
     11          1           0       -1.563092    0.839579    0.511190
 ---------------------------------------------------------------------

 SCF Done:  E(RM062X) =  -764.592026229     A.U. after    1 cycles

 Isotropic polarizability for W=    0.000000       46.36 Bohr**3.
 End of Minotr F.D. properties file   721 does not exist.

                      1                      2                      3
                      A                      A                      A
 Frequencies --     42.9360               107.0278               163.8712
 Red. masses --     14.4411                 8.7644                13.4607
 Frc consts  --      0.0157                 0.0592                 0.2130
 IR Inten    --      0.6914                 3.2990                 2.2497

                      4                      5                      6
                      A                      A                      A
 Frequencies --    219.6044               228.7298               264.7820
 Red. masses --     15.8430                10.0664                13.5869
 Frc consts  --      0.4502                 0.3103                 0.5612
 IR Inten    --      1.7269                 1.8343                 1.6572

                      7                      8                      9
                      A                      A                      A
 Frequencies --    344.4569               360.9925               401.8751
 Red. masses --     15.9445                15.3288                13.2582
 Frc consts  --      1.1146                 1.1769                 1.2616
 IR Inten    --      0.5482                 0.5846                 0.8980

                     10                     11                     12
                      A                      A                      A
 Frequencies --    469.4460               518.7125               597.1055
 Red. masses --     15.1891                14.1687                13.1315
 Frc consts  --      1.9722                 2.2461                 2.7585
 IR Inten    --      2.2939                 7.7160                 2.1942

                     13                     14                     15
                      A                      A                      A
 Frequencies --    604.0932               701.1213               729.4619
 Red. masses --     17.3808                 4.9873                 1.3666
 Frc consts  --      3.7370                 1.4444                 0.4284
 IR Inten    --      1.9486                83.4285                42.2597

                     16                     17                     18
                      A                      A                      A
 Frequencies --    787.9115               814.4935              1089.3820
 Red. masses --      8.5107                13.8301                 8.0932
 Frc consts  --      3.1130                 5.4057                 5.6589
 IR Inten    --     22.5046                 8.4122               234.2585

                     19                     20                     21
                      A                      A                      A
 Frequencies --   1121.3893              1200.9565              1276.8649
 Red. masses --      3.5725                 8.9463                10.1579
 Frc consts  --      2.6469                 7.6024                 9.7576
 IR Inten    --    304.5769               240.7425               140.8618

                     22                     23                     24
                      A                      A                      A
 Frequencies --   1291.5833              1293.1249              1350.6274
 Red. masses --     12.1597                13.1272                 7.7142
 Frc consts  --     11.9514                12.9331                 8.2911
 IR Inten    --    176.3222               227.9239               454.5781

                     25                     26                     27
                      A                      A                      A
 Frequencies --   1368.2607              1428.1411              3866.6503
 Red. masses --      2.2225                12.1486                 1.0666
 Frc consts  --      2.4515                14.5988                 9.3958
 IR Inten    --    197.2978                15.6196               204.2997

 - Thermochemistry -
 -------------------
 Temperature   298.150 Kelvin.  Pressure   1.00000 Atm.
 Atom     1 has atomic number  6 and mass  12.00000

 Molecular mass:   163.98967 amu.
 Principal axes and moments of inertia in atomic units:
                           1         2         3
     Eigenvalues --   920.258741437.658891646.93013
           X            0.81726  -0.50755  -0.27289
           Y            0.41863   0.19748   0.88643
           Z            0.39602   0.83868  -0.37387
 This molecule is an asymmetric top.
 Rotational symmetry number  1.
 Warning -- assumption of classical behavior for rotation
           may cause significant error
 Rotational temperatures (Kelvin)      0.09412     0.06025     0.05259
 Rotational constants (GHZ):           1.96112     1.25533     1.09582
 Zero-point vibrational energy     135438.8 (Joules/Mol)
                                   32.37065 (Kcal/Mol)
 Warning -- explicit consideration of  13 degrees of freedom as
           vibrations may cause significant error
 Vibrational temperatures:     61.78   153.99   235.77   315.96   329.09
          (Kelvin)            380.96   495.60   519.39   578.21   675.43
                              746.31   859.10   869.16  1008.76  1049.53
                             1133.63  1171.87  1567.38  1613.43  1727.91
                             1837.12  1858.30  1860.52  1943.25  1968.62
                             2054.78  5563.25

 Zero-point correction=                           0.051586 (Hartree/Particle)
 Thermal correction to Energy=                    0.060420
 Thermal correction to Enthalpy=                  0.061364
 Thermal correction to Gibbs Free Energy=         0.016891
 Sum of electronic and zero-point Energies=           -764.540440
 Sum of electronic and thermal Energies=              -764.531606
 Sum of electronic and thermal Enthalpies=            -764.530662
 Sum of electronic and thermal Free Energies=         -764.575135

                     E (Thermal)             CV                S
                      KCal/Mol        Cal/Mol-Kelvin    Cal/Mol-Kelvin
 Total                   37.914             30.768             93.600
 Electronic               0.000              0.000              0.000
 Translational            0.889              2.981             41.192
 Rotational               0.889              2.981             29.167
 Vibrational             36.137             24.806             23.241
 Vibration     1          0.595              1.980              5.119
 Vibration     2          0.606              1.944              3.322
 Vibration     3          0.623              1.887              2.505
 Vibration     4          0.647              1.811              1.962
 Vibration     5          0.651              1.797              1.889
 Vibration     6          0.671              1.738              1.630
 Vibration     7          0.723              1.587              1.191
 Vibration     8          0.735              1.553              1.118
 Vibration     9          0.767              1.466              0.956
 Vibration    10          0.827              1.318              0.739
 Vibration    11          0.874              1.209              0.613
 Vibration    12          0.955              1.038              0.455
 Vibration    13          0.963              1.023              0.443

 Optimization completed.
    -- Stationary point found.
 Normal termination of Gaussian 16 at Sat May 24 05:03:58 2025.
