 Gaussian 16, Revision C.01,
 Gaussian 16:  ES64L-G16RevC.01  3-Jul-2019

 ----------------------------------------------------------------------
 #P M062X/Def2TZVPP Symm(None) scf(xqc) pop(None) opt(NoFreeze,TS,CalcA
 ll,NoEigentest,MaxCycle=999)
 ----------------------------------------------------------------------

 ------------------------------
 Gaussian input prepared by ASE
 ------------------------------
 Symbolic Z-matrix:
 Charge =  0 Multiplicity = 1

 SCF Done:  E(RM062X) =  -764.454963117     A.U. after   22 cycles

 Isotropic polarizability for W=    0.000000       57.65 Bohr**3.
 End of Minotr F.D. properties file   721 does not exist.

 Optimization completed.
    -- Stationary point found.

                          Input orientation:
 ---------------------------------------------------------------------
 Center     Atomic      Atomic             Coordinates (Angstroms)
 Number     Number       Type             X           Y           Z
 ---------------------------------------------------------------------
      1          6           0        2.460871    1.156114   -0.071532
      2          8           0        2.470743    1.823999    0.962821
      3          6           0        1.945939   -0.147715    0.014674
      4          6           0        1.621980   -0.940330    1.280952
      5          9           0        2.320549   -2.079399    1.203651
      6          9           0        1.941776   -0.324271    2.387936
      7          9           0        0.336425   -1.247189    1.279912
      8          9           0        0.565667    1.823621    0.957719
      9          9           0        1.707241   -0.817670   -1.054594
     10          8           0        2.693836    1.621973   -1.301554
     11          1           0        2.823908    2.577150   -1.242065
 ---------------------------------------------------------------------

 ******    1 imaginary frequencies (negative Signs) ******

                      1                      2                      3
                      A                      A                      A
 Frequencies --   -522.4800                44.6033                87.6585
 Red. masses --     15.6251                18.4936                15.8921
 Frc consts  --      2.5131                 0.0217                 0.0719
 IR Inten    --    315.2640                 1.2110                 2.7448

                      4                      5                      6
                      A                      A                      A
 Frequencies --    102.3357               193.6264               217.6323
 Red. masses --     11.5439                10.3387                11.1025
 Frc consts  --      0.0712                 0.2284                 0.3098
 IR Inten    --     10.6231                 3.5973                 7.7037

                      7                      8                      9
                      A                      A                      A
 Frequencies --    264.8539               286.7774               353.8885
 Red. masses --     16.2584                16.0918                 9.7271
 Frc consts  --      0.6720                 0.7797                 0.7177
 IR Inten    --      7.9242                54.9051                 1.3380

                     10                     11                     12
                      A                      A                      A
 Frequencies --    381.9638               400.6410               494.7092
 Red. masses --     12.7004                 1.2466                 9.6661
 Frc consts  --      1.0917                 0.1179                 1.3938
 IR Inten    --     10.5757                73.1713                52.1978

                     13                     14                     15
                      A                      A                      A
 Frequencies --    528.7299               589.0466               623.9618
 Red. masses --     14.2639                13.0491                12.0095
 Frc consts  --      2.3494                 2.6676                 2.7548
 IR Inten    --      6.4763                16.7698                 3.3339

                     16                     17                     18
                      A                      A                      A
 Frequencies --    678.1160               759.6847               805.5880
 Red. masses --      6.4335                12.2756                11.2601
 Frc consts  --      1.7430                 4.1741                 4.3054
 IR Inten    --     83.7096                 2.3206                 4.1928

                     19                     20                     21
                      A                      A                      A
 Frequencies --   1078.2750              1193.0397              1229.9790
 Red. masses --     13.0728                 2.6536                 7.9919
 Frc consts  --      8.9552                 2.2254                 7.1235
 IR Inten    --    319.5318               131.9542               157.6205

                     22                     23                     24
                      A                      A                      A
 Frequencies --   1312.1611              1344.6964              1431.5991
 Red. masses --      2.8997                10.0397                12.6302
 Frc consts  --      2.9415                10.6959                15.2512
 IR Inten    --     61.8600               300.1472               411.4437

                     25                     26                     27
                      A                      A                      A
 Frequencies --   1541.7424              1640.9339              3834.4561
 Red. masses --      7.4095                12.7349                 1.0652
 Frc consts  --     10.3768                20.2036                 9.2273
 IR Inten    --    208.9784               276.7956               170.5776

 - Thermochemistry -
 -------------------
 Temperature   298.150 Kelvin.  Pressure   1.00000 Atm.
 Atom     1 has atomic number  6 and mass  12.00000

 Molecular mass:   163.98967 amu.
 Principal axes and moments of inertia in atomic units:
                           1         2         3
     Eigenvalues --   952.481741596.918071945.48077
           X            0.17810  -0.29650   0.93828
           Y            0.86780   0.49685  -0.00772
           Z           -0.46389   0.81562   0.34579
 This molecule is an asymmetric top.
 Rotational symmetry number  1.
 Warning -- assumption of classical behavior for rotation
           may cause significant error
 Rotational temperatures (Kelvin)      0.09093     0.05424     0.04452
 Rotational constants (GHZ):           1.89478     1.13014     0.92766
    1 imaginary frequencies ignored.
 Zero-point vibrational energy     128124.2 (Joules/Mol)
                                   30.62243 (Kcal/Mol)
 Warning -- explicit consideration of  13 degrees of freedom as
           vibrations may cause significant error
 Vibrational temperatures:     64.17   126.12   147.24   278.59   313.12
          (Kelvin)            381.07   412.61   509.17   549.56   576.43
                              711.78   760.72   847.51   897.74   975.66
                             1093.02  1159.06  1551.40  1716.52  1769.67
                             1887.91  1934.72  2059.75  2218.22  2360.94
                             5516.93

 Zero-point correction=                           0.048800 (Hartree/Particle)
 Thermal correction to Energy=                    0.058095
 Thermal correction to Enthalpy=                  0.059039
 Thermal correction to Gibbs Free Energy=         0.013232
 Sum of electronic and zero-point Energies=           -764.406163
 Sum of electronic and thermal Energies=              -764.396868
 Sum of electronic and thermal Enthalpies=            -764.395924
 Sum of electronic and thermal Free Energies=         -764.441732

                     E (Thermal)             CV                S
                      KCal/Mol        Cal/Mol-Kelvin    Cal/Mol-Kelvin
 Total                   36.455             31.376             96.410
 Electronic               0.000              0.000              0.000
 Translational            0.889              2.981             41.192
 Rotational               0.889              2.981             29.472
 Vibrational             34.678             25.415             25.746
 Vibration     1          0.595              1.980              5.043
 Vibration     2          0.601              1.958              3.712
 Vibration     3          0.604              1.947              3.409
 Vibration     4          0.635              1.849              2.193
 Vibration     5          0.646              1.814              1.979
 Vibration     6          0.671              1.737              1.630
 Vibration     7          0.684              1.698              1.493
 Vibration     8          0.730              1.567              1.149
 Vibration     9          0.751              1.509              1.031
 Vibration    10          0.766              1.469              0.960
 Vibration    11          0.850              1.262              0.671
 Vibration    12          0.884              1.186              0.590
 Vibration    13          0.946              1.055              0.469

 Normal termination of Gaussian 16 at Sat May 24 07:36:36 2025.
