 Gaussian 16, Revision C.01,
 Gaussian 16:  ES64L-G16RevC.01  3-Jul-2019

 -----------------------------------------------------------------
 #P M062X/Def2TZVPP Symm(None) scf(xqc) pop(None) freq opt(CalcFC)
 -----------------------------------------------------------------

 ------------------------------
 Gaussian input prepared by ASE
 ------------------------------
 Symbolic Z-matrix:
 Charge =  0 Multiplicity = 1

 SCF Done:  E(RM062X) =  -764.481095392     A.U. after   15 cycles
 SCF Done:  E(RM062X) =  -764.490915773     A.U. after   14 cycles
 SCF Done:  E(RM062X) =  -764.489175252     A.U. after   13 cycles
 SCF Done:  E(RM062X) =  -764.491708540     A.U. after   14 cycles
 SCF Done:  E(RM062X) =  -764.491820888     A.U. after   11 cycles
 SCF Done:  E(RM062X) =  -764.491779309     A.U. after   14 cycles
 SCF Done:  E(RM062X) =  -764.491944397     A.U. after   13 cycles
 SCF Done:  E(RM062X) =  -764.491961136     A.U. after   12 cycles
 SCF Done:  E(RM062X) =  -764.491964633     A.U. after    9 cycles
 Optimization completed.
    -- Stationary point found.
 Normal termination of Gaussian 16 at Sat May 24 06:37:25 2025.

 ---------------------------------------------------------------------
 #P Geom=AllCheck Guess=TCheck SCRF=Check GenChk RM062X/def2TZVPP Freq
 ---------------------------------------------------------------------

 Structure from the checkpoint file:  "/tmp/Gau-273761.chk"
 ------------------------------
 Gaussian input prepared by ASE
 ------------------------------
 Charge =  0 Multiplicity = 1

                          Input orientation:
 ---------------------------------------------------------------------
 Center     Atomic      Atomic             Coordinates (Angstroms)
 Number     Number       Type             X           Y           Z
 ---------------------------------------------------------------------
      1          6           0        1.380246    0.030093   -0.078075
      2          8           0        0.111653    0.102499    0.358191
      3          6           0        1.984902   -1.152126   -0.172657
      4          6           0        1.419314   -2.534788   -0.026694
      5          9           0        1.808551   -3.283603   -1.060734
      6          9           0        1.884772   -3.120989    1.079398
      7          9           0        0.097708   -2.543312    0.020927
      8          9           0       -0.636955    0.655236   -0.712568
      9          9           0        3.304490   -1.162406   -0.405166
     10          8           0        1.962916    1.210639   -0.286920
     11          1           0        2.841799    1.086615   -0.663549
 ---------------------------------------------------------------------

 SCF Done:  E(RM062X) =  -764.491964633     A.U. after    1 cycles

 Isotropic polarizability for W=    0.000000       50.44 Bohr**3.
 End of Minotr F.D. properties file   721 does not exist.

                      1                      2                      3
                      A                      A                      A
 Frequencies --     27.0387                75.0255               107.9430
 Red. masses --     17.5786                17.7020                 8.9910
 Frc consts  --      0.0076                 0.0587                 0.0617
 IR Inten    --      0.5018                 0.8046                 1.6910

                      4                      5                      6
                      A                      A                      A
 Frequencies --    183.2347               222.6493               268.3153
 Red. masses --     14.1121                15.2543                 9.1822
 Frc consts  --      0.2792                 0.4455                 0.3895
 IR Inten    --      3.3619                 1.1370                 7.2654

                      7                      8                      9
                      A                      A                      A
 Frequencies --    315.2227               359.8924               373.6455
 Red. masses --      4.3542                 3.3114                 5.2238
 Frc consts  --      0.2549                 0.2527                 0.4297
 IR Inten    --     17.5502                33.0130                19.3150

                     10                     11                     12
                      A                      A                      A
 Frequencies --    382.3751               494.7390               513.2592
 Red. masses --      2.5461                16.2606                15.8772
 Frc consts  --      0.2193                 2.3450                 2.4643
 IR Inten    --     50.0537                 2.0271                 1.6003

                     13                     14                     15
                      A                      A                      A
 Frequencies --    604.8745               614.4271               683.9886
 Red. masses --     13.2400                15.9656                11.2722
 Frc consts  --      2.8541                 3.5512                 3.1071
 IR Inten    --      2.3970                 1.2978                 4.8170

                     16                     17                     18
                      A                      A                      A
 Frequencies --    756.3244               830.0298               952.6255
 Red. masses --     13.9244                13.3071                16.6650
 Frc consts  --      4.6929                 5.4016                 8.9104
 IR Inten    --     24.2026                22.9497                98.5578

                     19                     20                     21
                      A                      A                      A
 Frequencies --   1064.9513              1169.8109              1222.0428
 Red. masses --      6.9285                 2.7738                13.1315
 Frc consts  --      4.6297                 2.2365                11.5541
 IR Inten    --    127.3347               284.1258               295.4275

                     22                     23                     24
                      A                      A                      A
 Frequencies --   1272.4735              1286.6939              1407.7648
 Red. masses --      5.0706                 4.6475                 8.9759
 Frc consts  --      4.8373                 4.5334                10.4807
 IR Inten    --    298.6477               144.8443               125.2580

                     25                     26                     27
                      A                      A                      A
 Frequencies --   1426.4894              1822.2394              3851.4298
 Red. masses --      4.7711                11.4108                 1.0656
 Frc consts  --      5.7201                22.3243                 9.3129
 IR Inten    --    129.8436               151.5434               123.4269

 - Thermochemistry -
 -------------------
 Temperature   298.150 Kelvin.  Pressure   1.00000 Atm.
 Atom     1 has atomic number  6 and mass  12.00000

 Molecular mass:   163.98967 amu.
 Principal axes and moments of inertia in atomic units:
                           1         2         3
     Eigenvalues --   909.219251780.217652300.14200
           X           -0.31653   0.94780   0.03859
           Y            0.94575   0.31218   0.09005
           Z           -0.07330  -0.06500   0.99519
 This molecule is an asymmetric top.
 Rotational symmetry number  1.
 Warning -- assumption of classical behavior for rotation
           may cause significant error
 Rotational temperatures (Kelvin)      0.09526     0.04865     0.03766
 Rotational constants (GHZ):           1.98494     1.01378     0.78462
 Zero-point vibrational energy     133320.9 (Joules/Mol)
                                   31.86445 (Kcal/Mol)
 Warning -- explicit consideration of  14 degrees of freedom as
           vibrations may cause significant error
 Vibrational temperatures:     38.90   107.95   155.31   263.63   320.34
          (Kelvin)            386.05   453.54   517.80   537.59   550.15
                              711.82   738.47   870.28   884.02   984.11
                             1088.18  1194.23  1370.62  1532.23  1683.10
                             1758.25  1830.81  1851.27  2025.46  2052.40
                             2621.80  5541.35

 Zero-point correction=                           0.050779 (Hartree/Particle)
 Thermal correction to Energy=                    0.060168
 Thermal correction to Enthalpy=                  0.061112
 Thermal correction to Gibbs Free Energy=         0.014584
 Sum of electronic and zero-point Energies=           -764.441185
 Sum of electronic and thermal Energies=              -764.431796
 Sum of electronic and thermal Enthalpies=            -764.430852
 Sum of electronic and thermal Free Energies=         -764.477381

                     E (Thermal)             CV                S
                      KCal/Mol        Cal/Mol-Kelvin    Cal/Mol-Kelvin
 Total                   37.756             31.881             97.927
 Electronic               0.000              0.000              0.000
 Translational            0.889              2.981             41.192
 Rotational               0.889              2.981             29.700
 Vibrational             35.979             25.920             27.035
 Vibration     1          0.593              1.984              6.036
 Vibration     2          0.599              1.966              4.017
 Vibration     3          0.606              1.943              3.306
 Vibration     4          0.631              1.863              2.295
 Vibration     5          0.648              1.807              1.937
 Vibration     6          0.673              1.731              1.607
 Vibration     7          0.703              1.645              1.335
 Vibration     8          0.734              1.555              1.123
 Vibration     9          0.745              1.526              1.065
 Vibration    10          0.752              1.508              1.030
 Vibration    11          0.850              1.262              0.671
 Vibration    12          0.868              1.221              0.626
 Vibration    13          0.963              1.021              0.441
 Vibration    14          0.974              1.001              0.426

                           ! Non-Optimized Parameters !
 Normal termination of Gaussian 16 at Sat May 24 06:40:35 2025.
