 Gaussian 16, Revision C.01,
 Gaussian 16:  ES64L-G16RevC.01  3-Jul-2019

 -----------------------------------------------------------------
 #P M062X/Def2TZVPP Symm(None) scf(xqc) pop(None) freq opt(CalcFC)
 -----------------------------------------------------------------

 ------------------------------
 Gaussian input prepared by ASE
 ------------------------------
 Symbolic Z-matrix:
 Charge =  0 Multiplicity = 1

 SCF Done:  E(RM062X) =  -764.667396654     A.U. after   14 cycles
 SCF Done:  E(RM062X) =  -764.667923617     A.U. after   13 cycles
 SCF Done:  E(RM062X) =  -764.667923941     A.U. after   13 cycles
 SCF Done:  E(RM062X) =  -764.667955127     A.U. after   12 cycles
 SCF Done:  E(RM062X) =  -764.667955461     A.U. after    8 cycles
 SCF Done:  E(RM062X) =  -764.667955478     A.U. after    8 cycles
 Optimization completed.
    -- Stationary point found.
 Normal termination of Gaussian 16 at Fri May 23 23:27:43 2025.

 ---------------------------------------------------------------------
 #P Geom=AllCheck Guess=TCheck SCRF=Check GenChk RM062X/def2TZVPP Freq
 ---------------------------------------------------------------------

 Structure from the checkpoint file:  "/tmp/Gau-130695.chk"
 ------------------------------
 Gaussian input prepared by ASE
 ------------------------------
 Charge =  0 Multiplicity = 1

                          Input orientation:
 ---------------------------------------------------------------------
 Center     Atomic      Atomic             Coordinates (Angstroms)
 Number     Number       Type             X           Y           Z
 ---------------------------------------------------------------------
      1          6           0        1.551137   -0.002147   -0.041837
      2          8           0        2.214698   -0.976967   -0.202317
      3          6           0        0.010920    0.002028   -0.072061
      4          6           0       -0.592072   -1.393547   -0.328486
      5          9           0       -1.916101   -1.296117   -0.336385
      6          9           0       -0.194991   -1.861188   -1.501658
      7          9           0       -0.235342   -2.235186    0.629189
      8          9           0       -0.457674    0.448432    1.102513
      9          9           0       -0.414179    0.823867   -1.042836
     10          8           0        1.998075    1.227307    0.186035
     11          1           0        2.965026    1.203471    0.200547
 ---------------------------------------------------------------------

 SCF Done:  E(RM062X) =  -764.667955478     A.U. after    1 cycles

 Isotropic polarizability for W=    0.000000       43.69 Bohr**3.
 End of Minotr F.D. properties file   721 does not exist.

                      1                      2                      3
                      A                      A                      A
 Frequencies --     27.6434                88.7877               156.6540
 Red. masses --     12.2200                17.8689                12.5111
 Frc consts  --      0.0055                 0.0830                 0.1809
 IR Inten    --      1.7437                 0.0000                 0.1357

                      4                      5                      6
                      A                      A                      A
 Frequencies --    215.3504               249.2521               280.3753
 Red. masses --     15.0939                10.8015                14.1724
 Frc consts  --      0.4124                 0.3954                 0.6564
 IR Inten    --      1.7018                 0.1156                 5.8277

                      7                      8                      9
                      A                      A                      A
 Frequencies --    340.4832               363.1164               423.0025
 Red. masses --     13.3116                14.0994                11.7508
 Frc consts  --      0.9092                 1.0953                 1.2388
 IR Inten    --      0.2282                 0.4628                 0.0145

                     10                     11                     12
                      A                      A                      A
 Frequencies --    423.7034               544.4615               574.2262
 Red. masses --     16.6117                15.4944                 1.7635
 Frc consts  --      1.7571                 2.7062                 0.3426
 IR Inten    --      0.8203                11.7045                73.0548

                     13                     14                     15
                      A                      A                      A
 Frequencies --    608.7280               671.7948               696.6939
 Red. masses --      3.0763                 9.1986                 5.4802
 Frc consts  --      0.6716                 2.4459                 1.5672
 IR Inten    --     30.6159                16.5546               116.5582

                     16                     17                     18
                      A                      A                      A
 Frequencies --    793.5252               804.8345              1062.7515
 Red. masses --     11.2185                 9.7365                13.5936
 Frc consts  --      4.1620                 3.7159                 9.0458
 IR Inten    --      1.8170                32.7640               271.3225

                     19                     20                     21
                      A                      A                      A
 Frequencies --   1200.4360              1233.3685              1234.5280
 Red. masses --      3.6076                12.7985                 2.5648
 Frc consts  --      3.0630                11.4708                 2.3030
 IR Inten    --     44.4613               151.5362               207.5403

                     22                     23                     24
                      A                      A                      A
 Frequencies --   1284.5389              1301.1171              1417.9945
 Red. masses --     12.9209                13.1482                11.7229
 Frc consts  --     12.5614                13.1145                13.8879
 IR Inten    --    168.1861               307.3216                57.4752

                     25                     26                     27
                      A                      A                      A
 Frequencies --   1440.1926              1911.7681              3809.2657
 Red. masses --      4.7858                11.6874                 1.0646
 Frc consts  --      5.8485                25.1675                 9.1020
 IR Inten    --    105.1239               309.1092               132.1226

 - Thermochemistry -
 -------------------
 Temperature   298.150 Kelvin.  Pressure   1.00000 Atm.
 Atom     1 has atomic number  6 and mass  12.00000

 Molecular mass:   163.98967 amu.
 Principal axes and moments of inertia in atomic units:
                           1         2         3
     Eigenvalues --   884.960491502.723121748.08604
           X            0.76833  -0.63976  -0.01918
           Y            0.62759   0.75893  -0.17366
           Z            0.12566   0.12139   0.98462
 This molecule is an asymmetric top.
 Rotational symmetry number  1.
 Warning -- assumption of classical behavior for rotation
           may cause significant error
 Rotational temperatures (Kelvin)      0.09787     0.05764     0.04955
 Rotational constants (GHZ):           2.03935     1.20098     1.03241
 Zero-point vibrational energy     138519.1 (Joules/Mol)
                                   33.10687 (Kcal/Mol)
 Warning -- explicit consideration of  13 degrees of freedom as
           vibrations may cause significant error
 Vibrational temperatures:     39.77   127.75   225.39   309.84   358.62
          (Kelvin)            403.40   489.88   522.44   608.61   609.61
                              783.36   826.18   875.82   966.56  1002.39
                             1141.71  1157.98  1529.06  1727.16  1774.54
                             1776.21  1848.17  1872.02  2040.18  2072.12
                             2750.61  5480.68

 Zero-point correction=                           0.052759 (Hartree/Particle)
 Thermal correction to Energy=                    0.061657
 Thermal correction to Enthalpy=                  0.062601
 Thermal correction to Gibbs Free Energy=         0.017527
 Sum of electronic and zero-point Energies=           -764.615196
 Sum of electronic and thermal Energies=              -764.606299
 Sum of electronic and thermal Enthalpies=            -764.605354
 Sum of electronic and thermal Free Energies=         -764.650429

                     E (Thermal)             CV                S
                      KCal/Mol        Cal/Mol-Kelvin    Cal/Mol-Kelvin
 Total                   38.690             30.745             94.867
 Electronic               0.000              0.000              0.000
 Translational            0.889              2.981             41.192
 Rotational               0.889              2.981             29.232
 Vibrational             36.913             24.783             24.443
 Vibration     1          0.593              1.984              5.992
 Vibration     2          0.602              1.957              3.687
 Vibration     3          0.620              1.895              2.590
 Vibration     4          0.645              1.818              1.998
 Vibration     5          0.662              1.764              1.736
 Vibration     6          0.680              1.710              1.531
 Vibration     7          0.720              1.595              1.210
 Vibration     8          0.737              1.548              1.109
 Vibration     9          0.785              1.420              0.882
 Vibration    10          0.786              1.419              0.879
 Vibration    11          0.900              1.152              0.556
 Vibration    12          0.931              1.087              0.496
 Vibration    13          0.968              1.013              0.435

 Optimization completed.
    -- Stationary point found.
 Normal termination of Gaussian 16 at Fri May 23 23:31:25 2025.
