 Gaussian 16, Revision C.01,
 Gaussian 16:  ES64L-G16RevC.01  3-Jul-2019

 -----------------------------------------------------------------
 #P M062X/Def2TZVPP Symm(None) scf(xqc) pop(None) freq opt(CalcFC)
 -----------------------------------------------------------------

 ------------------------------
 Gaussian input prepared by ASE
 ------------------------------
 Symbolic Z-matrix:
 Charge =  0 Multiplicity = 1

 SCF Done:  E(RM062X) =  -764.653320760     A.U. after   13 cycles
 SCF Done:  E(RM062X) =  -764.662844669     A.U. after   13 cycles
 SCF Done:  E(RM062X) =  -764.664118354     A.U. after   13 cycles
 SCF Done:  E(RM062X) =  -764.664421711     A.U. after   13 cycles
 SCF Done:  E(RM062X) =  -764.664528348     A.U. after   13 cycles
 SCF Done:  E(RM062X) =  -764.664552791     A.U. after   11 cycles
 SCF Done:  E(RM062X) =  -764.664557447     A.U. after   11 cycles
 SCF Done:  E(RM062X) =  -764.664557640     A.U. after    8 cycles
 SCF Done:  E(RM062X) =  -764.664557652     A.U. after    7 cycles
 Optimization completed.
    -- Stationary point found.
 Normal termination of Gaussian 16 at Fri May 23 23:28:32 2025.

 ---------------------------------------------------------------------
 #P Geom=AllCheck Guess=TCheck SCRF=Check GenChk RM062X/def2TZVPP Freq
 ---------------------------------------------------------------------

 Structure from the checkpoint file:  "/tmp/Gau-215866.chk"
 ------------------------------
 Gaussian input prepared by ASE
 ------------------------------
 Charge =  0 Multiplicity = 1

                          Input orientation:
 ---------------------------------------------------------------------
 Center     Atomic      Atomic             Coordinates (Angstroms)
 Number     Number       Type             X           Y           Z
 ---------------------------------------------------------------------
      1          6           0        1.570886    0.050043    0.024155
      2          8           0        2.185267   -0.847806    0.493461
      3          6           0        0.021856    0.015892    0.003702
      4          6           0       -0.579827    0.317379    1.391040
      5          9           0       -1.899542    0.377957    1.309248
      6          9           0       -0.241088   -0.614298    2.261359
      7          9           0       -0.120532    1.495263    1.811770
      8          9           0       -0.454626    0.955699   -0.847842
      9          9           0       -0.401934   -1.179847   -0.398973
     10          8           0        2.119662    1.144608   -0.492419
     11          1           0        1.451624    1.736220   -0.859568
 ---------------------------------------------------------------------

 SCF Done:  E(RM062X) =  -764.664557652     A.U. after    1 cycles

 Isotropic polarizability for W=    0.000000       43.64 Bohr**3.
 End of Minotr F.D. properties file   721 does not exist.

                      1                      2                      3
                      A                      A                      A
 Frequencies --     28.8865                63.9814               143.4173
 Red. masses --      9.3407                14.8726                16.6755
 Frc consts  --      0.0046                 0.0359                 0.2021
 IR Inten    --      4.2513                 0.8687                 2.3321

                      4                      5                      6
                      A                      A                      A
 Frequencies --    214.7122               266.0866               293.0666
 Red. masses --     16.8779                13.3976                17.4802
 Frc consts  --      0.4584                 0.5589                 0.8846
 IR Inten    --      3.9900                 5.9620                 5.9825

                      7                      8                      9
                      A                      A                      A
 Frequencies --    360.2317               376.1257               394.8546
 Red. masses --     16.8108                 9.3645                16.1898
 Frc consts  --      1.2853                 0.7806                 1.4872
 IR Inten    --      0.4202                 6.9979                 2.3978

                     10                     11                     12
                      A                      A                      A
 Frequencies --    515.4978               525.3443               548.8431
 Red. masses --      5.8110                 1.4685                 8.4367
 Frc consts  --      0.9098                 0.2388                 1.4973
 IR Inten    --     32.5393                83.8553                16.9134

                     13                     14                     15
                      A                      A                      A
 Frequencies --    593.1259               624.8939               709.7030
 Red. masses --      8.5206                14.4781                 9.2375
 Frc consts  --      1.7661                 3.3310                 2.7413
 IR Inten    --      4.7559                 2.9481                34.1805

                     16                     17                     18
                      A                      A                      A
 Frequencies --    781.2717               797.9559              1055.1351
 Red. masses --     12.1408                12.9825                13.3087
 Frc consts  --      4.3662                 4.8704                 8.7297
 IR Inten    --      1.4912                15.0142               146.0449

                     19                     20                     21
                      A                      A                      A
 Frequencies --   1176.3309              1246.2779              1266.2226
 Red. masses --      4.8436                 2.1537                11.8163
 Frc consts  --      3.9489                 1.9709                11.1623
 IR Inten    --     93.7397               131.7978               292.2307

                     22                     23                     24
                      A                      A                      A
 Frequencies --   1279.8408              1309.1633              1375.9998
 Red. masses --      5.8003                13.1179                 6.7952
 Frc consts  --      5.5977                13.2465                 7.5803
 IR Inten    --     73.6453               262.8128               326.6467

                     25                     26                     27
                      A                      A                      A
 Frequencies --   1413.1273              1942.6914              3839.7359
 Red. masses --      6.4491                11.5024                 1.0657
 Frc consts  --      7.5877                25.5769                 9.2576
 IR Inten    --     88.6244               292.7469               138.1965

 - Thermochemistry -
 -------------------
 Temperature   298.150 Kelvin.  Pressure   1.00000 Atm.
 Atom     1 has atomic number  6 and mass  12.00000

 Molecular mass:   163.98967 amu.
 Principal axes and moments of inertia in atomic units:
                           1         2         3
     Eigenvalues --   948.956541534.568001591.38226
           X            0.84671   0.48686   0.21460
           Y           -0.03037  -0.35845   0.93305
           Z           -0.53119   0.79654   0.28872
 This molecule is an asymmetric top.
 Rotational symmetry number  1.
 Warning -- assumption of classical behavior for rotation
           may cause significant error
 Rotational temperatures (Kelvin)      0.09127     0.05644     0.05443
 Rotational constants (GHZ):           1.90182     1.17606     1.13407
 Zero-point vibrational energy     138423.0 (Joules/Mol)
                                   33.08390 (Kcal/Mol)
 Warning -- explicit consideration of  13 degrees of freedom as
           vibrations may cause significant error
 Vibrational temperatures:     41.56    92.05   206.35   308.92   382.84
          (Kelvin)            421.66   518.29   541.16   568.11   741.69
                              755.85   789.66   853.38   899.08  1021.10
                             1124.08  1148.08  1518.10  1692.48  1793.12
                             1821.81  1841.41  1883.59  1979.76  2033.18
                             2795.10  5524.52

 Zero-point correction=                           0.052723 (Hartree/Particle)
 Thermal correction to Energy=                    0.061630
 Thermal correction to Enthalpy=                  0.062574
 Thermal correction to Gibbs Free Energy=         0.017297
 Sum of electronic and zero-point Energies=           -764.611835
 Sum of electronic and thermal Energies=              -764.602927
 Sum of electronic and thermal Enthalpies=            -764.601983
 Sum of electronic and thermal Free Energies=         -764.647261

                     E (Thermal)             CV                S
                      KCal/Mol        Cal/Mol-Kelvin    Cal/Mol-Kelvin
 Total                   38.674             30.764             95.295
 Electronic               0.000              0.000              0.000
 Translational            0.889              2.981             41.192
 Rotational               0.889              2.981             29.229
 Vibrational             36.896             24.803             24.874
 Vibration     1          0.593              1.984              5.904
 Vibration     2          0.597              1.971              4.330
 Vibration     3          0.616              1.910              2.758
 Vibration     4          0.645              1.819              2.003
 Vibration     5          0.672              1.735              1.621
 Vibration     6          0.688              1.687              1.456
 Vibration     7          0.735              1.554              1.121
 Vibration     8          0.747              1.521              1.055
 Vibration     9          0.762              1.481              0.982
 Vibration    10          0.871              1.216              0.620
 Vibration    11          0.880              1.194              0.598
 Vibration    12          0.904              1.142              0.547
 Vibration    13          0.951              1.046              0.462

 Optimization completed.
    -- Stationary point found.
 Normal termination of Gaussian 16 at Fri May 23 23:31:50 2025.
