 Gaussian 16, Revision C.01,
 Gaussian 16:  ES64L-G16RevC.01  3-Jul-2019

 -----------------------------------------------------------------
 #P M062X/Def2TZVPP Symm(None) scf(xqc) pop(None) freq opt(CalcFC)
 -----------------------------------------------------------------

 ------------------------------
 Gaussian input prepared by ASE
 ------------------------------
 Symbolic Z-matrix:
 Charge =  0 Multiplicity = 1

 SCF Done:  E(RM062X) =  -764.651667461     A.U. after   13 cycles
 SCF Done:  E(RM062X) =  -764.662119045     A.U. after   14 cycles
 SCF Done:  E(RM062X) =  -764.663350390     A.U. after   13 cycles
 SCF Done:  E(RM062X) =  -764.663912190     A.U. after   13 cycles
 SCF Done:  E(RM062X) =  -764.664342391     A.U. after   13 cycles
 SCF Done:  E(RM062X) =  -764.664490014     A.U. after   12 cycles
 SCF Done:  E(RM062X) =  -764.664543587     A.U. after   11 cycles
 SCF Done:  E(RM062X) =  -764.664553943     A.U. after   11 cycles
 SCF Done:  E(RM062X) =  -764.664560081     A.U. after   11 cycles
 SCF Done:  E(RM062X) =  -764.664563475     A.U. after   11 cycles
 SCF Done:  E(RM062X) =  -764.664563795     A.U. after    8 cycles
 Optimization completed.
    -- Stationary point found.
 Normal termination of Gaussian 16 at Fri May 23 23:31:36 2025.

 ---------------------------------------------------------------------
 #P Geom=AllCheck Guess=TCheck SCRF=Check GenChk RM062X/def2TZVPP Freq
 ---------------------------------------------------------------------

 Structure from the checkpoint file:  "/tmp/Gau-29002.chk"
 ------------------------------
 Gaussian input prepared by ASE
 ------------------------------
 Charge =  0 Multiplicity = 1

                          Input orientation:
 ---------------------------------------------------------------------
 Center     Atomic      Atomic             Coordinates (Angstroms)
 Number     Number       Type             X           Y           Z
 ---------------------------------------------------------------------
      1          6           0        1.584410    0.071975    0.206219
      2          8           0        2.149407   -0.897921    0.585667
      3          6           0        0.038900    0.087808    0.095832
      4          6           0       -0.637172    0.213082    1.475950
      5          9           0       -1.947788    0.326888    1.329297
      6          9           0       -0.374035   -0.840597    2.224611
      7          9           0       -0.175977    1.305951    2.082781
      8          9           0       -0.365715    1.150050   -0.641370
      9          9           0       -0.386952   -1.027579   -0.492569
     10          8           0        2.187706    1.207312   -0.130027
     11          1           0        1.556112    1.862719   -0.450391
 ---------------------------------------------------------------------

 SCF Done:  E(RM062X) =  -764.664563795     A.U. after    1 cycles

 Isotropic polarizability for W=    0.000000       43.65 Bohr**3.
 End of Minotr F.D. properties file   721 does not exist.

                      1                      2                      3
                      A                      A                      A
 Frequencies --     28.7223                64.8482               142.6758
 Red. masses --      9.1915                15.1289                16.7197
 Frc consts  --      0.0045                 0.0375                 0.2005
 IR Inten    --      4.3850                 0.7750                 2.3925

                      4                      5                      6
                      A                      A                      A
 Frequencies --    214.6012               266.8936               293.3359
 Red. masses --     16.9341                13.6275                17.3312
 Frc consts  --      0.4595                 0.5719                 0.8786
 IR Inten    --      3.9163                 5.7133                 6.1120

                      7                      8                      9
                      A                      A                      A
 Frequencies --    360.2697               376.7219               395.3622
 Red. masses --     16.6928                 9.3807                16.0309
 Frc consts  --      1.2765                 0.7844                 1.4764
 IR Inten    --      0.5410                 6.8901                 2.5166

                     10                     11                     12
                      A                      A                      A
 Frequencies --    512.3375               519.0770               548.4485
 Red. masses --      1.8701                 2.8393                10.5786
 Frc consts  --      0.2892                 0.4507                 1.8748
 IR Inten    --     93.3043                25.8330                12.6707

                     13                     14                     15
                      A                      A                      A
 Frequencies --    592.8462               625.3546               710.1331
 Red. masses --      9.3898                14.5660                 9.2278
 Frc consts  --      1.9444                 3.3562                 2.7418
 IR Inten    --      5.8271                 3.0958                34.0799

                     16                     17                     18
                      A                      A                      A
 Frequencies --    781.0925               798.2661              1055.4807
 Red. masses --     12.2195                13.0045                13.3126
 Frc consts  --      4.3925                 4.8825                 8.7381
 IR Inten    --      1.4900                15.0570               146.4889

                     19                     20                     21
                      A                      A                      A
 Frequencies --   1176.8496              1247.5676              1267.0305
 Red. masses --      4.9429                 2.1591                11.5719
 Frc consts  --      4.0334                 1.9800                10.9454
 IR Inten    --     94.5043               125.3017               298.4033

                     22                     23                     24
                      A                      A                      A
 Frequencies --   1280.6947              1309.4095              1376.3917
 Red. masses --      5.7205                13.1236                 6.7507
 Frc consts  --      5.5281                13.2573                 7.5350
 IR Inten    --     70.8296               264.1400               326.4031

                     25                     26                     27
                      A                      A                      A
 Frequencies --   1413.2078              1942.2159              3840.2963
 Red. masses --      6.3776                11.4995                 1.0657
 Frc consts  --      7.5045                25.5579                 9.2601
 IR Inten    --     89.9944               292.8109               138.1212

 - Thermochemistry -
 -------------------
 Temperature   298.150 Kelvin.  Pressure   1.00000 Atm.
 Atom     1 has atomic number  6 and mass  12.00000

 Molecular mass:   163.98967 amu.
 Principal axes and moments of inertia in atomic units:
                           1         2         3
     Eigenvalues --   948.522051534.296421592.87341
           X            0.87535   0.43167   0.21778
           Y            0.01818  -0.47950   0.87735
           Z           -0.48315   0.76403   0.42758
 This molecule is an asymmetric top.
 Rotational symmetry number  1.
 Warning -- assumption of classical behavior for rotation
           may cause significant error
 Rotational temperatures (Kelvin)      0.09131     0.05645     0.05438
 Rotational constants (GHZ):           1.90269     1.17627     1.13301
 Zero-point vibrational energy     138408.7 (Joules/Mol)
                                   33.08048 (Kcal/Mol)
 Warning -- explicit consideration of  13 degrees of freedom as
           vibrations may cause significant error
 Vibrational temperatures:     41.32    93.30   205.28   308.76   384.00
          (Kelvin)            422.04   518.35   542.02   568.84   737.14
                              746.84   789.10   852.97   899.75  1021.72
                             1123.82  1148.53  1518.60  1693.22  1794.97
                             1822.97  1842.63  1883.95  1980.32  2033.29
                             2794.42  5525.33

 Zero-point correction=                           0.052717 (Hartree/Particle)
 Thermal correction to Energy=                    0.061629
 Thermal correction to Enthalpy=                  0.062573
 Thermal correction to Gibbs Free Energy=         0.017292
 Sum of electronic and zero-point Energies=           -764.611847
 Sum of electronic and thermal Energies=              -764.602935
 Sum of electronic and thermal Enthalpies=            -764.601991
 Sum of electronic and thermal Free Energies=         -764.647271

                     E (Thermal)             CV                S
                      KCal/Mol        Cal/Mol-Kelvin    Cal/Mol-Kelvin
 Total                   38.673             30.778             95.301
 Electronic               0.000              0.000              0.000
 Translational            0.889              2.981             41.192
 Rotational               0.889              2.981             29.229
 Vibrational             36.895             24.817             24.879
 Vibration     1          0.593              1.984              5.916
 Vibration     2          0.597              1.971              4.304
 Vibration     3          0.616              1.911              2.768
 Vibration     4          0.645              1.819              2.004
 Vibration     5          0.672              1.734              1.616
 Vibration     6          0.688              1.686              1.455
 Vibration     7          0.735              1.554              1.121
 Vibration     8          0.747              1.520              1.052
 Vibration     9          0.762              1.480              0.980
 Vibration    10          0.867              1.223              0.628
 Vibration    11          0.874              1.208              0.612
 Vibration    12          0.904              1.143              0.547
 Vibration    13          0.950              1.047              0.462

 Optimization completed.
    -- Stationary point found.
 Normal termination of Gaussian 16 at Fri May 23 23:35:06 2025.
