 Gaussian 16, Revision C.01,
 Gaussian 16:  ES64L-G16RevC.01  3-Jul-2019

 -----------------------------------------------------------------
 #P M062X/Def2TZVPP Symm(None) scf(xqc) pop(None) freq opt(CalcFC)
 -----------------------------------------------------------------

 ------------------------------
 Gaussian input prepared by ASE
 ------------------------------
 Symbolic Z-matrix:
 Charge =  0 Multiplicity = 1

 SCF Done:  E(RM062X) =  -764.559577018     A.U. after   13 cycles
 SCF Done:  E(RM062X) =  -764.578886910     A.U. after   14 cycles
 SCF Done:  E(RM062X) =  -764.568021641     A.U. after   14 cycles
 SCF Done:  E(RM062X) =  -764.580988250     A.U. after   11 cycles
 SCF Done:  E(RM062X) =  -764.581890053     A.U. after   12 cycles
 SCF Done:  E(RM062X) =  -764.582630230     A.U. after   12 cycles
 SCF Done:  E(RM062X) =  -764.582924240     A.U. after   12 cycles
 SCF Done:  E(RM062X) =  -764.583164783     A.U. after   11 cycles
 SCF Done:  E(RM062X) =  -764.583370953     A.U. after   11 cycles
 SCF Done:  E(RM062X) =  -764.583424339     A.U. after   10 cycles
 SCF Done:  E(RM062X) =  -764.583445536     A.U. after   10 cycles
 SCF Done:  E(RM062X) =  -764.583450871     A.U. after    8 cycles
 SCF Done:  E(RM062X) =  -764.583451108     A.U. after    8 cycles
 Optimization completed.
    -- Stationary point found.
 Normal termination of Gaussian 16 at Sat May 24 05:00:00 2025.

 ---------------------------------------------------------------------
 #P Geom=AllCheck Guess=TCheck SCRF=Check GenChk RM062X/def2TZVPP Freq
 ---------------------------------------------------------------------

 Structure from the checkpoint file:  "/tmp/Gau-277853.chk"
 ------------------------------
 Gaussian input prepared by ASE
 ------------------------------
 Charge =  0 Multiplicity = 1

                          Input orientation:
 ---------------------------------------------------------------------
 Center     Atomic      Atomic             Coordinates (Angstroms)
 Number     Number       Type             X           Y           Z
 ---------------------------------------------------------------------
      1          6           0        0.157061   -0.438619    0.368049
      2          8           0        1.306803    0.037271   -0.206324
      3          6           0        1.356486    2.353714   -0.928306
      4          6           0        1.963930    1.233914   -0.052192
      5          9           0        2.055002    3.467762   -0.789798
      6          9           0        1.959503    1.663870    1.229207
      7          9           0        3.222858    1.050508   -0.415055
      8          9           0        1.352932    1.991375   -2.195938
      9          9           0        0.102883    2.582870   -0.536533
     10          8           0       -0.386157    0.361616    1.227436
     11          1           0        0.051882    1.208657    1.414515
 ---------------------------------------------------------------------

 SCF Done:  E(RM062X) =  -764.583451108     A.U. after    1 cycles

 Isotropic polarizability for W=    0.000000       46.42 Bohr**3.
 End of Minotr F.D. properties file   721 does not exist.

                      1                      2                      3
                      A                      A                      A
 Frequencies --     56.3874               108.2797               153.6063
 Red. masses --     15.8396                13.1732                 4.9210
 Frc consts  --      0.0297                 0.0910                 0.0684
 IR Inten    --      0.3392                 0.1356                28.6158

                      4                      5                      6
                      A                      A                      A
 Frequencies --    221.3500               238.7279               241.1649
 Red. masses --     16.6916                 9.3810                10.6962
 Frc consts  --      0.4818                 0.3150                 0.3665
 IR Inten    --      4.4339                10.7371                 2.7118

                      7                      8                      9
                      A                      A                      A
 Frequencies --    350.3464               357.2611               394.9195
 Red. masses --     14.5032                13.6570                12.6469
 Frc consts  --      1.0488                 1.0270                 1.1621
 IR Inten    --      2.6652                 3.3342                 3.3978

                     10                     11                     12
                      A                      A                      A
 Frequencies --    473.9142               518.8341               598.6401
 Red. masses --     14.9603                14.5591                14.7758
 Frc consts  --      1.9797                 2.3091                 3.1199
 IR Inten    --      2.7034                 9.3833                 3.4904

                     13                     14                     15
                      A                      A                      A
 Frequencies --    605.1039               688.3523               716.0629
 Red. masses --     13.0757                 3.6963                 1.9870
 Frc consts  --      2.8208                 1.0319                 0.6003
 IR Inten    --      5.1732                 9.1827               102.4487

                     16                     17                     18
                      A                      A                      A
 Frequencies --    773.3904               803.4496              1029.9623
 Red. masses --      5.3344                16.1126                 7.2636
 Frc consts  --      1.8799                 6.1282                 4.5399
 IR Inten    --     22.2538                 5.6209               117.1946

                     19                     20                     21
                      A                      A                      A
 Frequencies --   1107.3820              1178.0800              1265.3565
 Red. masses --     12.9296                10.5072                 3.5088
 Frc consts  --      9.3418                 8.5918                 3.3100
 IR Inten    --    386.7420               163.3848               419.3630

                     22                     23                     24
                      A                      A                      A
 Frequencies --   1279.4109              1313.6043              1328.8091
 Red. masses --     12.3327                13.1116                 2.5033
 Frc consts  --     11.8940                13.3301                 2.6042
 IR Inten    --    386.7827               252.7855                79.1182

                     25                     26                     27
                      A                      A                      A
 Frequencies --   1390.8888              1430.3560              3708.0100
 Red. masses --      5.3477                11.9588                 1.0628
 Frc consts  --      6.0954                14.4154                 8.6094
 IR Inten    --    207.5373                14.2427                63.8435

 - Thermochemistry -
 -------------------
 Temperature   298.150 Kelvin.  Pressure   1.00000 Atm.
 Atom     1 has atomic number  6 and mass  12.00000

 Molecular mass:   163.98967 amu.
 Principal axes and moments of inertia in atomic units:
                           1         2         3
     Eigenvalues --   914.657321472.244641670.43194
           X            0.42792   0.90204   0.05657
           Y            0.70888  -0.37380   0.59813
           Z           -0.56069   0.21585   0.79940
 This molecule is an asymmetric top.
 Rotational symmetry number  1.
 Warning -- assumption of classical behavior for rotation
           may cause significant error
 Rotational temperatures (Kelvin)      0.09470     0.05883     0.05185
 Rotational constants (GHZ):           1.97313     1.22584     1.08040
 Zero-point vibrational energy     133572.9 (Joules/Mol)
                                   31.92470 (Kcal/Mol)
 Warning -- explicit consideration of  13 degrees of freedom as
           vibrations may cause significant error
 Vibrational temperatures:     81.13   155.79   221.01   318.47   343.48
          (Kelvin)            346.98   504.07   514.02   568.20   681.86
                              746.49   861.31   870.61   990.39  1030.25
                             1112.74  1155.98  1481.89  1593.28  1694.99
                             1820.57  1840.79  1889.98  1911.86  2001.18
                             2057.96  5335.00

 Zero-point correction=                           0.050875 (Hartree/Particle)
 Thermal correction to Energy=                    0.059739
 Thermal correction to Enthalpy=                  0.060683
 Thermal correction to Gibbs Free Energy=         0.016333
 Sum of electronic and zero-point Energies=           -764.532576
 Sum of electronic and thermal Energies=              -764.523712
 Sum of electronic and thermal Enthalpies=            -764.522768
 Sum of electronic and thermal Free Energies=         -764.567118

                     E (Thermal)             CV                S
                      KCal/Mol        Cal/Mol-Kelvin    Cal/Mol-Kelvin
 Total                   37.487             30.968             93.342
 Electronic               0.000              0.000              0.000
 Translational            0.889              2.981             41.192
 Rotational               0.889              2.981             29.199
 Vibrational             35.709             25.006             22.950
 Vibration     1          0.596              1.975              4.580
 Vibration     2          0.606              1.943              3.300
 Vibration     3          0.619              1.899              2.627
 Vibration     4          0.648              1.809              1.948
 Vibration     5          0.657              1.781              1.812
 Vibration     6          0.658              1.777              1.794
 Vibration     7          0.727              1.575              1.165
 Vibration     8          0.732              1.560              1.134
 Vibration     9          0.762              1.481              0.982
 Vibration    10          0.831              1.308              0.727
 Vibration    11          0.874              1.208              0.613
 Vibration    12          0.957              1.035              0.452
 Vibration    13          0.964              1.021              0.441

                           ! Non-Optimized Parameters !
 Normal termination of Gaussian 16 at Sat May 24 05:03:27 2025.
