 Gaussian 16, Revision C.01,
 Gaussian 16:  ES64L-G16RevC.01  3-Jul-2019

 -----------------------------------------------------------------
 #P M062X/Def2TZVPP Symm(None) scf(xqc) pop(None) freq opt(CalcFC)
 -----------------------------------------------------------------

 ------------------------------
 Gaussian input prepared by ASE
 ------------------------------
 Symbolic Z-matrix:
 Charge =  0 Multiplicity = 1

 SCF Done:  E(RM062X) =  -764.442280249     A.U. after   13 cycles
 SCF Done:  E(RM062X) =  -764.517328094     A.U. after   12 cycles
 SCF Done:  E(RM062X) =  -764.579370536     A.U. after   12 cycles
 SCF Done:  E(RM062X) =  -764.603190087     A.U. after   12 cycles
 SCF Done:  E(RM062X) =  -764.611848564     A.U. after   12 cycles
 SCF Done:  E(RM062X) =  -764.615271160     A.U. after   12 cycles
 SCF Done:  E(RM062X) =  -764.620246573     A.U. after   12 cycles
 SCF Done:  E(RM062X) =  -764.621157749     A.U. after   12 cycles
 SCF Done:  E(RM062X) =  -764.622600858     A.U. after   11 cycles
 SCF Done:  E(RM062X) =  -764.623542319     A.U. after   12 cycles
 SCF Done:  E(RM062X) =  -764.623785611     A.U. after   10 cycles
 SCF Done:  E(RM062X) =  -764.623844430     A.U. after   10 cycles
 SCF Done:  E(RM062X) =  -764.623866445     A.U. after    9 cycles
 SCF Done:  E(RM062X) =  -764.623873855     A.U. after    9 cycles
 SCF Done:  E(RM062X) =  -764.623875174     A.U. after    7 cycles
 SCF Done:  E(RM062X) =  -764.623875908     A.U. after    7 cycles
 SCF Done:  E(RM062X) =  -764.623877405     A.U. after    7 cycles
 SCF Done:  E(RM062X) =  -764.623879001     A.U. after    7 cycles
 SCF Done:  E(RM062X) =  -764.623879768     A.U. after    7 cycles
 Optimization completed.
    -- Stationary point found.
 Normal termination of Gaussian 16 at Sat May 24 07:45:00 2025.

 ---------------------------------------------------------------------
 #P Geom=AllCheck Guess=TCheck SCRF=Check GenChk RM062X/def2TZVPP Freq
 ---------------------------------------------------------------------

 Structure from the checkpoint file:  "/tmp/Gau-86501.chk"
 ------------------------------
 Gaussian input prepared by ASE
 ------------------------------
 Charge =  0 Multiplicity = 1

                          Input orientation:
 ---------------------------------------------------------------------
 Center     Atomic      Atomic             Coordinates (Angstroms)
 Number     Number       Type             X           Y           Z
 ---------------------------------------------------------------------
      1          6           0        1.429105   -0.252105    0.032969
      2          8           0        0.115127   -0.482268   -0.332138
      3          6           0        2.323888   -1.208335   -0.145362
      4          6           0       -0.702705   -0.878048    0.673382
      5          9           0       -0.630092   -0.039804    1.719163
      6          9           0       -1.936480   -0.885864    0.222902
      7          9           0       -0.396345   -2.087310    1.125037
      8          9           0        3.597513   -1.069111    0.117339
      9          9           0        2.047563   -2.389488   -0.636926
     10          8           0        1.758837    0.993789    0.417440
     11          1           0        1.335257    1.207091    1.257038
 ---------------------------------------------------------------------

 SCF Done:  E(RM062X) =  -764.623879769     A.U. after    1 cycles

 Isotropic polarizability for W=    0.000000       45.83 Bohr**3.
 End of Minotr F.D. properties file   721 does not exist.

                      1                      2                      3
                      A                      A                      A
 Frequencies --     48.6359                72.3662               127.4745
 Red. masses --     14.6846                15.8826                14.4427
 Frc consts  --      0.0205                 0.0490                 0.1383
 IR Inten    --      0.2590                 0.2913                 2.2054

                      4                      5                      6
                      A                      A                      A
 Frequencies --    202.5023               215.5077               294.7308
 Red. masses --      8.9548                 7.7484                 1.1957
 Frc consts  --      0.2164                 0.2120                 0.0612
 IR Inten    --      3.4173                 4.7413               129.2749

                      7                      8                      9
                      A                      A                      A
 Frequencies --    354.6484               371.4990               445.4051
 Red. masses --     10.9439                16.0341                10.5279
 Frc consts  --      0.8110                 1.3038                 1.2306
 IR Inten    --     12.5858                 3.3388                 5.6624

                     10                     11                     12
                      A                      A                      A
 Frequencies --    479.9090               542.0771               564.1045
 Red. masses --     13.7713                16.5654                13.3937
 Frc consts  --      1.8687                 2.8680                 2.5111
 IR Inten    --      1.6972                 1.5576                 4.7390

                     13                     14                     15
                      A                      A                      A
 Frequencies --    629.9160               648.0957               654.9216
 Red. masses --     11.4051                15.6381                15.6277
 Frc consts  --      2.6663                 3.8700                 3.9493
 IR Inten    --      2.6884                10.9770                 9.8829

                     16                     17                     18
                      A                      A                      A
 Frequencies --    722.7787               846.6713               942.0823
 Red. masses --     13.6486                11.6493                15.1399
 Frc consts  --      4.2010                 4.9202                 7.9168
 IR Inten    --     13.8735                 2.4654                37.4208

                     19                     20                     21
                      A                      A                      A
 Frequencies --   1176.1406              1219.6218              1266.5263
 Red. masses --      4.6740                11.0624                 5.8750
 Frc consts  --      3.8094                 9.6950                 5.5525
 IR Inten    --    315.9353               196.4081               618.5271

                     22                     23                     24
                      A                      A                      A
 Frequencies --   1299.3298              1350.9408              1355.4502
 Red. masses --      2.5093                 4.4350                 9.3209
 Frc consts  --      2.4960                 4.7689                10.0897
 IR Inten    --    261.9662               173.9842               276.1815

                     25                     26                     27
                      A                      A                      A
 Frequencies --   1396.4621              1921.9846              3827.2732
 Red. masses --     12.7883                11.1101                 1.0658
 Frc consts  --     14.6934                24.1807                 9.1986
 IR Inten    --    241.6469                42.0288               102.1958

 - Thermochemistry -
 -------------------
 Temperature   298.150 Kelvin.  Pressure   1.00000 Atm.
 Atom     1 has atomic number  6 and mass  12.00000

 Molecular mass:   163.98967 amu.
 Principal axes and moments of inertia in atomic units:
                           1         2         3
     Eigenvalues --   758.107431936.714822323.23021
           X            0.97205   0.12526   0.19855
           Y           -0.06932   0.96120  -0.26702
           Z           -0.22430   0.24579   0.94302
 This molecule is an asymmetric top.
 Rotational symmetry number  1.
 Warning -- assumption of classical behavior for rotation
           may cause significant error
 Rotational temperatures (Kelvin)      0.11425     0.04472     0.03728
 Rotational constants (GHZ):           2.38059     0.93186     0.77682
 Zero-point vibrational energy     137433.3 (Joules/Mol)
                                   32.84735 (Kcal/Mol)
 Warning -- explicit consideration of  12 degrees of freedom as
           vibrations may cause significant error
 Vibrational temperatures:     69.98   104.12   183.41   291.36   310.07
          (Kelvin)            424.05   510.26   534.50   640.84   690.48
                              779.93   811.62   906.31   932.47   942.29
                             1039.92  1218.17  1355.45  1692.20  1754.76
                             1822.25  1869.45  1943.70  1950.19  2009.20
                             2765.31  5506.59

 Zero-point correction=                           0.052346 (Hartree/Particle)
 Thermal correction to Energy=                    0.061297
 Thermal correction to Enthalpy=                  0.062242
 Thermal correction to Gibbs Free Energy=         0.017088
 Sum of electronic and zero-point Energies=           -764.571534
 Sum of electronic and thermal Energies=              -764.562582
 Sum of electronic and thermal Enthalpies=            -764.561638
 Sum of electronic and thermal Free Energies=         -764.606792

                     E (Thermal)             CV                S
                      KCal/Mol        Cal/Mol-Kelvin    Cal/Mol-Kelvin
 Total                   38.465             30.923             95.034
 Electronic               0.000              0.000              0.000
 Translational            0.889              2.981             41.192
 Rotational               0.889              2.981             29.613
 Vibrational             36.687             24.961             24.229
 Vibration     1          0.595              1.978              4.872
 Vibration     2          0.598              1.967              4.088
 Vibration     3          0.611              1.926              2.984
 Vibration     4          0.639              1.836              2.110
 Vibration     5          0.645              1.817              1.997
 Vibration     6          0.689              1.684              1.447
 Vibration     7          0.730              1.566              1.145
 Vibration     8          0.743              1.531              1.074
 Vibration     9          0.805              1.371              0.810
 Vibration    10          0.836              1.295              0.710
 Vibration    11          0.897              1.157              0.561
 Vibration    12          0.920              1.109              0.516

 Optimization completed.
    -- Stationary point found.
 Normal termination of Gaussian 16 at Sat May 24 07:48:18 2025.
