 Gaussian 16, Revision C.01,
 Gaussian 16:  ES64L-G16RevC.01  3-Jul-2019

 ----------------------------------------------------------------------
 #P M062X/Def2TZVPP Symm(None) scf(xqc) pop(None) opt(NoFreeze,TS,CalcA
 ll,NoEigentest,MaxCycle=999)
 ----------------------------------------------------------------------

 ------------------------------
 Gaussian input prepared by ASE
 ------------------------------
 Symbolic Z-matrix:
 Charge =  0 Multiplicity = 1

 SCF Done:  E(RM062X) =  -764.475090274     A.U. after   14 cycles
 SCF Done:  E(RM062X) =  -764.490351919     A.U. after   15 cycles
 SCF Done:  E(RM062X) =  -764.492338960     A.U. after   13 cycles
 SCF Done:  E(RM062X) =  -764.492410187     A.U. after   11 cycles

 Isotropic polarizability for W=    0.000000       49.13 Bohr**3.
 End of Minotr F.D. properties file   721 does not exist.

 Optimization completed.
    -- Stationary point found.

                          Input orientation:
 ---------------------------------------------------------------------
 Center     Atomic      Atomic             Coordinates (Angstroms)
 Number     Number       Type             X           Y           Z
 ---------------------------------------------------------------------
      1          6           0        1.749308   -0.065443    0.138199
      2          8           0        1.856838   -1.315196    0.060563
      3          6           0        0.047710   -0.011847    0.072345
      4          6           0        0.263494   -1.529859   -0.018264
      5          9           0       -1.649844   -0.727698   -0.044061
      6          9           0        0.078599   -2.123877   -1.147243
      7          9           0       -0.009017   -2.264894    1.005021
      8          9           0       -0.269177    0.563210    1.222001
      9          9           0       -0.177445    0.709626   -1.014709
     10          8           0        2.807668    0.658015    0.227256
     11          1           0        2.572804    1.595036    0.279558
 ---------------------------------------------------------------------

 ******    1 imaginary frequencies (negative Signs) ******

                      1                      2                      3
                      A                      A                      A
 Frequencies --   -631.9574               110.3117               136.3234
 Red. masses --     12.3751                 9.0076                18.1525
 Frc consts  --      2.9119                 0.0646                 0.1988
 IR Inten    --     23.3600                 0.9314                 1.9283

                      4                      5                      6
                      A                      A                      A
 Frequencies --    154.3428               204.8685               315.6125
 Red. masses --      8.9831                17.2864                18.1338
 Frc consts  --      0.1261                 0.4275                 1.0643
 IR Inten    --     12.2002                10.0324                 7.5617

                      7                      8                      9
                      A                      A                      A
 Frequencies --    348.7869               370.2938               386.1073
 Red. masses --     16.7225                17.5387                13.2592
 Frc consts  --      1.1986                 1.4169                 1.1646
 IR Inten    --      0.0260               241.3658                13.0977

                     10                     11                     12
                      A                      A                      A
 Frequencies --    406.5764               483.4504               499.3266
 Red. masses --     14.8571                13.2082                12.4789
 Frc consts  --      1.4470                 1.8189                 1.8331
 IR Inten    --     12.4101                95.5613                15.7390

                     13                     14                     15
                      A                      A                      A
 Frequencies --    520.0147               623.3198               671.4807
 Red. masses --     16.0978                 1.2377                14.7386
 Frc consts  --      2.5648                 0.2833                 3.9154
 IR Inten    --      0.7702               107.8206               583.1869

                     16                     17                     18
                      A                      A                      A
 Frequencies --    693.9184               727.5404               752.8641
 Red. masses --     12.0902                 6.3662                 9.4376
 Frc consts  --      3.4301                 1.9854                 3.1517
 IR Inten    --      1.5404                 0.3883                 7.8567

                     19                     20                     21
                      A                      A                      A
 Frequencies --    820.3280              1206.2129              1231.7309
 Red. masses --     14.8563                 2.1891                 2.7675
 Frc consts  --      5.8903                 1.8765                 2.4739
 IR Inten    --    449.4614                92.0767               422.5842

                     22                     23                     24
                      A                      A                      A
 Frequencies --   1319.2370              1430.9875              1458.2664
 Red. masses --     13.2534                13.1332                10.1647
 Frc consts  --     13.5901                15.8450                12.7356
 IR Inten    --    313.1634               171.2240               152.7433

                     25                     26                     27
                      A                      A                      A
 Frequencies --   1516.1946              1692.8963              3806.9905
 Red. masses --      9.0176                 8.4299                 1.0666
 Frc consts  --     12.2138                14.2342                 9.1082
 IR Inten    --     17.5559               220.6867               235.9399

 - Thermochemistry -
 -------------------
 Temperature   298.150 Kelvin.  Pressure   1.00000 Atm.
 Atom     1 has atomic number  6 and mass  12.00000

 Molecular mass:   163.98967 amu.
 Principal axes and moments of inertia in atomic units:
                           1         2         3
     Eigenvalues --   992.409831334.314421669.13925
           X            0.84948  -0.52608  -0.04034
           Y            0.52315   0.84975  -0.06512
           Z            0.06853   0.03421   0.99706
 This molecule is an asymmetric top.
 Rotational symmetry number  1.
 Warning -- assumption of classical behavior for rotation
           may cause significant error
 Rotational temperatures (Kelvin)      0.08728     0.06491     0.05189
 Rotational constants (GHZ):           1.81854     1.35256     1.08124
    1 imaginary frequencies ignored.
 Zero-point vibrational energy     130919.2 (Joules/Mol)
                                   31.29044 (Kcal/Mol)
 Warning -- explicit consideration of  12 degrees of freedom as
           vibrations may cause significant error
 Vibrational temperatures:    158.71   196.14   222.06   294.76   454.10
          (Kelvin)            501.83   532.77   555.52   584.97   695.58
                              718.42   748.19   896.82   966.11   998.39
                             1046.77  1083.20  1180.27  1735.47  1772.19
                             1898.09  2058.87  2098.12  2181.47  2435.70
                             5477.41

 Zero-point correction=                           0.049864 (Hartree/Particle)
 Thermal correction to Energy=                    0.058385
 Thermal correction to Enthalpy=                  0.059329
 Thermal correction to Gibbs Free Energy=         0.016264
 Sum of electronic and zero-point Energies=           -764.442546
 Sum of electronic and thermal Energies=              -764.434026
 Sum of electronic and thermal Enthalpies=            -764.433081
 Sum of electronic and thermal Free Energies=         -764.476146

                     E (Thermal)             CV                S
                      KCal/Mol        Cal/Mol-Kelvin    Cal/Mol-Kelvin
 Total                   36.637             30.655             90.636
 Electronic               0.000              0.000              0.000
 Translational            0.889              2.981             41.192
 Rotational               0.889              2.981             29.182
 Vibrational             34.859             24.693             20.262
 Vibration     1          0.606              1.941              3.263
 Vibration     2          0.614              1.917              2.855
 Vibration     3          0.620              1.898              2.618
 Vibration     4          0.640              1.833              2.089
 Vibration     5          0.703              1.644              1.333
 Vibration     6          0.726              1.578              1.172
 Vibration     7          0.742              1.533              1.079
 Vibration     8          0.755              1.500              1.015
 Vibration     9          0.771              1.456              0.939
 Vibration    10          0.840              1.287              0.701
 Vibration    11          0.855              1.252              0.660
 Vibration    12          0.875              1.206              0.610

 Normal termination of Gaussian 16 at Sat May 24 04:56:31 2025.
