 Gaussian 16, Revision C.01,
 Gaussian 16:  ES64L-G16RevC.01  3-Jul-2019

 -----------------------------------------------------------------
 #P M062X/Def2TZVPP Symm(None) scf(xqc) pop(None) freq opt(CalcFC)
 -----------------------------------------------------------------

 ------------------------------
 Gaussian input prepared by ASE
 ------------------------------
 Symbolic Z-matrix:
 Charge =  0 Multiplicity = 1

 SCF Done:  E(RM062X) =  -764.651831655     A.U. after   14 cycles
 SCF Done:  E(RM062X) =  -764.661922578     A.U. after   14 cycles
 SCF Done:  E(RM062X) =  -764.662936301     A.U. after   15 cycles
 SCF Done:  E(RM062X) =  -764.662960618     A.U. after   15 cycles
 SCF Done:  E(RM062X) =  -764.662493007     A.U. after   14 cycles
 SCF Done:  E(RM062X) =  -764.663395762     A.U. after   13 cycles
 SCF Done:  E(RM062X) =  -764.663483337     A.U. after   13 cycles
 SCF Done:  E(RM062X) =  -764.663649126     A.U. after   11 cycles
 SCF Done:  E(RM062X) =  -764.663786130     A.U. after   13 cycles
 SCF Done:  E(RM062X) =  -764.663957393     A.U. after   12 cycles
 SCF Done:  E(RM062X) =  -764.664128775     A.U. after   14 cycles
 SCF Done:  E(RM062X) =  -764.664335080     A.U. after   12 cycles
 SCF Done:  E(RM062X) =  -764.664486513     A.U. after   13 cycles
 SCF Done:  E(RM062X) =  -764.664509019     A.U. after   12 cycles
 SCF Done:  E(RM062X) =  -764.664554971     A.U. after   12 cycles
 SCF Done:  E(RM062X) =  -764.664561659     A.U. after   11 cycles
 SCF Done:  E(RM062X) =  -764.664562759     A.U. after    9 cycles
 SCF Done:  E(RM062X) =  -764.664562866     A.U. after    6 cycles
 Optimization completed.
    -- Stationary point found.
 Normal termination of Gaussian 16 at Fri May 23 23:34:48 2025.

 ---------------------------------------------------------------------
 #P Geom=AllCheck Guess=TCheck SCRF=Check GenChk RM062X/def2TZVPP Freq
 ---------------------------------------------------------------------

 Structure from the checkpoint file:  "/tmp/Gau-75819.chk"
 ------------------------------
 Gaussian input prepared by ASE
 ------------------------------
 Charge =  0 Multiplicity = 1

                          Input orientation:
 ---------------------------------------------------------------------
 Center     Atomic      Atomic             Coordinates (Angstroms)
 Number     Number       Type             X           Y           Z
 ---------------------------------------------------------------------
      1          6           0        1.541981   -0.028451    0.399335
      2          8           0        2.147237   -0.803518    1.060266
      3          6           0       -0.006830   -0.063976    0.368393
      4          6           0       -0.540026   -1.231978   -0.485526
      5          9           0       -1.858969   -1.163341   -0.573703
      6          9           0       -0.021940   -1.140752   -1.709666
      7          9           0       -0.200140   -2.392132    0.042332
      8          9           0       -0.484310   -0.181790    1.605275
      9          9           0       -0.489278    1.078504   -0.176897
     10          8           0        2.102548    0.899658   -0.369021
     11          1           0        1.438623    1.456016   -0.794186
 ---------------------------------------------------------------------

 SCF Done:  E(RM062X) =  -764.664562866     A.U. after    1 cycles

 Isotropic polarizability for W=    0.000000       43.66 Bohr**3.
 End of Minotr F.D. properties file   721 does not exist.

                      1                      2                      3
                      A                      A                      A
 Frequencies --     30.1317                64.4687               143.1237
 Red. masses --      9.3031                14.8891                16.7024
 Frc consts  --      0.0050                 0.0365                 0.2016
 IR Inten    --      4.3554                 0.8425                 2.3721

                      4                      5                      6
                      A                      A                      A
 Frequencies --    215.2639               266.6231               293.5223
 Red. masses --     16.9286                13.5601                17.3834
 Frc consts  --      0.4622                 0.5679                 0.8824
 IR Inten    --      3.9249                 5.7273                 6.1043

                      7                      8                      9
                      A                      A                      A
 Frequencies --    360.1751               376.6927               395.2720
 Red. masses --     16.7034                 9.3723                16.0627
 Frc consts  --      1.2767                 0.7836                 1.4786
 IR Inten    --      0.5123                 6.9051                 2.5411

                     10                     11                     12
                      A                      A                      A
 Frequencies --    512.8016               519.3045               548.4988
 Red. masses --      1.9436                 2.7054                10.3127
 Frc consts  --      0.3011                 0.4299                 1.8280
 IR Inten    --     90.3766                28.3035                13.1355

                     13                     14                     15
                      A                      A                      A
 Frequencies --    593.0151               625.2626               710.2982
 Red. masses --      9.3591                14.5944                 9.2162
 Frc consts  --      1.9392                 3.3617                 2.7396
 IR Inten    --      5.8488                 3.0798                34.0273

                     16                     17                     18
                      A                      A                      A
 Frequencies --    781.2871               798.3807              1055.5047
 Red. masses --     12.1914                13.0122                13.3085
 Frc consts  --      4.3845                 4.8868                 8.7357
 IR Inten    --      1.4768                15.0980               146.6624

                     19                     20                     21
                      A                      A                      A
 Frequencies --   1177.1384              1247.7229              1267.0918
 Red. masses --      4.9753                 2.1594                11.6592
 Frc consts  --      4.0618                 1.9807                11.0290
 IR Inten    --     94.9557               124.9188               301.4467

                     22                     23                     24
                      A                      A                      A
 Frequencies --   1280.8841              1310.0236              1376.4568
 Red. masses --      5.6652                13.1254                 6.8137
 Frc consts  --      5.4763                13.2715                 7.6060
 IR Inten    --     67.1371               263.9673               325.1908

                     25                     26                     27
                      A                      A                      A
 Frequencies --   1413.3510              1942.3715              3840.6691
 Red. masses --      6.3152                11.4950                 1.0657
 Frc consts  --      7.4326                25.5519                 9.2620
 IR Inten    --     91.7006               292.5204               138.1041

 - Thermochemistry -
 -------------------
 Temperature   298.150 Kelvin.  Pressure   1.00000 Atm.
 Atom     1 has atomic number  6 and mass  12.00000

 Molecular mass:   163.98967 amu.
 Principal axes and moments of inertia in atomic units:
                           1         2         3
     Eigenvalues --   948.673171534.308541592.48147
           X            0.82186  -0.50931  -0.25524
           Y            0.49792   0.85989  -0.11257
           Z            0.27681  -0.03457   0.96030
 This molecule is an asymmetric top.
 Rotational symmetry number  1.
 Warning -- assumption of classical behavior for rotation
           may cause significant error
 Rotational temperatures (Kelvin)      0.09130     0.05645     0.05439
 Rotational constants (GHZ):           1.90238     1.17626     1.13329
 Zero-point vibrational energy     138439.9 (Joules/Mol)
                                   33.08792 (Kcal/Mol)
 Warning -- explicit consideration of  13 degrees of freedom as
           vibrations may cause significant error
 Vibrational temperatures:     43.35    92.76   205.92   309.72   383.61
          (Kelvin)            422.31   518.21   541.98   568.71   737.81
                              747.16   789.17   853.22   899.61  1021.96
                             1124.10  1148.69  1518.64  1693.64  1795.19
                             1823.06  1842.91  1884.83  1980.41  2033.50
                             2794.64  5525.87

 Zero-point correction=                           0.052729 (Hartree/Particle)
 Thermal correction to Energy=                    0.061636
 Thermal correction to Enthalpy=                  0.062580
 Thermal correction to Gibbs Free Energy=         0.017345
 Sum of electronic and zero-point Energies=           -764.611834
 Sum of electronic and thermal Energies=              -764.602927
 Sum of electronic and thermal Enthalpies=            -764.601983
 Sum of electronic and thermal Free Energies=         -764.647218

                     E (Thermal)             CV                S
                      KCal/Mol        Cal/Mol-Kelvin    Cal/Mol-Kelvin
 Total                   38.677             30.774             95.205
 Electronic               0.000              0.000              0.000
 Translational            0.889              2.981             41.192
 Rotational               0.889              2.981             29.229
 Vibrational             36.900             24.812             24.783
 Vibration     1          0.594              1.984              5.821
 Vibration     2          0.597              1.971              4.316
 Vibration     3          0.616              1.910              2.762
 Vibration     4          0.645              1.818              1.999
 Vibration     5          0.672              1.734              1.618
 Vibration     6          0.688              1.686              1.454
 Vibration     7          0.735              1.554              1.121
 Vibration     8          0.747              1.520              1.052
 Vibration     9          0.762              1.480              0.980
 Vibration    10          0.868              1.222              0.627
 Vibration    11          0.874              1.207              0.612
 Vibration    12          0.904              1.143              0.547
 Vibration    13          0.951              1.047              0.462

                           ! Non-Optimized Parameters !
 Normal termination of Gaussian 16 at Fri May 23 23:38:20 2025.
