 Gaussian 16, Revision C.01,
 Gaussian 16:  ES64L-G16RevC.01  3-Jul-2019

 ----------------------------------------------------------------------
 #P M062X/Def2TZVPP Symm(None) scf(xqc) pop(None) opt(NoFreeze,TS,CalcA
 ll,NoEigentest,MaxCycle=999)
 ----------------------------------------------------------------------

 ------------------------------
 Gaussian input prepared by ASE
 ------------------------------
 Symbolic Z-matrix:
 Charge =  0 Multiplicity = 1

 SCF Done:  E(RM062X) =  -764.494636231     A.U. after   15 cycles
 SCF Done:  E(RM062X) =  -764.509470942     A.U. after   15 cycles
 SCF Done:  E(RM062X) =  -764.511206184     A.U. after   14 cycles
 SCF Done:  E(RM062X) =  -764.511259637     A.U. after   12 cycles
 SCF Done:  E(RM062X) =  -764.511260222     A.U. after    9 cycles

 Isotropic polarizability for W=    0.000000       47.97 Bohr**3.
 End of Minotr F.D. properties file   721 does not exist.

 Optimization completed.
    -- Stationary point found.

                          Input orientation:
 ---------------------------------------------------------------------
 Center     Atomic      Atomic             Coordinates (Angstroms)
 Number     Number       Type             X           Y           Z
 ---------------------------------------------------------------------
      1          6           0        1.808299   -0.149749   -0.022825
      2          8           0        1.244494   -0.549400   -1.077080
      3          6           0        0.058545   -0.027431    0.017937
      4          6           0       -0.333483   -1.160227    1.001729
      5          9           0       -1.647972   -1.136816    1.174081
      6          9           0        0.016385   -2.344776    0.529213
      7          9           0        0.237254   -0.981305    2.183608
      8          9           0       -0.080215    1.178636    0.608636
      9          9           0       -0.904243    0.027439   -0.938272
     10          8           0        3.081229    0.140246   -0.126554
     11          1           0        3.418565    0.421212    0.731824
 ---------------------------------------------------------------------

 ******    1 imaginary frequencies (negative Signs) ******

                      1                      2                      3
                      A                      A                      A
 Frequencies --   -740.2640                39.2037                77.2409
 Red. masses --     12.3896                14.3789                 8.7071
 Frc consts  --      4.0002                 0.0130                 0.0306
 IR Inten    --     54.9969                 0.9079                 3.6739

                      4                      5                      6
                      A                      A                      A
 Frequencies --    137.7765               214.4743               232.6732
 Red. masses --     13.5010                14.7126                13.8456
 Frc consts  --      0.1510                 0.3987                 0.4416
 IR Inten    --      6.0282                 0.8509                 2.5581

                      7                      8                      9
                      A                      A                      A
 Frequencies --    316.6073               354.5705               375.7241
 Red. masses --     14.3901                14.9432                15.1997
 Frc consts  --      0.8499                 1.1069                 1.2642
 IR Inten    --     28.9919                 3.7782                 2.2758

                     10                     11                     12
                      A                      A                      A
 Frequencies --    473.5544               481.4681               563.0168
 Red. masses --      6.9953                13.7339                15.9932
 Frc consts  --      0.9243                 1.8758                 2.9870
 IR Inten    --     47.4712                25.1417                27.8737

                     13                     14                     15
                      A                      A                      A
 Frequencies --    592.9348               637.9415               673.0381
 Red. masses --     11.7705                 1.3289                12.7004
 Frc consts  --      2.4381                 0.3186                 3.3896
 IR Inten    --      8.6249                76.1365                41.5872

                     16                     17                     18
                      A                      A                      A
 Frequencies --    699.7236               755.9937               877.1292
 Red. masses --      8.0948                13.8823                13.2909
 Frc consts  --      2.3351                 4.6746                 6.0247
 IR Inten    --     36.6214               149.5351               433.6721

                     19                     20                     21
                      A                      A                      A
 Frequencies --    993.8999              1109.0016              1187.0201
 Red. masses --     11.4024                13.1357                 1.3507
 Frc consts  --      6.6364                 9.5185                 1.1213
 IR Inten    --    190.4104               220.9300                88.0238

                     22                     23                     24
                      A                      A                      A
 Frequencies --   1281.2578              1295.3113              1363.4884
 Red. masses --     11.8677                13.0909                 8.8888
 Frc consts  --     11.4786                12.9410                 9.7363
 IR Inten    --    405.9959               253.8056                91.3411

                     25                     26                     27
                      A                      A                      A
 Frequencies --   1384.4087              1622.5076              3854.9159
 Red. masses --     11.4115                 8.4587                 1.0663
 Frc consts  --     12.8861                13.1198                 9.3360
 IR Inten    --    153.7725               146.3585               197.1392

 - Thermochemistry -
 -------------------
 Temperature   298.150 Kelvin.  Pressure   1.00000 Atm.
 Atom     1 has atomic number  6 and mass  12.00000

 Molecular mass:   163.98967 amu.
 Principal axes and moments of inertia in atomic units:
                           1         2         3
     Eigenvalues --   930.353971551.905921742.10505
           X            0.85662  -0.51451   0.03850
           Y            0.34802   0.63128   0.69309
           Z           -0.38091  -0.58032   0.71982
 This molecule is an asymmetric top.
 Rotational symmetry number  1.
 Warning -- assumption of classical behavior for rotation
           may cause significant error
 Rotational temperatures (Kelvin)      0.09310     0.05581     0.04972
 Rotational constants (GHZ):           1.93984     1.16292     1.03595
    1 imaginary frequencies ignored.
 Zero-point vibrational energy     129166.1 (Joules/Mol)
                                   30.87143 (Kcal/Mol)
 Warning -- explicit consideration of  12 degrees of freedom as
           vibrations may cause significant error
 Vibrational temperatures:     56.41   111.13   198.23   308.58   334.76
          (Kelvin)            455.53   510.15   540.58   681.34   692.73
                              810.06   853.10   917.86   968.35  1006.75
                             1087.71  1261.99  1430.00  1595.61  1707.86
                             1843.44  1863.66  1961.76  1991.86  2334.43
                             5546.36

 Zero-point correction=                           0.049197 (Hartree/Particle)
 Thermal correction to Energy=                    0.057949
 Thermal correction to Enthalpy=                  0.058893
 Thermal correction to Gibbs Free Energy=         0.014164
 Sum of electronic and zero-point Energies=           -764.462063
 Sum of electronic and thermal Energies=              -764.453311
 Sum of electronic and thermal Enthalpies=            -764.452367
 Sum of electronic and thermal Free Energies=         -764.497097

                     E (Thermal)             CV                S
                      KCal/Mol        Cal/Mol-Kelvin    Cal/Mol-Kelvin
 Total                   36.363             30.300             94.141
 Electronic               0.000              0.000              0.000
 Translational            0.889              2.981             41.192
 Rotational               0.889              2.981             29.310
 Vibrational             34.586             24.338             23.638
 Vibration     1          0.594              1.981              5.299
 Vibration     2          0.599              1.964              3.960
 Vibration     3          0.614              1.916              2.835
 Vibration     4          0.644              1.819              2.005
 Vibration     5          0.653              1.791              1.858
 Vibration     6          0.703              1.642              1.328
 Vibration     7          0.730              1.566              1.146
 Vibration     8          0.747              1.522              1.056
 Vibration     9          0.830              1.309              0.728
 Vibration    10          0.838              1.291              0.706
 Vibration    11          0.919              1.111              0.518
 Vibration    12          0.950              1.047              0.462

 Normal termination of Gaussian 16 at Sat May 24 05:31:21 2025.
