 Gaussian 16, Revision C.01,
 Gaussian 16:  ES64L-G16RevC.01  3-Jul-2019

 -----------------------------------------------------------------
 #P M062X/Def2TZVPP Symm(None) scf(xqc) pop(None) freq opt(CalcFC)
 -----------------------------------------------------------------

 ------------------------------
 Gaussian input prepared by ASE
 ------------------------------
 Symbolic Z-matrix:
 Charge =  0 Multiplicity = 1

 SCF Done:  E(RM062X) =  -764.491240388     A.U. after   14 cycles
 SCF Done:  E(RM062X) =  -764.491241001     A.U. after   10 cycles
 Optimization completed.
    -- Stationary point found.
 Normal termination of Gaussian 16 at Sat May 24 06:34:10 2025.

 ---------------------------------------------------------------------
 #P Geom=AllCheck Guess=TCheck SCRF=Check GenChk RM062X/def2TZVPP Freq
 ---------------------------------------------------------------------

 Structure from the checkpoint file:  "/tmp/Gau-260426.chk"
 ------------------------------
 Gaussian input prepared by ASE
 ------------------------------
 Charge =  0 Multiplicity = 1

                          Input orientation:
 ---------------------------------------------------------------------
 Center     Atomic      Atomic             Coordinates (Angstroms)
 Number     Number       Type             X           Y           Z
 ---------------------------------------------------------------------
      1          6           0        1.347721   -0.000585    0.000122
      2          8           0        0.000892   -0.002044   -0.005429
      3          6           0        1.998690   -1.159698   -0.082433
      4          6           0        1.432410   -2.549975    0.036310
      5          9           0        1.383831   -3.145605   -1.158295
      6          9           0        2.233537   -3.282044    0.810438
      7          9           0        0.216639   -2.570336    0.559718
      8          9           0       -0.401255    0.551430    1.251288
      9          9           0        3.301509   -1.165942   -0.328527
     10          8           0        1.975294    1.176682    0.001618
     11          1           0        1.343650    1.876944   -0.198843
 ---------------------------------------------------------------------

 SCF Done:  E(RM062X) =  -764.491241001     A.U. after    1 cycles

 Isotropic polarizability for W=    0.000000       51.23 Bohr**3.
 End of Minotr F.D. properties file   721 does not exist.

                      1                      2                      3
                      A                      A                      A
 Frequencies --     22.2265                78.8055               104.0624
 Red. masses --     18.5805                16.2548                14.8822
 Frc consts  --      0.0054                 0.0595                 0.0950
 IR Inten    --      0.1837                 1.7464                 1.2052

                      4                      5                      6
                      A                      A                      A
 Frequencies --    194.2190               216.2621               258.6770
 Red. masses --     13.3099                 2.8864                 1.6855
 Frc consts  --      0.2958                 0.0795                 0.0664
 IR Inten    --      0.1184                25.3977                76.1275

                      7                      8                      9
                      A                      A                      A
 Frequencies --    270.5513               327.0349               368.1434
 Red. masses --     10.4972                10.2837                13.2686
 Frc consts  --      0.4527                 0.6480                 1.0595
 IR Inten    --      8.1600                 3.2049                 0.7904

                     10                     11                     12
                      A                      A                      A
 Frequencies --    375.5981               496.6473               512.6814
 Red. masses --     12.2017                16.4655                13.2716
 Frc consts  --      1.0142                 2.3929                 2.0553
 IR Inten    --      0.7217                 1.8248                 5.3565

                     13                     14                     15
                      A                      A                      A
 Frequencies --    594.4696               612.5970               683.7972
 Red. masses --      8.9281                13.5806                10.4834
 Frc consts  --      1.8590                 3.0027                 2.8881
 IR Inten    --     21.4297                 2.1297                21.9979

                     16                     17                     18
                      A                      A                      A
 Frequencies --    751.6243               819.0115               899.8499
 Red. masses --     14.5369                11.9070                15.5707
 Frc consts  --      4.8386                 4.7058                 7.4285
 IR Inten    --     50.7789                34.2923               102.8561

                     19                     20                     21
                      A                      A                      A
 Frequencies --   1048.4770              1190.0315              1225.5527
 Red. masses --      8.9258                 2.9618                12.9323
 Frc consts  --      5.7812                 2.4713                11.4443
 IR Inten    --    243.8771                20.2031               296.0713

                     22                     23                     24
                      A                      A                      A
 Frequencies --   1278.5321              1307.8502              1377.7173
 Red. masses --     12.7394                 2.2502                 8.5097
 Frc consts  --     12.2693                 2.2677                 9.5166
 IR Inten    --    320.4347                84.1610               216.2253

                     25                     26                     27
                      A                      A                      A
 Frequencies --   1417.2052              1844.3045              3851.9909
 Red. masses --     10.7309                 9.6924                 1.0657
 Frc consts  --     12.6985                19.4244                 9.3167
 IR Inten    --    268.3554                87.7764               167.7937

 - Thermochemistry -
 -------------------
 Temperature   298.150 Kelvin.  Pressure   1.00000 Atm.
 Atom     1 has atomic number  6 and mass  12.00000

 Molecular mass:   163.98967 amu.
 Principal axes and moments of inertia in atomic units:
                           1         2         3
     Eigenvalues --   913.169271756.928072280.94568
           X           -0.31055   0.90011   0.30556
           Y            0.93987   0.33883  -0.04288
           Z            0.14213  -0.27387   0.95121
 This molecule is an asymmetric top.
 Rotational symmetry number  1.
 Warning -- assumption of classical behavior for rotation
           may cause significant error
 Rotational temperatures (Kelvin)      0.09485     0.04930     0.03797
 Rotational constants (GHZ):           1.97635     1.02721     0.79122
 Zero-point vibrational energy     132354.4 (Joules/Mol)
                                   31.63345 (Kcal/Mol)
 Warning -- explicit consideration of  14 degrees of freedom as
           vibrations may cause significant error
 Vibrational temperatures:     31.98   113.38   149.72   279.44   311.15
          (Kelvin)            372.18   389.26   470.53   529.68   540.40
                              714.56   737.63   855.31   881.39   983.83
                             1081.42  1178.37  1294.68  1508.52  1712.19
                             1763.30  1839.52  1881.70  1982.23  2039.04
                             2653.54  5542.16

 Zero-point correction=                           0.050411 (Hartree/Particle)
 Thermal correction to Energy=                    0.059942
 Thermal correction to Enthalpy=                  0.060886
 Thermal correction to Gibbs Free Energy=         0.013944
 Sum of electronic and zero-point Energies=           -764.440830
 Sum of electronic and thermal Energies=              -764.431299
 Sum of electronic and thermal Enthalpies=            -764.430355
 Sum of electronic and thermal Free Energies=         -764.477297

                     E (Thermal)             CV                S
                      KCal/Mol        Cal/Mol-Kelvin    Cal/Mol-Kelvin
 Total                   37.614             32.186             98.799
 Electronic               0.000              0.000              0.000
 Translational            0.889              2.981             41.192
 Rotational               0.889              2.981             29.683
 Vibrational             35.837             26.224             27.924
 Vibration     1          0.593              1.985              6.425
 Vibration     2          0.600              1.963              3.920
 Vibration     3          0.605              1.946              3.377
 Vibration     4          0.635              1.848              2.187
 Vibration     5          0.645              1.816              1.990
 Vibration     6          0.667              1.748              1.671
 Vibration     7          0.674              1.727              1.593
 Vibration     8          0.711              1.621              1.275
 Vibration     9          0.741              1.538              1.088
 Vibration    10          0.746              1.522              1.057
 Vibration    11          0.852              1.257              0.667
 Vibration    12          0.868              1.222              0.627
 Vibration    13          0.952              1.044              0.459
 Vibration    14          0.972              1.005              0.428

 Optimization completed.
    -- Stationary point found.
 Normal termination of Gaussian 16 at Sat May 24 06:37:29 2025.
