 Gaussian 16, Revision C.01,
 Gaussian 16:  ES64L-G16RevC.01  3-Jul-2019

 -----------------------------------------------------------------
 #P M062X/Def2TZVPP Symm(None) scf(xqc) pop(None) freq opt(CalcFC)
 -----------------------------------------------------------------

 ------------------------------
 Gaussian input prepared by ASE
 ------------------------------
 Symbolic Z-matrix:
 Charge =  0 Multiplicity = 1

 SCF Done:  E(RM062X) =  -764.530695082     A.U. after   14 cycles
 SCF Done:  E(RM062X) =  -764.562913112     A.U. after   14 cycles
 SCF Done:  E(RM062X) =  -764.537309516     A.U. after   14 cycles
 SCF Done:  E(RM062X) =  -764.567127058     A.U. after   13 cycles
 SCF Done:  E(RM062X) =  -764.587593128     A.U. after   14 cycles
 SCF Done:  E(RM062X) =  -764.589520844     A.U. after   14 cycles
 SCF Done:  E(RM062X) =  -764.573412631     A.U. after   14 cycles
 SCF Done:  E(RM062X) =  -764.589904917     A.U. after   14 cycles
 SCF Done:  E(RM062X) =  -764.591139796     A.U. after   12 cycles
 SCF Done:  E(RM062X) =  -764.591984363     A.U. after   11 cycles
 SCF Done:  E(RM062X) =  -764.592004268     A.U. after   10 cycles
 SCF Done:  E(RM062X) =  -764.592014715     A.U. after    9 cycles
 SCF Done:  E(RM062X) =  -764.592024006     A.U. after   11 cycles
 SCF Done:  E(RM062X) =  -764.592027085     A.U. after    8 cycles
 SCF Done:  E(RM062X) =  -764.592028567     A.U. after    8 cycles
 SCF Done:  E(RM062X) =  -764.592029131     A.U. after    7 cycles
 Optimization completed.
    -- Stationary point found.
 Normal termination of Gaussian 16 at Sat May 24 04:59:48 2025.

 ---------------------------------------------------------------------
 #P Geom=AllCheck Guess=TCheck SCRF=Check GenChk RM062X/def2TZVPP Freq
 ---------------------------------------------------------------------

 Structure from the checkpoint file:  "/tmp/Gau-102654.chk"
 ------------------------------
 Gaussian input prepared by ASE
 ------------------------------
 Charge =  0 Multiplicity = 1

                          Input orientation:
 ---------------------------------------------------------------------
 Center     Atomic      Atomic             Coordinates (Angstroms)
 Number     Number       Type             X           Y           Z
 ---------------------------------------------------------------------
      1          6           0        0.181518   -0.440524    0.527562
      2          8           0        1.436209   -0.056220    0.255874
      3          6           0        2.256269    1.900460    1.475580
      4          6           0        1.933657    1.235576    0.114369
      5          9           0        2.800105    3.089795    1.261323
      6          9           0        3.082224    1.108597   -0.543709
      7          9           0        1.134976    2.027621   -0.593529
      8          9           0        1.164776    2.056405    2.208777
      9          9           0        3.115501    1.145516    2.142969
     10          8           0       -0.578116    0.611938    0.675380
     11          1           0       -1.467461    0.299487    0.872671
 ---------------------------------------------------------------------

 SCF Done:  E(RM062X) =  -764.592029131     A.U. after    1 cycles

 Isotropic polarizability for W=    0.000000       46.36 Bohr**3.
 End of Minotr F.D. properties file   721 does not exist.

                      1                      2                      3
                      A                      A                      A
 Frequencies --     43.0657               108.9249               163.7806
 Red. masses --     14.4339                 8.7538                13.4831
 Frc consts  --      0.0158                 0.0612                 0.2131
 IR Inten    --      0.6815                 3.3056                 2.2538

                      4                      5                      6
                      A                      A                      A
 Frequencies --    219.3940               228.6916               264.3885
 Red. masses --     15.4839                10.2122                13.5738
 Frc consts  --      0.4391                 0.3147                 0.5590
 IR Inten    --      1.6996                 1.8456                 1.6198

                      7                      8                      9
                      A                      A                      A
 Frequencies --    344.2809               361.1584               401.9252
 Red. masses --     15.9416                15.3413                13.1792
 Frc consts  --      1.1133                 1.1790                 1.2544
 IR Inten    --      0.5449                 0.5848                 0.8966

                     10                     11                     12
                      A                      A                      A
 Frequencies --    469.6511               518.6057               597.0883
 Red. masses --     15.2064                14.1965                13.1322
 Frc consts  --      1.9762                 2.2496                 2.7585
 IR Inten    --      2.2899                 7.7382                 2.1336

                     13                     14                     15
                      A                      A                      A
 Frequencies --    604.2271               701.2562               729.1362
 Red. masses --     17.3808                 5.0019                 1.3665
 Frc consts  --      3.7387                 1.4492                 0.4280
 IR Inten    --      1.9272                83.4018                42.3148

                     16                     17                     18
                      A                      A                      A
 Frequencies --    788.2432               814.6921              1089.3119
 Red. masses --      8.5134                13.7837                 8.1711
 Frc consts  --      3.1166                 5.3902                 5.7126
 IR Inten    --     22.4040                 8.5602               235.5365

                     19                     20                     21
                      A                      A                      A
 Frequencies --   1121.3055              1200.4188              1276.7100
 Red. masses --      3.5607                 8.9646                10.1462
 Frc consts  --      2.6377                 7.6111                 9.7440
 IR Inten    --    302.7051               242.2249               141.7985

                     22                     23                     24
                      A                      A                      A
 Frequencies --   1292.0543              1294.3121              1352.2375
 Red. masses --     12.2053                13.0354                 6.9653
 Frc consts  --     12.0049                12.8662                 7.5041
 IR Inten    --    211.8560               195.1318               440.4151

                     25                     26                     27
                      A                      A                      A
 Frequencies --   1368.9465              1428.1082              3865.1927
 Red. masses --      2.2930                12.1435                 1.0666
 Frc consts  --      2.5318                14.5921                 9.3887
 IR Inten    --    205.0234                15.9541               204.6927

 - Thermochemistry -
 -------------------
 Temperature   298.150 Kelvin.  Pressure   1.00000 Atm.
 Atom     1 has atomic number  6 and mass  12.00000

 Molecular mass:   163.98967 amu.
 Principal axes and moments of inertia in atomic units:
                           1         2         3
     Eigenvalues --   920.981441436.130641646.18228
           X            0.77973  -0.45407  -0.43109
           Y            0.54532   0.15418   0.82393
           Z            0.30766   0.87752  -0.36783
 This molecule is an asymmetric top.
 Rotational symmetry number  1.
 Warning -- assumption of classical behavior for rotation
           may cause significant error
 Rotational temperatures (Kelvin)      0.09405     0.06031     0.05262
 Rotational constants (GHZ):           1.95958     1.25667     1.09632
 Zero-point vibrational energy     135459.8 (Joules/Mol)
                                   32.37566 (Kcal/Mol)
 Warning -- explicit consideration of  13 degrees of freedom as
           vibrations may cause significant error
 Vibrational temperatures:     61.96   156.72   235.64   315.66   329.04
          (Kelvin)            380.40   495.34   519.63   578.28   675.72
                              746.16   859.08   869.35  1008.95  1049.06
                             1134.11  1172.16  1567.28  1613.31  1727.13
                             1836.90  1858.98  1862.23  1945.57  1969.61
                             2054.73  5561.15

 Zero-point correction=                           0.051594 (Hartree/Particle)
 Thermal correction to Energy=                    0.060425
 Thermal correction to Enthalpy=                  0.061369
 Thermal correction to Gibbs Free Energy=         0.016913
 Sum of electronic and zero-point Energies=           -764.540435
 Sum of electronic and thermal Energies=              -764.531605
 Sum of electronic and thermal Enthalpies=            -764.530660
 Sum of electronic and thermal Free Energies=         -764.575116

                     E (Thermal)             CV                S
                      KCal/Mol        Cal/Mol-Kelvin    Cal/Mol-Kelvin
 Total                   37.917             30.765             93.564
 Electronic               0.000              0.000              0.000
 Translational            0.889              2.981             41.192
 Rotational               0.889              2.981             29.167
 Vibrational             36.140             24.803             23.205
 Vibration     1          0.595              1.980              5.113
 Vibration     2          0.606              1.942              3.288
 Vibration     3          0.623              1.887              2.506
 Vibration     4          0.647              1.812              1.964
 Vibration     5          0.651              1.797              1.889
 Vibration     6          0.671              1.738              1.633
 Vibration     7          0.723              1.587              1.192
 Vibration     8          0.735              1.552              1.117
 Vibration     9          0.768              1.466              0.956
 Vibration    10          0.827              1.317              0.739
 Vibration    11          0.874              1.209              0.613
 Vibration    12          0.955              1.038              0.455
 Vibration    13          0.963              1.023              0.442

                           ! Non-Optimized Parameters !
 Normal termination of Gaussian 16 at Sat May 24 05:03:17 2025.
