 Gaussian 16, Revision C.01,
 Gaussian 16:  ES64L-G16RevC.01  3-Jul-2019

 -----------------------------------------------------------------
 #P M062X/Def2TZVPP Symm(None) scf(xqc) pop(None) freq opt(CalcFC)
 -----------------------------------------------------------------

 ------------------------------
 Gaussian input prepared by ASE
 ------------------------------
 Symbolic Z-matrix:
 Charge =  0 Multiplicity = 1

 SCF Done:  E(RM062X) =  -764.453471348     A.U. after   15 cycles
 SCF Done:  E(RM062X) =  -764.465679082     A.U. after   15 cycles
 SCF Done:  E(RM062X) =  -764.459427833     A.U. after   14 cycles
 SCF Done:  E(RM062X) =  -764.465569798     A.U. after   15 cycles
 SCF Done:  E(RM062X) =  -764.465684944     A.U. after   10 cycles
 SCF Done:  E(RM062X) =  -764.466362625     A.U. after   13 cycles
 SCF Done:  E(RM062X) =  -764.466406661     A.U. after   12 cycles
 SCF Done:  E(RM062X) =  -764.466404441     A.U. after   13 cycles
 SCF Done:  E(RM062X) =  -764.466409992     A.U. after   12 cycles
 SCF Done:  E(RM062X) =  -764.466411120     A.U. after   10 cycles
 Optimization completed.
    -- Stationary point found.
 Normal termination of Gaussian 16 at Sat May 24 08:50:51 2025.

 ---------------------------------------------------------------------
 #P Geom=AllCheck Guess=TCheck SCRF=Check GenChk RM062X/def2TZVPP Freq
 ---------------------------------------------------------------------

 Structure from the checkpoint file:  "/tmp/Gau-129543.chk"
 ------------------------------
 Gaussian input prepared by ASE
 ------------------------------
 Charge =  0 Multiplicity = 1

                          Input orientation:
 ---------------------------------------------------------------------
 Center     Atomic      Atomic             Coordinates (Angstroms)
 Number     Number       Type             X           Y           Z
 ---------------------------------------------------------------------
      1          6           0        0.634549    2.034719    0.897921
      2          8           0        0.699710    0.128819   -0.283083
      3          6           0        1.119717    3.491170    0.887636
      4          6           0       -0.092580    4.443236    0.808697
      5          9           0        0.316770    5.699660    0.746503
      6          9           0       -0.796214    4.163010   -0.285788
      7          9           0       -0.871590    4.297110    1.868389
      8          9           0        1.762650    3.712064    2.044899
      9          9           0        1.950888    3.811461   -0.118534
     10          8           0        1.066526    1.500767   -0.146736
     11          1           0        0.177451   -0.003933    0.530107
 ---------------------------------------------------------------------

 SCF Done:  E(RM062X) =  -764.466411120     A.U. after    1 cycles

 Isotropic polarizability for W=    0.000000       49.85 Bohr**3.
 End of Minotr F.D. properties file   721 does not exist.

                      1                      2                      3
                      A                      A                      A
 Frequencies --     42.3151                59.5610               166.1267
 Red. masses --     15.9725                15.3088                 6.1385
 Frc consts  --      0.0169                 0.0320                 0.0998
 IR Inten    --      0.2382                 0.1857                 3.6804

                      4                      5                      6
                      A                      A                      A
 Frequencies --    204.6940               223.9620               258.4019
 Red. masses --      9.0100                 8.0985                13.2058
 Frc consts  --      0.2224                 0.2393                 0.5195
 IR Inten    --      1.1580                 3.4185                 0.7254

                      7                      8                      9
                      A                      A                      A
 Frequencies --    343.6112               358.7825               383.6093
 Red. masses --     14.6378                15.7058                10.4380
 Frc consts  --      1.0183                 1.1912                 0.9050
 IR Inten    --      1.0537                 0.3994                 9.2706

                     10                     11                     12
                      A                      A                      A
 Frequencies --    413.7201               433.7720               504.0052
 Red. masses --      2.2389                 2.6991                12.7943
 Frc consts  --      0.2258                 0.2992                 1.9149
 IR Inten    --     55.1903                43.9864                10.8253

                     13                     14                     15
                      A                      A                      A
 Frequencies --    548.8389               609.6838               649.9341
 Red. masses --     16.9663                16.5739                14.9958
 Frc consts  --      3.0111                 3.6298                 3.7321
 IR Inten    --      4.3637                 2.9183                11.7458

                     16                     17                     18
                      A                      A                      A
 Frequencies --    751.0146               842.0719               961.3736
 Red. masses --     14.1220                13.5004                11.1826
 Frc consts  --      4.6929                 5.6402                 6.0894
 IR Inten    --     53.1369                26.0362                44.4775

                     19                     20                     21
                      A                      A                      A
 Frequencies --   1070.3724              1228.3017              1245.8978
 Red. masses --     12.7334                11.9446                13.1061
 Frc consts  --      8.5954                10.6177                11.9864
 IR Inten    --    139.8006               224.8823               150.1035

                     22                     23                     24
                      A                      A                      A
 Frequencies --   1282.1552              1302.3279              1386.2923
 Red. masses --     12.8439                12.9276                11.7292
 Frc consts  --     12.4402                12.9184                13.2809
 IR Inten    --    227.2350               196.4778               145.3574

                     25                     26                     27
                      A                      A                      A
 Frequencies --   1469.0422              1521.3171              3677.0643
 Red. masses --      1.7663                 2.8930                 1.0662
 Frc consts  --      2.2458                 3.9449                 8.4937
 IR Inten    --     25.7107                44.1415                63.4390

 - Thermochemistry -
 -------------------
 Temperature   298.150 Kelvin.  Pressure   1.00000 Atm.
 Atom     1 has atomic number  6 and mass  12.00000

 Molecular mass:   163.98967 amu.
 Principal axes and moments of inertia in atomic units:
                           1         2         3
     Eigenvalues --   834.040731924.009122096.30188
           X           -0.21981   0.94397  -0.24617
           Y            0.94301   0.14098  -0.30141
           Z            0.24982   0.29839   0.92117
 This molecule is an asymmetric top.
 Rotational symmetry number  1.
 Warning -- assumption of classical behavior for rotation
           may cause significant error
 Rotational temperatures (Kelvin)      0.10385     0.04502     0.04132
 Rotational constants (GHZ):           2.16385     0.93801     0.86092
 Zero-point vibrational energy     131219.9 (Joules/Mol)
                                   31.36230 (Kcal/Mol)
 Warning -- explicit consideration of  14 degrees of freedom as
           vibrations may cause significant error
 Vibrational temperatures:     60.88    85.69   239.02   294.51   322.23
          (Kelvin)            371.78   494.38   516.21   551.93   595.25
                              624.10   725.15   789.66   877.20   935.11
                             1080.54  1211.55  1383.20  1540.03  1767.25
                             1792.57  1844.74  1873.76  1994.57  2113.62
                             2188.84  5290.48

 Zero-point correction=                           0.049979 (Hartree/Particle)
 Thermal correction to Energy=                    0.059268
 Thermal correction to Enthalpy=                  0.060212
 Thermal correction to Gibbs Free Energy=         0.014379
 Sum of electronic and zero-point Energies=           -764.416432
 Sum of electronic and thermal Energies=              -764.407143
 Sum of electronic and thermal Enthalpies=            -764.406199
 Sum of electronic and thermal Free Energies=         -764.452032

                     E (Thermal)             CV                S
                      KCal/Mol        Cal/Mol-Kelvin    Cal/Mol-Kelvin
 Total                   37.191             31.974             96.463
 Electronic               0.000              0.000              0.000
 Translational            0.889              2.981             41.192
 Rotational               0.889              2.981             29.599
 Vibrational             35.414             26.013             25.672
 Vibration     1          0.595              1.980              5.148
 Vibration     2          0.597              1.974              4.472
 Vibration     3          0.624              1.884              2.479
 Vibration     4          0.640              1.833              2.090
 Vibration     5          0.649              1.805              1.927
 Vibration     6          0.667              1.749              1.673
 Vibration     7          0.722              1.588              1.195
 Vibration     8          0.734              1.557              1.127
 Vibration     9          0.753              1.505              1.025
 Vibration    10          0.777              1.440              0.914
 Vibration    11          0.795              1.397              0.846
 Vibration    12          0.859              1.241              0.648
 Vibration    13          0.904              1.142              0.547
 Vibration    14          0.969              1.011              0.433

 Optimization completed.
    -- Stationary point found.
 Normal termination of Gaussian 16 at Sat May 24 08:54:07 2025.
