 Gaussian 16, Revision C.01,
 Gaussian 16:  ES64L-G16RevC.01  3-Jul-2019

 -----------------------------------------------------------------
 #P M062X/Def2TZVPP Symm(None) scf(xqc) pop(None) freq opt(CalcFC)
 -----------------------------------------------------------------

 ------------------------------
 Gaussian input prepared by ASE
 ------------------------------
 Symbolic Z-matrix:
 Charge =  0 Multiplicity = 1

 SCF Done:  E(RM062X) =  -764.387969802     A.U. after   18 cycles
 SCF Done:  E(RM062X) =  -764.432479712     A.U. after   16 cycles
 SCF Done:  E(RM062X) =  -764.435316293     A.U. after   17 cycles
 SCF Done:  E(RM062X) =  -764.443125296     A.U. after   17 cycles
 SCF Done:  E(RM062X) =  -764.416226043     A.U. after   16 cycles
 SCF Done:  E(RM062X) =  -764.451154501     A.U. after   15 cycles
 SCF Done:  E(RM062X) =  -764.454243764     A.U. after   14 cycles
 SCF Done:  E(RM062X) =  -764.455156057     A.U. after   14 cycles
 SCF Done:  E(RM062X) =  -764.456136821     A.U. after   14 cycles
 SCF Done:  E(RM062X) =  -764.456809902     A.U. after   15 cycles
 SCF Done:  E(RM062X) =  -764.464720087     A.U. after   12 cycles
 SCF Done:  E(RM062X) =  -764.464784864     A.U. after   12 cycles
 SCF Done:  E(RM062X) =  -764.464822930     A.U. after   12 cycles
 SCF Done:  E(RM062X) =  -764.464863976     A.U. after   12 cycles
 SCF Done:  E(RM062X) =  -764.464873834     A.U. after   11 cycles
 SCF Done:  E(RM062X) =  -764.464874993     A.U. after    9 cycles
 SCF Done:  E(RM062X) =  -764.464875212     A.U. after    9 cycles
 SCF Done:  E(RM062X) =  -764.464875290     A.U. after    8 cycles
 SCF Done:  E(RM062X) =  -764.464875303     A.U. after    7 cycles
 Optimization completed.
    -- Stationary point found.
 Normal termination of Gaussian 16 at Sat May 24 09:04:02 2025.

 ---------------------------------------------------------------------
 #P Geom=AllCheck Guess=TCheck SCRF=Check GenChk RM062X/def2TZVPP Freq
 ---------------------------------------------------------------------

 Structure from the checkpoint file:  "/tmp/Gau-73992.chk"
 ------------------------------
 Gaussian input prepared by ASE
 ------------------------------
 Charge =  0 Multiplicity = 1

                          Input orientation:
 ---------------------------------------------------------------------
 Center     Atomic      Atomic             Coordinates (Angstroms)
 Number     Number       Type             X           Y           Z
 ---------------------------------------------------------------------
      1          6           0        0.397378    2.173296    0.419216
      2          8           0        0.729628   -0.192897    0.150152
      3          6           0       -1.047182    1.747917    0.743215
      4          6           0       -1.909849    2.984660    1.055138
      5          9           0       -3.150758    2.611848    1.332366
      6          9           0       -1.412024    3.632101    2.099565
      7          9           0       -1.929048    3.798464    0.008545
      8          9           0       -1.590903    1.122994   -0.306333
      9          9           0       -1.064253    0.953791    1.818772
     10          8           0        1.214185    1.325644    0.150265
     11          1           0        1.575745   -0.593266   -0.087508
 ---------------------------------------------------------------------

 SCF Done:  E(RM062X) =  -764.464875303     A.U. after    1 cycles

 Isotropic polarizability for W=    0.000000       53.49 Bohr**3.
 End of Minotr F.D. properties file   721 does not exist.

                      1                      2                      3
                      A                      A                      A
 Frequencies --     59.9335                82.0783               126.4722
 Red. masses --     13.5646                11.6982                 1.1586
 Frc consts  --      0.0287                 0.0464                 0.0109
 IR Inten    --      8.4346                 7.0965                94.8370

                      4                      5                      6
                      A                      A                      A
 Frequencies --    138.3853               220.5143               226.2451
 Red. masses --     11.5162                 9.7476                10.2993
 Frc consts  --      0.1299                 0.2793                 0.3106
 IR Inten    --      0.9092                18.2200                21.6667

                      7                      8                      9
                      A                      A                      A
 Frequencies --    249.5714               293.4972               371.8956
 Red. masses --     17.8224                17.8395                17.8655
 Frc consts  --      0.6540                 0.9054                 1.4558
 IR Inten    --      0.6146                39.4054                46.6663

                     10                     11                     12
                      A                      A                      A
 Frequencies --    401.8163               421.3989               468.1643
 Red. masses --     16.1131                16.7782                 9.3228
 Frc consts  --      1.5328                 1.7554                 1.2039
 IR Inten    --    233.2534                 3.1787                80.0658

                     13                     14                     15
                      A                      A                      A
 Frequencies --    554.3518               560.6139               605.5446
 Red. masses --     13.3072                14.2746                15.0354
 Frc consts  --      2.4094                 2.6433                 3.2483
 IR Inten    --      3.3091                 0.5556                 0.1754

                     16                     17                     18
                      A                      A                      A
 Frequencies --    626.9528               767.0021               824.5644
 Red. masses --     15.7579                13.4596                12.1803
 Frc consts  --      3.6494                 4.6653                 4.8793
 IR Inten    --      0.1812                40.0297                 5.9424

                     19                     20                     21
                      A                      A                      A
 Frequencies --   1071.3051              1214.1650              1228.0443
 Red. masses --     11.9434                 1.2826                 7.5175
 Frc consts  --      8.0762                 1.1140                 6.6796
 IR Inten    --    202.5756               191.6840                95.4153

                     22                     23                     24
                      A                      A                      A
 Frequencies --   1243.1692              1293.0548              1294.2710
 Red. masses --     13.1787                12.7865                12.7692
 Frc consts  --     12.0001                12.5961                12.6027
 IR Inten    --    125.0262               266.3162               261.9349

                     25                     26                     27
                      A                      A                      A
 Frequencies --   1422.6430              1666.9054              3847.3739
 Red. masses --     12.4138                11.9707                 1.0684
 Frc consts  --     14.8029                19.5971                 9.3180
 IR Inten    --     34.0835               123.0576               144.8206

 - Thermochemistry -
 -------------------
 Temperature   298.150 Kelvin.  Pressure   1.00000 Atm.
 Atom     1 has atomic number  6 and mass  12.00000

 Molecular mass:   163.98967 amu.
 Principal axes and moments of inertia in atomic units:
                           1         2         3
     Eigenvalues --   721.277631912.709811990.18230
           X            0.71298   0.65904   0.23944
           Y           -0.66276   0.74489  -0.07676
           Z           -0.22894  -0.10396   0.96787
 This molecule is an asymmetric top.
 Rotational symmetry number  1.
 Warning -- assumption of classical behavior for rotation
           may cause significant error
 Rotational temperatures (Kelvin)      0.12008     0.04528     0.04352
 Rotational constants (GHZ):           2.50214     0.94355     0.90682
 Zero-point vibrational energy     127282.3 (Joules/Mol)
                                   30.42119 (Kcal/Mol)
 Warning -- explicit consideration of  15 degrees of freedom as
           vibrations may cause significant error
 Vibrational temperatures:     86.23   118.09   181.97   199.11   317.27
          (Kelvin)            325.52   359.08   422.28   535.07   578.12
                              606.30   673.58   797.59   806.60   871.24
                              902.05  1103.54  1186.36  1541.37  1746.91
                             1766.88  1788.64  1860.42  1862.17  2046.87
                             2398.31  5535.51

 Zero-point correction=                           0.048479 (Hartree/Particle)
 Thermal correction to Energy=                    0.058331
 Thermal correction to Enthalpy=                  0.059275
 Thermal correction to Gibbs Free Energy=         0.012707
 Sum of electronic and zero-point Energies=           -764.416396
 Sum of electronic and thermal Energies=              -764.406545
 Sum of electronic and thermal Enthalpies=            -764.405600
 Sum of electronic and thermal Free Energies=         -764.452168

                     E (Thermal)             CV                S
                      KCal/Mol        Cal/Mol-Kelvin    Cal/Mol-Kelvin
 Total                   36.603             33.407             98.010
 Electronic               0.000              0.000              0.000
 Translational            0.889              2.981             41.192
 Rotational               0.889              2.981             29.397
 Vibrational             34.826             27.445             27.420
 Vibration     1          0.597              1.973              4.459
 Vibration     2          0.600              1.961              3.841
 Vibration     3          0.611              1.927              2.999
 Vibration     4          0.614              1.915              2.826
 Vibration     5          0.647              1.810              1.955
 Vibration     6          0.650              1.801              1.909
 Vibration     7          0.662              1.763              1.734
 Vibration     8          0.688              1.686              1.454
 Vibration     9          0.744              1.530              1.072
 Vibration    10          0.767              1.466              0.956
 Vibration    11          0.784              1.424              0.887
 Vibration    12          0.825              1.321              0.743
 Vibration    13          0.910              1.130              0.535
 Vibration    14          0.916              1.117              0.523
 Vibration    15          0.964              1.020              0.440

 Optimization completed.
    -- Stationary point found.
 Normal termination of Gaussian 16 at Sat May 24 09:07:21 2025.
