 Gaussian 16, Revision C.01,
 Gaussian 16:  ES64L-G16RevC.01  3-Jul-2019

 ----------------------------------------------------------------------
 #P M062X/Def2TZVPP Symm(None) scf(xqc) pop(None) opt(NoFreeze,TS,CalcA
 ll,NoEigentest,MaxCycle=999)
 ----------------------------------------------------------------------

 ------------------------------
 Gaussian input prepared by ASE
 ------------------------------
 Symbolic Z-matrix:
 Charge =  0 Multiplicity = 1

 SCF Done:  E(RM062X) =  -764.441377041     A.U. after   23 cycles
 SCF Done:  E(RM062X) =  -764.453886894     A.U. after   20 cycles
 SCF Done:  E(RM062X) =  -764.454841840     A.U. after   20 cycles
 SCF Done:  E(RM062X) =  -764.454954120     A.U. after   16 cycles
 SCF Done:  E(RM062X) =  -764.454959556     A.U. after   15 cycles
 SCF Done:  E(RM062X) =  -764.454959622     A.U. after   11 cycles

 Isotropic polarizability for W=    0.000000       57.63 Bohr**3.
 End of Minotr F.D. properties file   721 does not exist.

 Optimization completed.
    -- Stationary point found.

                          Input orientation:
 ---------------------------------------------------------------------
 Center     Atomic      Atomic             Coordinates (Angstroms)
 Number     Number       Type             X           Y           Z
 ---------------------------------------------------------------------
      1          6           0        0.939747    0.278274    0.258661
      2          8           0        0.197997   -0.381058   -0.470206
      3          6           0        1.480393    1.457694   -0.278951
      4          6           0        1.072770    2.166093   -1.570713
      5          9           0        0.745529    3.418084   -1.228776
      6          9           0        2.116766    2.221666   -2.379356
      7          9           0        0.055430    1.615917   -2.178564
      8          9           0        1.678471   -0.748146   -1.611303
      9          9           0        2.421238    2.075080    0.339832
     10          8           0        1.444433   -0.126902    1.427147
     11          1           0        1.164524   -1.039217    1.575903
 ---------------------------------------------------------------------

 ******    1 imaginary frequencies (negative Signs) ******

                      1                      2                      3
                      A                      A                      A
 Frequencies --   -522.4513                43.1201                85.7087
 Red. masses --     15.6007                18.4742                16.6754
 Frc consts  --      2.5089                 0.0202                 0.0722
 IR Inten    --    314.3830                 1.1904                 3.3540

                      4                      5                      6
                      A                      A                      A
 Frequencies --    100.6733               191.7969               216.5200
 Red. masses --     11.0411                10.2894                10.4013
 Frc consts  --      0.0659                 0.2230                 0.2873
 IR Inten    --     10.1161                 3.3850                 8.3841

                      7                      8                      9
                      A                      A                      A
 Frequencies --    266.1807               286.5690               353.5689
 Red. masses --     16.2857                15.8549                 8.8540
 Frc consts  --      0.6798                 0.7671                 0.6521
 IR Inten    --      8.9657                54.1009                 2.3690

                     10                     11                     12
                      A                      A                      A
 Frequencies --    380.8841               387.8276               493.8750
 Red. masses --      4.0394                 1.5988                10.6477
 Frc consts  --      0.3453                 0.1417                 1.5302
 IR Inten    --     29.5303                55.9818                48.8832

                     13                     14                     15
                      A                      A                      A
 Frequencies --    528.4718               588.8059               623.6532
 Red. masses --     14.2382                13.1931                11.9602
 Frc consts  --      2.3429                 2.6949                 2.7408
 IR Inten    --      6.5207                16.4818                 3.4201

                     16                     17                     18
                      A                      A                      A
 Frequencies --    677.9903               759.4339               805.3725
 Red. masses --      6.4151                12.2912                11.2483
 Frc consts  --      1.7374                 4.1766                 4.2986
 IR Inten    --     83.7245                 2.1734                 4.2220

                     19                     20                     21
                      A                      A                      A
 Frequencies --   1078.0970              1191.7946              1228.7852
 Red. masses --     13.0201                 2.6240                 8.0620
 Frc consts  --      8.9162                 2.1960                 7.1721
 IR Inten    --    319.9616               130.9700               159.0828

                     22                     23                     24
                      A                      A                      A
 Frequencies --   1311.3038              1345.1456              1432.2207
 Red. masses --      2.9218                10.1676                12.6609
 Frc consts  --      2.9601                10.8394                15.3015
 IR Inten    --     61.7449               298.7259               410.6128

                     25                     26                     27
                      A                      A                      A
 Frequencies --   1542.1263              1640.7562              3835.1920
 Red. masses --      7.4478                12.7347                 1.0652
 Frc consts  --     10.4357                20.1989                 9.2308
 IR Inten    --    210.6979               277.1411               170.4424

 - Thermochemistry -
 -------------------
 Temperature   298.150 Kelvin.  Pressure   1.00000 Atm.
 Atom     1 has atomic number  6 and mass  12.00000

 Molecular mass:   163.98967 amu.
 Principal axes and moments of inertia in atomic units:
                           1         2         3
     Eigenvalues --   952.477751596.999271945.58614
           X           -0.01727   0.34447   0.93864
           Y            0.81460   0.54919  -0.18656
           Z           -0.57976   0.76140  -0.29009
 This molecule is an asymmetric top.
 Rotational symmetry number  1.
 Warning -- assumption of classical behavior for rotation
           may cause significant error
 Rotational temperatures (Kelvin)      0.09094     0.05424     0.04452
 Rotational constants (GHZ):           1.89479     1.13008     0.92761
    1 imaginary frequencies ignored.
 Zero-point vibrational energy     127975.7 (Joules/Mol)
                                   30.58694 (Kcal/Mol)
 Warning -- explicit consideration of  13 degrees of freedom as
           vibrations may cause significant error
 Vibrational temperatures:     62.04   123.32   144.85   275.95   311.52
          (Kelvin)            382.97   412.31   508.71   548.01   558.00
                              710.58   760.35   847.16   897.30   975.48
                             1092.66  1158.75  1551.14  1714.73  1767.95
                             1886.67  1935.36  2060.65  2218.78  2360.68
                             5517.99

 Zero-point correction=                           0.048743 (Hartree/Particle)
 Thermal correction to Energy=                    0.058067
 Thermal correction to Enthalpy=                  0.059011
 Thermal correction to Gibbs Free Energy=         0.013099
 Sum of electronic and zero-point Energies=           -764.406216
 Sum of electronic and thermal Energies=              -764.396893
 Sum of electronic and thermal Enthalpies=            -764.395948
 Sum of electronic and thermal Free Energies=         -764.441861

                     E (Thermal)             CV                S
                      KCal/Mol        Cal/Mol-Kelvin    Cal/Mol-Kelvin
 Total                   36.438             31.418             96.631
 Electronic               0.000              0.000              0.000
 Translational            0.889              2.981             41.192
 Rotational               0.889              2.981             29.472
 Vibrational             34.660             25.457             25.967
 Vibration     1          0.595              1.980              5.110
 Vibration     2          0.601              1.959              3.756
 Vibration     3          0.604              1.949              3.441
 Vibration     4          0.634              1.851              2.210
 Vibration     5          0.645              1.816              1.988
 Vibration     6          0.672              1.735              1.621
 Vibration     7          0.684              1.699              1.494
 Vibration     8          0.730              1.568              1.150
 Vibration     9          0.751              1.511              1.036
 Vibration    10          0.756              1.496              1.008
 Vibration    11          0.850              1.264              0.674
 Vibration    12          0.883              1.187              0.591
 Vibration    13          0.946              1.056              0.469

 Normal termination of Gaussian 16 at Sat May 24 06:55:05 2025.
