 Gaussian 16, Revision C.01,
 Gaussian 16:  ES64L-G16RevC.01  3-Jul-2019

 ----------------------------------------------------------------------
 #P M062X/Def2TZVPP Symm(None) scf(xqc) pop(None) opt(NoFreeze,TS,CalcA
 ll,NoEigentest,MaxCycle=999)
 ----------------------------------------------------------------------

 ------------------------------
 Gaussian input prepared by ASE
 ------------------------------
 Symbolic Z-matrix:
 Charge =  0 Multiplicity = 1

 SCF Done:  E(RM062X) =  -764.524432563     A.U. after   15 cycles
 SCF Done:  E(RM062X) =  -764.524432670     A.U. after    7 cycles

 Isotropic polarizability for W=    0.000000       49.82 Bohr**3.
 End of Minotr F.D. properties file   721 does not exist.

 Optimization completed.
    -- Stationary point found.

                          Input orientation:
 ---------------------------------------------------------------------
 Center     Atomic      Atomic             Coordinates (Angstroms)
 Number     Number       Type             X           Y           Z
 ---------------------------------------------------------------------
      1          6           0        2.017338   -0.000082   -0.000189
      2          8           0        2.457450   -0.924450    0.556655
      3          6           0        0.000027   -0.000221   -0.000097
      4          6           0       -0.898254    0.890499   -0.878569
      5          9           0       -1.351837    0.303685   -1.972026
      6          9           0       -1.930296    1.259033   -0.125799
      7          9           0       -0.223578    1.989063   -1.234357
      8          9           0        1.302231   -0.244339   -1.328409
      9          9           0       -0.536400   -1.167077    0.062077
     10          8           0        2.399245    1.254719   -0.000491
     11          1           0        1.839273    1.790803   -0.576253
 ---------------------------------------------------------------------

 ******    1 imaginary frequencies (negative Signs) ******

                      1                      2                      3
                      A                      A                      A
 Frequencies --   -457.7042                70.3819                93.0557
 Red. masses --     13.1399                17.6722                12.6701
 Frc consts  --      1.6219                 0.0516                 0.0646
 IR Inten    --     21.4381                 0.5647                 2.0899

                      4                      5                      6
                      A                      A                      A
 Frequencies --    141.4699               177.5777               219.2296
 Red. masses --     10.2211                14.5283                12.2059
 Frc consts  --      0.1205                 0.2699                 0.3456
 IR Inten    --      4.6529                64.0389                 2.0356

                      7                      8                      9
                      A                      A                      A
 Frequencies --    256.3217               286.6546               355.9645
 Red. masses --     13.8620                14.1511                13.9095
 Frc consts  --      0.5366                 0.6851                 1.0384
 IR Inten    --      1.3777                17.0321                10.6461

                     10                     11                     12
                      A                      A                      A
 Frequencies --    439.9308               461.2695               509.7457
 Red. masses --      3.6872                 2.1858                 3.2262
 Frc consts  --      0.4204                 0.2740                 0.4939
 IR Inten    --     28.2466                52.0718                41.6284

                     13                     14                     15
                      A                      A                      A
 Frequencies --    540.9903               572.1046               592.2320
 Red. masses --     11.9500                15.7188                13.7874
 Frc consts  --      2.0606                 3.0312                 2.8492
 IR Inten    --     39.4896                18.8615                28.1905

                     16                     17                     18
                      A                      A                      A
 Frequencies --    650.7064               724.9259               746.1598
 Red. masses --      9.6484                15.3137                11.9755
 Frc consts  --      2.4070                 4.7415                 3.9283
 IR Inten    --    283.9412                18.0400               132.4526

                     19                     20                     21
                      A                      A                      A
 Frequencies --    909.3057              1149.5949              1244.9582
 Red. masses --     14.0284                 7.1016                11.3108
 Frc consts  --      6.8341                 5.5296                10.3289
 IR Inten    --     14.3433               163.1667               342.7785

                     22                     23                     24
                      A                      A                      A
 Frequencies --   1264.5459              1299.9595              1306.2689
 Red. masses --     11.9233                 1.7838                 4.2547
 Frc consts  --     11.2335                 1.7760                 4.2775
 IR Inten    --    312.1785               238.2132               315.1651

                     25                     26                     27
                      A                      A                      A
 Frequencies --   1394.1912              2024.6829              3829.3834
 Red. masses --     10.2546                11.2490                 1.0657
 Frc consts  --     11.7439                27.1693                 9.2076
 IR Inten    --     59.9272               571.0213               146.1350

 - Thermochemistry -
 -------------------
 Temperature   298.150 Kelvin.  Pressure   1.00000 Atm.
 Atom     1 has atomic number  6 and mass  12.00000

 Molecular mass:   163.98967 amu.
 Principal axes and moments of inertia in atomic units:
                           1         2         3
     Eigenvalues --   803.373051785.054332065.97337
           X            0.92469   0.33942  -0.17246
           Y           -0.27491   0.90865   0.31430
           Z            0.26339  -0.24322   0.93353
 This molecule is an asymmetric top.
 Rotational symmetry number  1.
 Warning -- assumption of classical behavior for rotation
           may cause significant error
 Rotational temperatures (Kelvin)      0.10781     0.04852     0.04192
 Rotational constants (GHZ):           2.24645     1.01103     0.87355
    1 imaginary frequencies ignored.
 Zero-point vibrational energy     127172.7 (Joules/Mol)
                                   30.39500 (Kcal/Mol)
 Warning -- explicit consideration of  14 degrees of freedom as
           vibrations may cause significant error
 Vibrational temperatures:    101.26   133.89   203.54   255.49   315.42
          (Kelvin)            368.79   412.43   512.15   632.96   663.66
                              733.41   778.36   823.13   852.09   936.22
                             1043.01  1073.56  1308.29  1654.01  1791.22
                             1819.40  1870.35  1879.43  2005.93  2913.07
                             5509.63

 Zero-point correction=                           0.048438 (Hartree/Particle)
 Thermal correction to Energy=                    0.057609
 Thermal correction to Enthalpy=                  0.058553
 Thermal correction to Gibbs Free Energy=         0.013508
 Sum of electronic and zero-point Energies=           -764.475995
 Sum of electronic and thermal Energies=              -764.466824
 Sum of electronic and thermal Enthalpies=            -764.465880
 Sum of electronic and thermal Free Energies=         -764.510925

                     E (Thermal)             CV                S
                      KCal/Mol        Cal/Mol-Kelvin    Cal/Mol-Kelvin
 Total                   36.150             31.673             94.805
 Electronic               0.000              0.000              0.000
 Translational            0.889              2.981             41.192
 Rotational               0.889              2.981             29.473
 Vibrational             34.373             25.712             24.139
 Vibration     1          0.598              1.968              4.143
 Vibration     2          0.602              1.954              3.595
 Vibration     3          0.615              1.912              2.784
 Vibration     4          0.628              1.870              2.354
 Vibration     5          0.647              1.812              1.965
 Vibration     6          0.666              1.752              1.687
 Vibration     7          0.684              1.698              1.494
 Vibration     8          0.731              1.563              1.140
 Vibration     9          0.800              1.383              0.827
 Vibration    10          0.819              1.336              0.762
 Vibration    11          0.865              1.228              0.634
 Vibration    12          0.896              1.159              0.563
 Vibration    13          0.928              1.092              0.500
 Vibration    14          0.950              1.048              0.463

 Normal termination of Gaussian 16 at Sat May 24 05:15:12 2025.
