 Gaussian 16, Revision C.01,
 Gaussian 16:  ES64L-G16RevC.01  3-Jul-2019

 ----------------------------------------------------------------------
 #P M062X/Def2TZVPP Symm(None) scf(xqc) pop(None) opt(NoFreeze,TS,CalcA
 ll,NoEigentest,MaxCycle=999)
 ----------------------------------------------------------------------

 ------------------------------
 Gaussian input prepared by ASE
 ------------------------------
 Symbolic Z-matrix:
 Charge =  0 Multiplicity = 1

 SCF Done:  E(RM062X) =  -764.440986626     A.U. after   24 cycles
 SCF Done:  E(RM062X) =  -764.453733401     A.U. after   20 cycles
 SCF Done:  E(RM062X) =  -764.454764229     A.U. after   19 cycles
 SCF Done:  E(RM062X) =  -764.454960487     A.U. after   16 cycles
 SCF Done:  E(RM062X) =  -764.454972222     A.U. after   15 cycles
 SCF Done:  E(RM062X) =  -764.454972311     A.U. after   11 cycles

 Isotropic polarizability for W=    0.000000       57.64 Bohr**3.
 End of Minotr F.D. properties file   721 does not exist.

 Optimization completed.
    -- Stationary point found.

                          Input orientation:
 ---------------------------------------------------------------------
 Center     Atomic      Atomic             Coordinates (Angstroms)
 Number     Number       Type             X           Y           Z
 ---------------------------------------------------------------------
      1          6           0        1.579153    0.224830    0.166168
      2          8           0        1.947150   -0.539858   -0.725970
      3          6           0        1.119426    1.492334   -0.227380
      4          6           0        1.247232    2.144551   -1.603839
      5          9           0        1.878003    3.309663   -1.413873
      6          9           0        1.924841    1.434031   -2.465811
      7          9           0        0.038396    2.404528   -2.070846
      8          9           0        0.155950   -0.616690   -1.370769
      9          9           0        0.525378    2.253154    0.619633
     10          8           0        1.377297   -0.109336    1.443583
     11          1           0        1.524469   -1.059720    1.532777
 ---------------------------------------------------------------------

 ******    1 imaginary frequencies (negative Signs) ******

                      1                      2                      3
                      A                      A                      A
 Frequencies --   -521.7833                45.8290                86.3929
 Red. masses --     15.6040                18.4879                16.6806
 Frc consts  --      2.5030                 0.0229                 0.0734
 IR Inten    --    314.4174                 1.2199                 3.4037

                      4                      5                      6
                      A                      A                      A
 Frequencies --    100.9708               192.9214               216.9046
 Red. masses --     11.0841                10.1991                10.7233
 Frc consts  --      0.0666                 0.2237                 0.2972
 IR Inten    --     10.0839                 3.6400                 8.1079

                      7                      8                      9
                      A                      A                      A
 Frequencies --    265.2038               286.7322               353.8886
 Red. masses --     16.2173                15.9380                 9.4162
 Frc consts  --      0.6720                 0.7720                 0.6948
 IR Inten    --      7.7892                55.1292                 1.6715

                     10                     11                     12
                      A                      A                      A
 Frequencies --    381.7849               391.8032               494.1338
 Red. masses --      7.4091                 1.3447                10.3066
 Frc consts  --      0.6363                 0.1216                 1.4827
 IR Inten    --     17.2562                67.9156                50.0877

                     13                     14                     15
                      A                      A                      A
 Frequencies --    528.9916               589.0586               624.0159
 Red. masses --     14.2875                13.1568                11.9967
 Frc consts  --      2.3556                 2.6898                 2.7523
 IR Inten    --      6.4048                16.4528                 3.3554

                     16                     17                     18
                      A                      A                      A
 Frequencies --    678.2158               760.1473               805.5808
 Red. masses --      6.4081                12.2827                11.2271
 Frc consts  --      1.7367                 4.1816                 4.2927
 IR Inten    --     84.0037                 2.1800                 4.1600

                     19                     20                     21
                      A                      A                      A
 Frequencies --   1078.5452              1192.4516              1229.4431
 Red. masses --     13.0423                 2.6406                 7.9629
 Frc consts  --      8.9388                 2.2123                 7.0915
 IR Inten    --    320.4278               132.0131               158.8148

                     22                     23                     24
                      A                      A                      A
 Frequencies --   1311.9924              1345.2758              1432.3561
 Red. masses --      2.9164                10.0803                12.6348
 Frc consts  --      2.9577                10.7484                15.2729
 IR Inten    --     61.1660               298.8389               411.3649

                     25                     26                     27
                      A                      A                      A
 Frequencies --   1542.9501              1641.2619              3833.9346
 Red. masses --      7.4627                12.7253                 1.0652
 Frc consts  --     10.4677                20.1965                 9.2248
 IR Inten    --    208.7464               278.0609               170.6054

 - Thermochemistry -
 -------------------
 Temperature   298.150 Kelvin.  Pressure   1.00000 Atm.
 Atom     1 has atomic number  6 and mass  12.00000

 Molecular mass:   163.98967 amu.
 Principal axes and moments of inertia in atomic units:
                           1         2         3
     Eigenvalues --   952.493481597.354731945.89441
           X           -0.01146  -0.00390   0.99993
           Y            0.81096   0.58498   0.01158
           Z           -0.58498   0.81104  -0.00354
 This molecule is an asymmetric top.
 Rotational symmetry number  1.
 Warning -- assumption of classical behavior for rotation
           may cause significant error
 Rotational temperatures (Kelvin)      0.09093     0.05422     0.04451
 Rotational constants (GHZ):           1.89475     1.12983     0.92746
    1 imaginary frequencies ignored.
 Zero-point vibrational energy     128064.9 (Joules/Mol)
                                   30.60826 (Kcal/Mol)
 Warning -- explicit consideration of  13 degrees of freedom as
           vibrations may cause significant error
 Vibrational temperatures:     65.94   124.30   145.27   277.57   312.08
          (Kelvin)            381.57   412.54   509.17   549.30   563.72
                              710.95   761.10   847.52   897.82   975.80
                             1093.68  1159.05  1551.79  1715.67  1768.89
                             1887.66  1935.55  2060.84  2219.96  2361.41
                             5516.18

 Zero-point correction=                           0.048777 (Hartree/Particle)
 Thermal correction to Energy=                    0.058085
 Thermal correction to Enthalpy=                  0.059030
 Thermal correction to Gibbs Free Energy=         0.013200
 Sum of electronic and zero-point Energies=           -764.406195
 Sum of electronic and thermal Energies=              -764.396887
 Sum of electronic and thermal Enthalpies=            -764.395943
 Sum of electronic and thermal Free Energies=         -764.441772

                     E (Thermal)             CV                S
                      KCal/Mol        Cal/Mol-Kelvin    Cal/Mol-Kelvin
 Total                   36.449             31.398             96.456
 Electronic               0.000              0.000              0.000
 Translational            0.889              2.981             41.192
 Rotational               0.889              2.981             29.472
 Vibrational             34.672             25.436             25.792
 Vibration     1          0.595              1.979              4.990
 Vibration     2          0.601              1.959              3.740
 Vibration     3          0.604              1.948              3.435
 Vibration     4          0.635              1.850              2.200
 Vibration     5          0.646              1.815              1.985
 Vibration     6          0.671              1.737              1.627
 Vibration     7          0.684              1.698              1.493
 Vibration     8          0.730              1.567              1.149
 Vibration     9          0.751              1.509              1.032
 Vibration    10          0.759              1.488              0.993
 Vibration    11          0.850              1.263              0.673
 Vibration    12          0.884              1.186              0.589
 Vibration    13          0.946              1.055              0.469

 Normal termination of Gaussian 16 at Sat May 24 06:56:00 2025.
