 Gaussian 16, Revision C.01,
 Gaussian 16:  ES64L-G16RevC.01  3-Jul-2019

 -----------------------------------------------------------------
 #P M062X/Def2TZVPP Symm(None) scf(xqc) pop(None) freq opt(CalcFC)
 -----------------------------------------------------------------

 ------------------------------
 Gaussian input prepared by ASE
 ------------------------------
 Symbolic Z-matrix:
 Charge =  0 Multiplicity = 1

 SCF Done:  E(RM062X) =  -764.552936397     A.U. after   14 cycles
 SCF Done:  E(RM062X) =  -764.584893568     A.U. after   15 cycles
 SCF Done:  E(RM062X) =  -764.586015663     A.U. after   16 cycles
 SCF Done:  E(RM062X) =  -764.592950473     A.U. after   15 cycles
 SCF Done:  E(RM062X) =  -764.594020558     A.U. after   13 cycles
 SCF Done:  E(RM062X) =  -764.595033840     A.U. after   13 cycles
 SCF Done:  E(RM062X) =  -764.595288678     A.U. after   11 cycles
 SCF Done:  E(RM062X) =  -764.595399722     A.U. after   11 cycles
 SCF Done:  E(RM062X) =  -764.595415173     A.U. after   10 cycles
 SCF Done:  E(RM062X) =  -764.595415971     A.U. after    8 cycles
 SCF Done:  E(RM062X) =  -764.595416258     A.U. after    8 cycles
 Optimization completed.
    -- Stationary point found.
 Normal termination of Gaussian 16 at Sat May 24 04:52:45 2025.

 ---------------------------------------------------------------------
 #P Geom=AllCheck Guess=TCheck SCRF=Check GenChk RM062X/def2TZVPP Freq
 ---------------------------------------------------------------------

 Structure from the checkpoint file:  "/tmp/Gau-92587.chk"
 ------------------------------
 Gaussian input prepared by ASE
 ------------------------------
 Charge =  0 Multiplicity = 1

                          Input orientation:
 ---------------------------------------------------------------------
 Center     Atomic      Atomic             Coordinates (Angstroms)
 Number     Number       Type             X           Y           Z
 ---------------------------------------------------------------------
      1          6           0        0.115103   -0.103198    0.337094
      2          8           0        1.389530    0.102836   -0.036402
      3          6           0        3.472379    1.092966   -0.523296
      4          6           0        2.034319    1.329650   -0.011689
      5          9           0        4.133127    2.242584   -0.519380
      6          9           0        1.443367    2.218855   -0.808570
      7          9           0        2.101258    1.831731    1.220526
      8          9           0        4.100390    0.233082    0.262656
      9          9           0        3.444557    0.616959   -1.757875
     10          8           0       -0.398780    1.035715    0.720446
     11          1           0       -1.310207    0.870814    0.984302
 ---------------------------------------------------------------------

 SCF Done:  E(RM062X) =  -764.595416258     A.U. after    1 cycles

 Isotropic polarizability for W=    0.000000       46.43 Bohr**3.
 End of Minotr F.D. properties file   721 does not exist.

                      1                      2                      3
                      A                      A                      A
 Frequencies --     69.6037                95.5811               148.9293
 Red. masses --     16.9676                 8.8427                10.7045
 Frc consts  --      0.0484                 0.0476                 0.1399
 IR Inten    --      0.0000                 3.0487                 0.2808

                      4                      5                      6
                      A                      A                      A
 Frequencies --    225.7603               239.3049               248.4022
 Red. masses --     13.8629                14.6888                10.2115
 Frc consts  --      0.4163                 0.4956                 0.3712
 IR Inten    --      2.4293                 1.5283                 4.9073

                      7                      8                      9
                      A                      A                      A
 Frequencies --    320.3824               376.8322               396.2943
 Red. masses --     17.2865                17.9507                15.3956
 Frc consts  --      1.0454                 1.5019                 1.4246
 IR Inten    --      0.8061                 0.0027                 0.2473

                     10                     11                     12
                      A                      A                      A
 Frequencies --    509.4209               534.0758               598.4426
 Red. masses --     13.3549                10.9106                12.9275
 Frc consts  --      2.0419                 1.8336                 2.7278
 IR Inten    --      6.3324                15.0718                 8.1981

                     13                     14                     15
                      A                      A                      A
 Frequencies --    626.2070               640.1756               731.9129
 Red. masses --     10.9039                11.6468                 1.2301
 Frc consts  --      2.5192                 2.8123                 0.3882
 IR Inten    --      3.1035                29.1315                78.0581

                     16                     17                     18
                      A                      A                      A
 Frequencies --    788.9786               862.5154              1063.7262
 Red. masses --     13.1549                13.0303                 3.6546
 Frc consts  --      4.8247                 5.7113                 2.4364
 IR Inten    --      6.5670                 2.1597                49.3938

                     19                     20                     21
                      A                      A                      A
 Frequencies --   1136.2997              1193.3824              1265.0481
 Red. masses --     10.5089                 5.9602                13.0048
 Frc consts  --      7.9945                 5.0012                12.2622
 IR Inten    --    697.1155               136.3369               142.4119

                     22                     23                     24
                      A                      A                      A
 Frequencies --   1294.1643              1303.2355              1337.8631
 Red. masses --     12.4475                13.2143                 4.9781
 Frc consts  --     12.2832                13.2233                 5.2497
 IR Inten    --    253.7157               377.4375               208.9138

                     25                     26                     27
                      A                      A                      A
 Frequencies --   1368.4579              1456.6374              3865.8910
 Red. masses --      2.4785                12.4475                 1.0667
 Frc consts  --      2.7347                15.5610                 9.3929
 IR Inten    --    220.2600                14.3134               207.4350

 - Thermochemistry -
 -------------------
 Temperature   298.150 Kelvin.  Pressure   1.00000 Atm.
 Atom     1 has atomic number  6 and mass  12.00000

 Molecular mass:   163.98967 amu.
 Principal axes and moments of inertia in atomic units:
                           1         2         3
     Eigenvalues --   708.802571790.362521864.14436
           X            0.95225  -0.03396   0.30344
           Y            0.09179   0.97966  -0.17843
           Z           -0.29121   0.19776   0.93600
 This molecule is an asymmetric top.
 Rotational symmetry number  1.
 Warning -- assumption of classical behavior for rotation
           may cause significant error
 Rotational temperatures (Kelvin)      0.12220     0.04838     0.04646
 Rotational constants (GHZ):           2.54618     1.00803     0.96813
 Zero-point vibrational energy     135761.3 (Joules/Mol)
                                   32.44774 (Kcal/Mol)
 Warning -- explicit consideration of  12 degrees of freedom as
           vibrations may cause significant error
 Vibrational temperatures:    100.14   137.52   214.28   324.82   344.31
          (Kelvin)            357.40   460.96   542.18   570.18   732.94
                              768.42   861.03   900.97   921.07  1053.06
                             1135.16  1240.97  1530.46  1634.88  1717.01
                             1820.12  1862.01  1875.07  1924.89  1968.91
                             2095.78  5562.15

 Zero-point correction=                           0.051709 (Hartree/Particle)
 Thermal correction to Energy=                    0.060511
 Thermal correction to Enthalpy=                  0.061456
 Thermal correction to Gibbs Free Energy=         0.017243
 Sum of electronic and zero-point Energies=           -764.543707
 Sum of electronic and thermal Energies=              -764.534905
 Sum of electronic and thermal Enthalpies=            -764.533961
 Sum of electronic and thermal Free Energies=         -764.578173

                     E (Thermal)             CV                S
                      KCal/Mol        Cal/Mol-Kelvin    Cal/Mol-Kelvin
 Total                   37.971             30.692             93.053
 Electronic               0.000              0.000              0.000
 Translational            0.889              2.981             41.192
 Rotational               0.889              2.981             29.249
 Vibrational             36.194             24.731             22.611
 Vibration     1          0.598              1.969              4.165
 Vibration     2          0.603              1.952              3.542
 Vibration     3          0.618              1.904              2.686
 Vibration     4          0.650              1.802              1.912
 Vibration     5          0.657              1.780              1.808
 Vibration     6          0.662              1.765              1.742
 Vibration     7          0.706              1.635              1.308
 Vibration     8          0.747              1.519              1.052
 Vibration     9          0.763              1.478              0.976
 Vibration    10          0.865              1.229              0.635
 Vibration    11          0.889              1.175              0.578
 Vibration    12          0.956              1.035              0.452

 Optimization completed.
    -- Stationary point found.
 Normal termination of Gaussian 16 at Sat May 24 04:56:17 2025.
