 Gaussian 16, Revision C.01,
 Gaussian 16:  ES64L-G16RevC.01  3-Jul-2019

 -----------------------------------------------------------------
 #P M062X/Def2TZVPP Symm(None) scf(xqc) pop(None) freq opt(CalcFC)
 -----------------------------------------------------------------

 ------------------------------
 Gaussian input prepared by ASE
 ------------------------------
 Symbolic Z-matrix:
 Charge =  0 Multiplicity = 1

 SCF Done:  E(RM062X) =  -764.357637849     A.U. after   18 cycles
 SCF Done:  E(RM062X) =  -764.419595206     A.U. after   18 cycles
 SCF Done:  E(RM062X) =  -764.422392772     A.U. after   16 cycles
 SCF Done:  E(RM062X) =  -764.428730713     A.U. after   15 cycles
 SCF Done:  E(RM062X) =  -764.441418116     A.U. after   15 cycles
 SCF Done:  E(RM062X) =  -764.438304387     A.U. after   15 cycles
 SCF Done:  E(RM062X) =  -764.449906862     A.U. after   16 cycles
 SCF Done:  E(RM062X) =  -764.426232269     A.U. after   19 cycles
 SCF Done:  E(RM062X) =  -764.454803325     A.U. after   15 cycles
 SCF Done:  E(RM062X) =  -764.456092994     A.U. after   14 cycles
 SCF Done:  E(RM062X) =  -764.463209942     A.U. after    8 cycles
 SCF Done:  E(RM062X) =  -764.463210720     A.U. after    7 cycles
 SCF Done:  E(RM062X) =  -764.463212096     A.U. after    7 cycles
 SCF Done:  E(RM062X) =  -764.463214430     A.U. after    8 cycles
 SCF Done:  E(RM062X) =  -764.463218325     A.U. after   10 cycles
 SCF Done:  E(RM062X) =  -764.463221769     A.U. after   10 cycles
 SCF Done:  E(RM062X) =  -764.463224527     A.U. after    9 cycles
 SCF Done:  E(RM062X) =  -764.463226472     A.U. after   10 cycles
 SCF Done:  E(RM062X) =  -764.463226694     A.U. after    9 cycles
 Optimization completed.
    -- Stationary point found.
 Normal termination of Gaussian 16 at Sat May 24 09:14:30 2025.

 ---------------------------------------------------------------------
 #P Geom=AllCheck Guess=TCheck SCRF=Check GenChk RM062X/def2TZVPP Freq
 ---------------------------------------------------------------------

 Structure from the checkpoint file:  "/tmp/Gau-110686.chk"
 ------------------------------
 Gaussian input prepared by ASE
 ------------------------------
 Charge =  0 Multiplicity = 1

                          Input orientation:
 ---------------------------------------------------------------------
 Center     Atomic      Atomic             Coordinates (Angstroms)
 Number     Number       Type             X           Y           Z
 ---------------------------------------------------------------------
      1          6           0        1.245219    2.137018   -1.030700
      2          8           0        0.415639    0.075616   -0.122248
      3          6           0        1.429980    1.315306   -2.316326
      4          6           0        2.501476    0.173501   -2.172347
      5          9           0        3.356310    0.228602   -3.182733
      6          9           0        3.187472    0.345834   -1.042307
      7          9           0        1.941818   -1.017403   -2.166632
      8          9           0        0.257960    0.804392   -2.703587
      9          9           0        1.846526    2.156761   -3.269009
     10          8           0        0.788854    1.640128   -0.035647
     11          1           0        0.410516   -0.114044    0.824845
 ---------------------------------------------------------------------

 SCF Done:  E(RM062X) =  -764.463226694     A.U. after    1 cycles

 Isotropic polarizability for W=    0.000000       53.13 Bohr**3.
 End of Minotr F.D. properties file   721 does not exist.

                      1                      2                      3
                      A                      A                      A
 Frequencies --     49.7285                98.4883               162.2743
 Red. masses --     11.5145                 8.5716                 4.1968
 Frc consts  --      0.0168                 0.0490                 0.0651
 IR Inten    --      2.3342                 0.6934                18.4506

                      4                      5                      6
                      A                      A                      A
 Frequencies --    184.8711               204.1475               260.6238
 Red. masses --      1.3968                12.3541                17.1638
 Frc consts  --      0.0281                 0.3034                 0.6869
 IR Inten    --     96.0402                13.7198                13.6092

                      7                      8                      9
                      A                      A                      A
 Frequencies --    269.2618               324.4340               370.6588
 Red. masses --     13.8303                16.9482                18.0913
 Frc consts  --      0.5908                 1.0511                 1.4644
 IR Inten    --     53.5217                33.5372                18.1450

                     10                     11                     12
                      A                      A                      A
 Frequencies --    387.3618               431.0640               489.4819
 Red. masses --     16.0309                 9.9217                14.3426
 Frc consts  --      1.4172                 1.0862                 2.0247
 IR Inten    --    158.2774                79.6127                 4.0851

                     13                     14                     15
                      A                      A                      A
 Frequencies --    509.3775               565.5248               599.3216
 Red. masses --     13.5165                14.7228                17.2149
 Frc consts  --      2.0663                 2.7742                 3.6431
 IR Inten    --      2.9576                 5.0525                 4.8030

                     16                     17                     18
                      A                      A                      A
 Frequencies --    688.5268               726.0965               799.4490
 Red. masses --     15.9626                 9.5357                15.2129
 Frc consts  --      4.4586                 2.9620                 5.7286
 IR Inten    --     16.0951                24.2367                 5.1577

                     19                     20                     21
                      A                      A                      A
 Frequencies --   1054.4571              1178.1668              1203.3001
 Red. masses --     12.9980                 1.1953                12.4945
 Frc consts  --      8.5150                 0.9775                10.6590
 IR Inten    --    115.4011                61.9593               266.2663

                     22                     23                     24
                      A                      A                      A
 Frequencies --   1251.8824              1271.8882              1303.7784
 Red. masses --     12.9090                12.9317                13.0775
 Frc consts  --     11.9199                12.3254                13.0973
 IR Inten    --    224.3089               113.6745               222.0612

                     25                     26                     27
                      A                      A                      A
 Frequencies --   1343.1104              1690.9204              3844.1842
 Red. masses --     12.4912                12.6548                 1.0683
 Frc consts  --     13.2763                21.3183                 9.3011
 IR Inten    --    140.4378               148.8582               141.1454

 - Thermochemistry -
 -------------------
 Temperature   298.150 Kelvin.  Pressure   1.00000 Atm.
 Atom     1 has atomic number  6 and mass  12.00000

 Molecular mass:   163.98967 amu.
 Principal axes and moments of inertia in atomic units:
                           1         2         3
     Eigenvalues --  1000.268711373.611781653.57397
           X           -0.65216  -0.33533   0.67988
           Y            0.21743   0.77643   0.59151
           Z            0.72623  -0.53359   0.43344
 This molecule is an asymmetric top.
 Rotational symmetry number  1.
 Warning -- assumption of classical behavior for rotation
           may cause significant error
 Rotational temperatures (Kelvin)      0.08659     0.06306     0.05238
 Rotational constants (GHZ):           1.80426     1.31387     1.09142
 Zero-point vibrational energy     127177.3 (Joules/Mol)
                                   30.39610 (Kcal/Mol)
 Warning -- explicit consideration of  15 degrees of freedom as
           vibrations may cause significant error
 Vibrational temperatures:     71.55   141.70   233.48   265.99   293.72
          (Kelvin)            374.98   387.41   466.79   533.30   557.33
                              620.21   704.26   732.88   813.66   862.29
                              990.64  1044.69  1150.23  1517.13  1695.12
                             1731.28  1801.18  1829.96  1875.85  1932.44
                             2432.86  5530.92

 Zero-point correction=                           0.048439 (Hartree/Particle)
 Thermal correction to Energy=                    0.058071
 Thermal correction to Enthalpy=                  0.059015
 Thermal correction to Gibbs Free Energy=         0.013180
 Sum of electronic and zero-point Energies=           -764.414787
 Sum of electronic and thermal Energies=              -764.405156
 Sum of electronic and thermal Enthalpies=            -764.404211
 Sum of electronic and thermal Free Energies=         -764.450046

                     E (Thermal)             CV                S
                      KCal/Mol        Cal/Mol-Kelvin    Cal/Mol-Kelvin
 Total                   36.440             33.322             96.468
 Electronic               0.000              0.000              0.000
 Translational            0.889              2.981             41.192
 Rotational               0.889              2.981             29.209
 Vibrational             34.663             27.361             26.066
 Vibration     1          0.595              1.978              4.828
 Vibration     2          0.604              1.950              3.484
 Vibration     3          0.622              1.889              2.523
 Vibration     4          0.631              1.860              2.279
 Vibration     5          0.640              1.834              2.095
 Vibration     6          0.669              1.745              1.658
 Vibration     7          0.674              1.730              1.601
 Vibration     8          0.709              1.627              1.288
 Vibration     9          0.743              1.532              1.077
 Vibration    10          0.756              1.497              1.010
 Vibration    11          0.792              1.403              0.855
 Vibration    12          0.845              1.273              0.685
 Vibration    13          0.865              1.229              0.635
 Vibration    14          0.921              1.106              0.513
 Vibration    15          0.957              1.033              0.451

 Optimization completed.
    -- Stationary point found.
 Normal termination of Gaussian 16 at Sat May 24 09:17:34 2025.
