 Gaussian 16, Revision C.01,
 Gaussian 16:  ES64L-G16RevC.01  3-Jul-2019

 ----------------------------------------------------------------------
 #P M062X/Def2TZVPP Symm(None) scf(xqc) pop(None) opt(NoFreeze,TS,CalcA
 ll,NoEigentest,MaxCycle=999)
 ----------------------------------------------------------------------

 ------------------------------
 Gaussian input prepared by ASE
 ------------------------------
 Symbolic Z-matrix:
 Charge =  0 Multiplicity = 1

 SCF Done:  E(RM062X) =  -764.405199197     A.U. after   26 cycles
 SCF Done:  E(RM062X) =  -764.436577012     A.U. after   20 cycles
 SCF Done:  E(RM062X) =  -764.452454565     A.U. after   18 cycles
 SCF Done:  E(RM062X) =  -764.454323757     A.U. after   20 cycles
 SCF Done:  E(RM062X) =  -764.454902557     A.U. after   20 cycles
 SCF Done:  E(RM062X) =  -764.454962437     A.U. after   16 cycles
 SCF Done:  E(RM062X) =  -764.454962609     A.U. after   11 cycles

 Isotropic polarizability for W=    0.000000       57.65 Bohr**3.
 End of Minotr F.D. properties file   721 does not exist.

 Optimization completed.
    -- Stationary point found.

                          Input orientation:
 ---------------------------------------------------------------------
 Center     Atomic      Atomic             Coordinates (Angstroms)
 Number     Number       Type             X           Y           Z
 ---------------------------------------------------------------------
      1          6           0        2.458559    1.153884   -0.078128
      2          8           0        2.462885    1.831781    0.949734
      3          6           0        1.948842   -0.151216    0.019273
      4          6           0        1.624813   -0.932984    1.292243
      5          9           0        2.328486   -2.069704    1.227824
      6          9           0        1.938940   -0.304870    2.394071
      7          9           0        0.340598   -1.245403    1.290718
      8          9           0        0.557829    1.823365    0.939520
      9          9           0        1.715943   -0.832461   -1.044131
     10          8           0        2.692943    1.608841   -1.311953
     11          1           0        2.819097    2.565051   -1.261250
 ---------------------------------------------------------------------

 ******    1 imaginary frequencies (negative Signs) ******

                      1                      2                      3
                      A                      A                      A
 Frequencies --   -522.5750                44.2664                87.7876
 Red. masses --     15.6279                18.4963                15.8785
 Frc consts  --      2.5145                 0.0214                 0.0721
 IR Inten    --    315.3501                 1.2221                 2.7425

                      4                      5                      6
                      A                      A                      A
 Frequencies --    102.2992               193.8007               217.8086
 Red. masses --     11.5741                10.3523                11.1870
 Frc consts  --      0.0714                 0.2291                 0.3127
 IR Inten    --     10.6313                 3.5665                 7.7437

                      7                      8                      9
                      A                      A                      A
 Frequencies --    264.8607               286.7885               353.8975
 Red. masses --     16.2438                16.1253                 9.7921
 Frc consts  --      0.6714                 0.7814                 0.7226
 IR Inten    --      7.9006                54.8099                 1.2736

                     10                     11                     12
                      A                      A                      A
 Frequencies --    382.0121               402.6109               494.8077
 Red. masses --     13.3354                 1.2409                 9.5098
 Frc consts  --      1.1466                 0.1185                 1.3718
 IR Inten    --     10.0408                73.2173                52.7385

                     13                     14                     15
                      A                      A                      A
 Frequencies --    528.7741               589.0065               623.9678
 Red. masses --     14.2642                13.0168                11.9972
 Frc consts  --      2.3498                 2.6607                 2.7520
 IR Inten    --      6.4725                16.8598                 3.3542

                     16                     17                     18
                      A                      A                      A
 Frequencies --    678.0195               759.6951               805.5421
 Red. masses --      6.4263                12.2757                11.2530
 Frc consts  --      1.7406                 4.1742                 4.3022
 IR Inten    --     83.7932                 2.3154                 4.1841

                     19                     20                     21
                      A                      A                      A
 Frequencies --   1078.2979              1192.7387              1229.9292
 Red. masses --     13.0580                 2.6408                 8.0247
 Frc consts  --      8.9455                 2.2135                 7.1522
 IR Inten    --    319.4483               131.3510               158.3239

                     22                     23                     24
                      A                      A                      A
 Frequencies --   1312.0355              1344.7192              1431.7259
 Red. masses --      2.9117                10.0631                12.6331
 Frc consts  --      2.9531                10.7212                15.2574
 IR Inten    --     61.8645               299.8490               411.7513

                     25                     26                     27
                      A                      A                      A
 Frequencies --   1541.5304              1640.8637              3834.4248
 Red. masses --      7.4182                12.7327                 1.0652
 Frc consts  --     10.3861                20.1984                 9.2272
 IR Inten    --    208.7362               276.9542               170.5617

 - Thermochemistry -
 -------------------
 Temperature   298.150 Kelvin.  Pressure   1.00000 Atm.
 Atom     1 has atomic number  6 and mass  12.00000

 Molecular mass:   163.98967 amu.
 Principal axes and moments of inertia in atomic units:
                           1         2         3
     Eigenvalues --   952.485811596.946821945.51497
           X            0.17571  -0.30081   0.93736
           Y            0.86406   0.50339  -0.00043
           Z           -0.47173   0.81001   0.34837
 This molecule is an asymmetric top.
 Rotational symmetry number  1.
 Warning -- assumption of classical behavior for rotation
           may cause significant error
 Rotational temperatures (Kelvin)      0.09093     0.05424     0.04452
 Rotational constants (GHZ):           1.89477     1.13012     0.92764
    1 imaginary frequencies ignored.
 Zero-point vibrational energy     128133.3 (Joules/Mol)
                                   30.62459 (Kcal/Mol)
 Warning -- explicit consideration of  13 degrees of freedom as
           vibrations may cause significant error
 Vibrational temperatures:     63.69   126.31   147.19   278.84   313.38
          (Kelvin)            381.08   412.62   509.18   549.63   579.27
                              711.92   760.79   847.45   897.75   975.52
                             1093.03  1159.00  1551.43  1716.08  1769.59
                             1887.73  1934.75  2059.93  2217.92  2360.84
                             5516.88

 Zero-point correction=                           0.048803 (Hartree/Particle)
 Thermal correction to Energy=                    0.058096
 Thermal correction to Enthalpy=                  0.059040
 Thermal correction to Gibbs Free Energy=         0.013232
 Sum of electronic and zero-point Energies=           -764.406159
 Sum of electronic and thermal Energies=              -764.396866
 Sum of electronic and thermal Enthalpies=            -764.395922
 Sum of electronic and thermal Free Energies=         -764.441731

                     E (Thermal)             CV                S
                      KCal/Mol        Cal/Mol-Kelvin    Cal/Mol-Kelvin
 Total                   36.456             31.372             96.412
 Electronic               0.000              0.000              0.000
 Translational            0.889              2.981             41.192
 Rotational               0.889              2.981             29.472
 Vibrational             34.679             25.410             25.748
 Vibration     1          0.595              1.980              5.058
 Vibration     2          0.601              1.958              3.709
 Vibration     3          0.604              1.947              3.410
 Vibration     4          0.635              1.848              2.191
 Vibration     5          0.646              1.814              1.977
 Vibration     6          0.671              1.737              1.630
 Vibration     7          0.684              1.698              1.493
 Vibration     8          0.730              1.567              1.149
 Vibration     9          0.751              1.509              1.031
 Vibration    10          0.768              1.464              0.953
 Vibration    11          0.850              1.262              0.671
 Vibration    12          0.884              1.186              0.590
 Vibration    13          0.946              1.055              0.469

 Normal termination of Gaussian 16 at Sat May 24 07:59:46 2025.
