 Gaussian 16, Revision C.01,
 Gaussian 16:  ES64L-G16RevC.01  3-Jul-2019

 -----------------------------------------------------------------
 #P M062X/Def2TZVPP Symm(None) scf(xqc) pop(None) freq opt(CalcFC)
 -----------------------------------------------------------------

 ------------------------------
 Gaussian input prepared by ASE
 ------------------------------
 Symbolic Z-matrix:
 Charge =  0 Multiplicity = 1

 SCF Done:  E(RM062X) =  -764.362048944     A.U. after   18 cycles
 SCF Done:  E(RM062X) =  -764.414934820     A.U. after   18 cycles
 SCF Done:  E(RM062X) =  -764.438440451     A.U. after   16 cycles
 SCF Done:  E(RM062X) =  -764.435384253     A.U. after   15 cycles
 SCF Done:  E(RM062X) =  -764.439541803     A.U. after   14 cycles
 SCF Done:  E(RM062X) =  -764.448913479     A.U. after   15 cycles
 SCF Done:  E(RM062X) =  -764.449177949     A.U. after   17 cycles
 SCF Done:  E(RM062X) =  -764.432527824     A.U. after   17 cycles
 SCF Done:  E(RM062X) =  -764.455194835     A.U. after   15 cycles
 SCF Done:  E(RM062X) =  -764.457881655     A.U. after   15 cycles
 SCF Done:  E(RM062X) =  -764.463216111     A.U. after    8 cycles
 SCF Done:  E(RM062X) =  -764.463216914     A.U. after    8 cycles
 SCF Done:  E(RM062X) =  -764.463218014     A.U. after    8 cycles
 SCF Done:  E(RM062X) =  -764.463219279     A.U. after    8 cycles
 SCF Done:  E(RM062X) =  -764.463220702     A.U. after    9 cycles
 SCF Done:  E(RM062X) =  -764.463222361     A.U. after    9 cycles
 SCF Done:  E(RM062X) =  -764.463224183     A.U. after   10 cycles
 SCF Done:  E(RM062X) =  -764.463225938     A.U. after    9 cycles
 SCF Done:  E(RM062X) =  -764.463226425     A.U. after    9 cycles
 Optimization completed.
    -- Stationary point found.
 Normal termination of Gaussian 16 at Sat May 24 09:06:23 2025.

 ---------------------------------------------------------------------
 #P Geom=AllCheck Guess=TCheck SCRF=Check GenChk RM062X/def2TZVPP Freq
 ---------------------------------------------------------------------

 Structure from the checkpoint file:  "/tmp/Gau-113207.chk"
 ------------------------------
 Gaussian input prepared by ASE
 ------------------------------
 Charge =  0 Multiplicity = 1

                          Input orientation:
 ---------------------------------------------------------------------
 Center     Atomic      Atomic             Coordinates (Angstroms)
 Number     Number       Type             X           Y           Z
 ---------------------------------------------------------------------
      1          6           0        2.115512    1.990091    0.519659
      2          8           0        0.908567    0.038965   -0.186626
      3          6           0        2.979948    0.983741    1.295729
      4          6           0        2.191951    0.240705    2.435600
      5          9           0        2.879047    0.295813    3.566896
      6          9           0        1.020588    0.845152    2.634882
      7          9           0        1.986058   -1.023915    2.136458
      8          9           0        3.518571    0.098545    0.452558
      9          9           0        3.977534    1.671407    1.862309
     10          8           0        1.194673    1.623869   -0.161015
     11          1           0       -0.007223    0.072405   -0.491888
 ---------------------------------------------------------------------

 SCF Done:  E(RM062X) =  -764.463226425     A.U. after    1 cycles

 Isotropic polarizability for W=    0.000000       53.12 Bohr**3.
 End of Minotr F.D. properties file   721 does not exist.

                      1                      2                      3
                      A                      A                      A
 Frequencies --     47.0864                99.5515               155.2765
 Red. masses --     10.2597                 8.3522                 1.7262
 Frc consts  --      0.0134                 0.0488                 0.0245
 IR Inten    --      3.3864                 0.7140                66.2243

                      4                      5                      6
                      A                      A                      A
 Frequencies --    174.4850               205.6771               261.0099
 Red. masses --      2.7732                12.0779                17.4577
 Frc consts  --      0.0497                 0.3010                 0.7007
 IR Inten    --     47.2730                13.9292                 9.2149

                      7                      8                      9
                      A                      A                      A
 Frequencies --    269.6469               324.4274               370.6590
 Red. masses --     13.8057                17.0209                18.1089
 Frc consts  --      0.5914                 1.0555                 1.4659
 IR Inten    --     55.5327                34.2583                18.0407

                     10                     11                     12
                      A                      A                      A
 Frequencies --    387.6402               431.2551               489.4184
 Red. masses --     16.0576                 9.9178                14.3255
 Frc consts  --      1.4216                 1.0868                 2.0217
 IR Inten    --    159.4036                79.5478                 4.0978

                     13                     14                     15
                      A                      A                      A
 Frequencies --    509.6992               565.7335               599.2929
 Red. masses --     13.5212                14.7170                17.2148
 Frc consts  --      2.0696                 2.7752                 3.6428
 IR Inten    --      2.9517                 5.0572                 4.7751

                     16                     17                     18
                      A                      A                      A
 Frequencies --    688.4860               726.1730               799.4729
 Red. masses --     15.9616                 9.5337                15.2025
 Frc consts  --      4.4578                 2.9621                 5.7249
 IR Inten    --     16.0988                24.2100                 5.1878

                     19                     20                     21
                      A                      A                      A
 Frequencies --   1055.0777              1177.8271              1203.6148
 Red. masses --     12.9986                 1.1947                12.5759
 Frc consts  --      8.5254                 0.9765                10.7341
 IR Inten    --    115.7775                62.2409               264.6452

                     22                     23                     24
                      A                      A                      A
 Frequencies --   1251.6850              1271.8088              1304.5470
 Red. masses --     12.9067                12.9330                13.0704
 Frc consts  --     11.9139                12.3251                13.1056
 IR Inten    --    223.8529               115.7188               221.6615

                     25                     26                     27
                      A                      A                      A
 Frequencies --   1342.7317              1690.5818              3846.2005
 Red. masses --     12.5012                12.6533                 1.0683
 Frc consts  --     13.2795                21.3073                 9.3108
 IR Inten    --    140.3189               148.5199               141.3580

 - Thermochemistry -
 -------------------
 Temperature   298.150 Kelvin.  Pressure   1.00000 Atm.
 Atom     1 has atomic number  6 and mass  12.00000

 Molecular mass:   163.98967 amu.
 Principal axes and moments of inertia in atomic units:
                           1         2         3
     Eigenvalues --  1000.245341373.725291653.58071
           X            0.40382   0.81666  -0.41231
           Y           -0.18801   0.51515   0.83623
           Z            0.89531  -0.26017   0.36157
 This molecule is an asymmetric top.
 Rotational symmetry number  1.
 Warning -- assumption of classical behavior for rotation
           may cause significant error
 Rotational temperatures (Kelvin)      0.08659     0.06305     0.05238
 Rotational constants (GHZ):           1.80430     1.31376     1.09141
 Zero-point vibrational energy     127097.6 (Joules/Mol)
                                   30.37706 (Kcal/Mol)
 Warning -- explicit consideration of  15 degrees of freedom as
           vibrations may cause significant error
 Vibrational temperatures:     67.75   143.23   223.41   251.04   295.92
          (Kelvin)            375.54   387.96   466.78   533.30   557.73
                              620.48   704.16   733.34   813.96   862.25
                              990.58  1044.80  1150.26  1518.02  1694.63
                             1731.73  1800.90  1829.85  1876.95  1931.89
                             2432.37  5533.82

 Zero-point correction=                           0.048409 (Hartree/Particle)
 Thermal correction to Energy=                    0.058069
 Thermal correction to Enthalpy=                  0.059013
 Thermal correction to Gibbs Free Energy=         0.013056
 Sum of electronic and zero-point Energies=           -764.414817
 Sum of electronic and thermal Energies=              -764.405158
 Sum of electronic and thermal Enthalpies=            -764.404213
 Sum of electronic and thermal Free Energies=         -764.450170

                     E (Thermal)             CV                S
                      KCal/Mol        Cal/Mol-Kelvin    Cal/Mol-Kelvin
 Total                   36.439             33.338             96.725
 Electronic               0.000              0.000              0.000
 Translational            0.889              2.981             41.192
 Rotational               0.889              2.981             29.209
 Vibrational             34.661             27.376             26.323
 Vibration     1          0.595              1.979              4.936
 Vibration     2          0.604              1.949              3.463
 Vibration     3          0.620              1.897              2.607
 Vibration     4          0.627              1.874              2.387
 Vibration     5          0.640              1.832              2.082
 Vibration     6          0.669              1.744              1.655
 Vibration     7          0.674              1.729              1.598
 Vibration     8          0.709              1.627              1.288
 Vibration     9          0.743              1.532              1.077
 Vibration    10          0.756              1.497              1.009
 Vibration    11          0.792              1.402              0.855
 Vibration    12          0.845              1.274              0.685
 Vibration    13          0.865              1.229              0.634
 Vibration    14          0.922              1.105              0.513
 Vibration    15          0.957              1.033              0.451

 Optimization completed.
    -- Stationary point found.
 Normal termination of Gaussian 16 at Sat May 24 09:09:31 2025.
