 Gaussian 16, Revision C.01,
 Gaussian 16:  ES64L-G16RevC.01  3-Jul-2019

 ----------------------------------------------------------------------
 #P M062X/Def2TZVPP Symm(None) scf(xqc) pop(None) opt(NoFreeze,TS,CalcA
 ll,NoEigentest,MaxCycle=999)
 ----------------------------------------------------------------------

 ------------------------------
 Gaussian input prepared by ASE
 ------------------------------
 Symbolic Z-matrix:
 Charge =  0 Multiplicity = 1

 SCF Done:  E(RM062X) =  -764.516840091     A.U. after   15 cycles
 SCF Done:  E(RM062X) =  -764.523369802     A.U. after   14 cycles
 SCF Done:  E(RM062X) =  -764.524555582     A.U. after   14 cycles
 SCF Done:  E(RM062X) =  -764.524598172     A.U. after   11 cycles
 SCF Done:  E(RM062X) =  -764.524598261     A.U. after    7 cycles

 Isotropic polarizability for W=    0.000000       49.95 Bohr**3.
 End of Minotr F.D. properties file   721 does not exist.

 Optimization completed.
    -- Stationary point found.

                          Input orientation:
 ---------------------------------------------------------------------
 Center     Atomic      Atomic             Coordinates (Angstroms)
 Number     Number       Type             X           Y           Z
 ---------------------------------------------------------------------
      1          6           0        1.905590    0.051447    0.042616
      2          8           0        2.352860   -0.863611    0.642446
      3          6           0       -0.021074    0.019872   -0.027127
      4          6           0       -0.941718    0.887141   -0.911431
      5          9           0       -1.367059    0.250547   -1.992425
      6          9           0       -1.995453    1.184103   -0.146702
      7          9           0       -0.342563    2.003649   -1.270231
      8          9           0        1.412822   -0.160293   -1.317023
      9          9           0       -0.518951   -1.155864    0.031622
     10          8           0        2.250369    1.337702    0.084221
     11          1           0        2.853029    1.440659    0.830416
 ---------------------------------------------------------------------

 ******    1 imaginary frequencies (negative Signs) ******

                      1                      2                      3
                      A                      A                      A
 Frequencies --   -438.5119                55.1197                86.6285
 Red. masses --     10.0986                15.1355                11.3183
 Frc consts  --      1.1441                 0.0271                 0.0500
 IR Inten    --     28.0139                 1.3112                 0.8245

                      4                      5                      6
                      A                      A                      A
 Frequencies --    121.0450               170.9738               221.1077
 Red. masses --     17.1321                14.1092                16.4240
 Frc consts  --      0.1479                 0.2430                 0.4731
 IR Inten    --      1.6685                70.8717                 5.5202

                      7                      8                      9
                      A                      A                      A
 Frequencies --    263.5292               279.2214               348.2940
 Red. masses --     15.3636                14.8824                 3.2220
 Frc consts  --      0.6286                 0.6836                 0.2303
 IR Inten    --     16.1739                 3.3948                 4.7543

                     10                     11                     12
                      A                      A                      A
 Frequencies --    418.5555               442.3165               517.4609
 Red. masses --      1.7420                11.9223                 7.1231
 Frc consts  --      0.1798                 1.3743                 1.1238
 IR Inten    --     77.9969                 5.2196                 5.4326

                     13                     14                     15
                      A                      A                      A
 Frequencies --    545.0085               583.3023               593.0467
 Red. masses --     12.0439                16.5129                10.2862
 Frc consts  --      2.1078                 3.3103                 2.1315
 IR Inten    --     39.8506                 1.1363                16.7258

                     16                     17                     18
                      A                      A                      A
 Frequencies --    696.4316               735.0402               796.6222
 Red. masses --      7.8330                14.0909                 8.6890
 Frc consts  --      2.2384                 4.4855                 3.2488
 IR Inten    --    375.6896                28.1885               133.5071

                     19                     20                     21
                      A                      A                      A
 Frequencies --    923.2106              1123.8435              1227.4611
 Red. masses --     13.4697                 7.1589                12.5803
 Frc consts  --      6.7641                 5.3273                11.1675
 IR Inten    --     15.4847               389.0386               278.3356

                     22                     23                     24
                      A                      A                      A
 Frequencies --   1296.9646              1316.6520              1329.9873
 Red. masses --     10.0745                 4.0481                 2.0438
 Frc consts  --      9.9846                 4.1347                 2.1300
 IR Inten    --    114.7749               288.7386               206.5526

                     25                     26                     27
                      A                      A                      A
 Frequencies --   1408.7175              1891.5828              3853.3392
 Red. masses --     11.7247                12.4969                 1.0653
 Frc consts  --     13.7088                26.3452                 9.3192
 IR Inten    --     68.6283               600.5563               152.3605

 - Thermochemistry -
 -------------------
 Temperature   298.150 Kelvin.  Pressure   1.00000 Atm.
 Atom     1 has atomic number  6 and mass  12.00000

 Molecular mass:   163.98967 amu.
 Principal axes and moments of inertia in atomic units:
                           1         2         3
     Eigenvalues --   804.620941792.375852051.69093
           X            0.92267   0.32198  -0.21213
           Y           -0.25031   0.91866   0.30563
           Z            0.29328  -0.22890   0.92822
 This molecule is an asymmetric top.
 Rotational symmetry number  1.
 Warning -- assumption of classical behavior for rotation
           may cause significant error
 Rotational temperatures (Kelvin)      0.10765     0.04832     0.04222
 Rotational constants (GHZ):           2.24297     1.00690     0.87964
    1 imaginary frequencies ignored.
 Zero-point vibrational energy     127076.1 (Joules/Mol)
                                   30.37191 (Kcal/Mol)
 Warning -- explicit consideration of  14 degrees of freedom as
           vibrations may cause significant error
 Vibrational temperatures:     79.30   124.64   174.16   245.99   318.12
          (Kelvin)            379.16   401.74   501.12   602.21   636.39
                              744.51   784.15   839.24   853.26  1002.01
                             1057.56  1146.16  1328.29  1616.96  1766.04
                             1866.04  1894.37  1913.56  2026.83  2721.57
                             5544.10

 Zero-point correction=                           0.048401 (Hartree/Particle)
 Thermal correction to Energy=                    0.057646
 Thermal correction to Enthalpy=                  0.058591
 Thermal correction to Gibbs Free Energy=         0.013089
 Sum of electronic and zero-point Energies=           -764.476198
 Sum of electronic and thermal Energies=              -764.466952
 Sum of electronic and thermal Enthalpies=            -764.466008
 Sum of electronic and thermal Free Energies=         -764.511509

                     E (Thermal)             CV                S
                      KCal/Mol        Cal/Mol-Kelvin    Cal/Mol-Kelvin
 Total                   36.174             31.546             95.765
 Electronic               0.000              0.000              0.000
 Translational            0.889              2.981             41.192
 Rotational               0.889              2.981             29.471
 Vibrational             34.396             25.584             25.101
 Vibration     1          0.596              1.976              4.625
 Vibration     2          0.601              1.959              3.735
 Vibration     3          0.609              1.932              3.084
 Vibration     4          0.626              1.878              2.425
 Vibration     5          0.648              1.809              1.950
 Vibration     6          0.670              1.740              1.638
 Vibration     7          0.680              1.712              1.538
 Vibration     8          0.726              1.579              1.174
 Vibration     9          0.781              1.430              0.897
 Vibration    10          0.802              1.378              0.819
 Vibration    11          0.872              1.211              0.616
 Vibration    12          0.900              1.151              0.555
 Vibration    13          0.940              1.067              0.479
 Vibration    14          0.951              1.047              0.462

 Normal termination of Gaussian 16 at Sat May 24 05:26:20 2025.
