 Gaussian 16, Revision C.01,
 Gaussian 16:  ES64L-G16RevC.01  3-Jul-2019

 ----------------------------------------------------------------------
 #P M062X/Def2TZVPP Symm(None) scf(xqc) pop(None) opt(NoFreeze,TS,CalcA
 ll,NoEigentest,MaxCycle=999)
 ----------------------------------------------------------------------

 ------------------------------
 Gaussian input prepared by ASE
 ------------------------------
 Symbolic Z-matrix:
 Charge =  0 Multiplicity = 1

 SCF Done:  E(RM062X) =  -764.494082347     A.U. after   15 cycles
 SCF Done:  E(RM062X) =  -764.509472652     A.U. after   16 cycles
 SCF Done:  E(RM062X) =  -764.511834324     A.U. after   14 cycles
 SCF Done:  E(RM062X) =  -764.511825998     A.U. after   14 cycles
 SCF Done:  E(RM062X) =  -764.513313907     A.U. after   15 cycles
 SCF Done:  E(RM062X) =  -764.511759269     A.U. after   14 cycles
 SCF Done:  E(RM062X) =  -764.512803498     A.U. after   15 cycles
 SCF Done:  E(RM062X) =  -764.511132282     A.U. after   15 cycles
 SCF Done:  E(RM062X) =  -764.511081535     A.U. after   14 cycles
 SCF Done:  E(RM062X) =  -764.511210187     A.U. after   14 cycles
 SCF Done:  E(RM062X) =  -764.511255791     A.U. after   11 cycles
 SCF Done:  E(RM062X) =  -764.511256592     A.U. after   10 cycles

 Isotropic polarizability for W=    0.000000       47.95 Bohr**3.
 End of Minotr F.D. properties file   721 does not exist.

 Optimization completed.
    -- Stationary point found.

                          Input orientation:
 ---------------------------------------------------------------------
 Center     Atomic      Atomic             Coordinates (Angstroms)
 Number     Number       Type             X           Y           Z
 ---------------------------------------------------------------------
      1          6           0        1.720711    0.118411   -0.077507
      2          8           0        1.225365   -0.427579   -1.099923
      3          6           0       -0.029314   -0.000610   -0.039798
      4          6           0       -0.265234   -1.102266    1.025863
      5          9           0       -1.571051   -1.257866    1.195237
      6          9           0        0.258385   -2.255192    0.644510
      7          9           0        0.259809   -0.754388    2.191167
      8          9           0       -0.338102    1.214226    0.461234
      9          9           0       -0.984099   -0.150849   -0.993797
     10          8           0        2.941791    0.574688   -0.204370
     11          1           0        3.231222    0.957678    0.631739
 ---------------------------------------------------------------------

 ******    1 imaginary frequencies (negative Signs) ******

                      1                      2                      3
                      A                      A                      A
 Frequencies --   -740.3605                41.9315                77.4454
 Red. masses --     12.3879                14.3397                 8.6520
 Frc consts  --      4.0007                 0.0149                 0.0306
 IR Inten    --     54.9006                 0.9109                 3.8086

                      4                      5                      6
                      A                      A                      A
 Frequencies --    137.5653               214.2720               234.2300
 Red. masses --     13.5967                14.5683                13.8673
 Frc consts  --      0.1516                 0.3941                 0.4483
 IR Inten    --      6.0924                 0.8166                 2.6445

                      7                      8                      9
                      A                      A                      A
 Frequencies --    317.0595               354.4300               376.0553
 Red. masses --     14.3821                14.8108                15.1039
 Frc consts  --      0.8518                 1.0962                 1.2585
 IR Inten    --     29.2171                 3.6897                 2.3335

                     10                     11                     12
                      A                      A                      A
 Frequencies --    472.6073               481.2954               563.2074
 Red. masses --      6.7380                13.7688                15.8440
 Frc consts  --      0.8867                 1.8792                 2.9611
 IR Inten    --     46.3860                25.9286                28.4789

                     13                     14                     15
                      A                      A                      A
 Frequencies --    592.7104               633.7812               672.8790
 Red. masses --     11.0243                 1.3459                13.3891
 Frc consts  --      2.2818                 0.3185                 3.5717
 IR Inten    --      9.9468                76.0917                39.8343

                     16                     17                     18
                      A                      A                      A
 Frequencies --    699.9021               756.1963               877.6990
 Red. masses --      8.1528                13.8992                13.3071
 Frc consts  --      2.3531                 4.6828                 6.0398
 IR Inten    --     37.3115               147.9246               433.8350

                     19                     20                     21
                      A                      A                      A
 Frequencies --    994.8342              1109.7190              1188.4808
 Red. masses --     11.4051                13.1548                 1.3517
 Frc consts  --      6.6505                 9.5447                 1.1249
 IR Inten    --    189.4010               220.5479                86.9128

                     22                     23                     24
                      A                      A                      A
 Frequencies --   1281.2776              1295.6404              1363.9697
 Red. masses --     11.8075                13.0932                 8.8126
 Frc consts  --     11.4208                12.9499                 9.6597
 IR Inten    --    406.7790               253.1420                92.9584

                     25                     26                     27
                      A                      A                      A
 Frequencies --   1385.3226              1623.1396              3856.5771
 Red. masses --     11.4036                 8.4400                 1.0663
 Frc consts  --     12.8942                13.1009                 9.3441
 IR Inten    --    154.5967               146.4716               196.7160

 - Thermochemistry -
 -------------------
 Temperature   298.150 Kelvin.  Pressure   1.00000 Atm.
 Atom     1 has atomic number  6 and mass  12.00000

 Molecular mass:   163.98967 amu.
 Principal axes and moments of inertia in atomic units:
                           1         2         3
     Eigenvalues --   930.732081551.176051742.03675
           X            0.80229   0.59349  -0.06397
           Y            0.43538  -0.50847   0.74290
           Z           -0.40838   0.62388   0.66633
 This molecule is an asymmetric top.
 Rotational symmetry number  1.
 Warning -- assumption of classical behavior for rotation
           may cause significant error
 Rotational temperatures (Kelvin)      0.09306     0.05584     0.04972
 Rotational constants (GHZ):           1.93906     1.16347     1.03599
    1 imaginary frequencies ignored.
 Zero-point vibrational energy     129210.0 (Joules/Mol)
                                   30.88194 (Kcal/Mol)
 Warning -- explicit consideration of  12 degrees of freedom as
           vibrations may cause significant error
 Vibrational temperatures:     60.33   111.43   197.93   308.29   337.00
          (Kelvin)            456.18   509.95   541.06   679.98   692.48
                              810.33   852.78   911.87   968.12  1007.00
                             1088.00  1262.81  1431.34  1596.64  1709.96
                             1843.47  1864.14  1962.45  1993.17  2335.34
                             5548.75

 Zero-point correction=                           0.049213 (Hartree/Particle)
 Thermal correction to Energy=                    0.057959
 Thermal correction to Enthalpy=                  0.058904
 Thermal correction to Gibbs Free Energy=         0.014241
 Sum of electronic and zero-point Energies=           -764.462043
 Sum of electronic and thermal Energies=              -764.453297
 Sum of electronic and thermal Enthalpies=            -764.452353
 Sum of electronic and thermal Free Energies=         -764.497015

                     E (Thermal)             CV                S
                      KCal/Mol        Cal/Mol-Kelvin    Cal/Mol-Kelvin
 Total                   36.370             30.302             94.000
 Electronic               0.000              0.000              0.000
 Translational            0.889              2.981             41.192
 Rotational               0.889              2.981             29.310
 Vibrational             34.593             24.340             23.497
 Vibration     1          0.595              1.980              5.166
 Vibration     2          0.599              1.964              3.955
 Vibration     3          0.614              1.916              2.837
 Vibration     4          0.644              1.819              2.007
 Vibration     5          0.654              1.788              1.846
 Vibration     6          0.704              1.641              1.325
 Vibration     7          0.730              1.566              1.146
 Vibration     8          0.747              1.521              1.055
 Vibration     9          0.829              1.311              0.730
 Vibration    10          0.838              1.292              0.707
 Vibration    11          0.919              1.111              0.517
 Vibration    12          0.950              1.047              0.462

 Normal termination of Gaussian 16 at Sat May 24 05:55:48 2025.
