 Gaussian 16, Revision C.01,
 Gaussian 16:  ES64L-G16RevC.01  3-Jul-2019

 -----------------------------------------------------------------
 #P M062X/Def2TZVPP Symm(None) scf(xqc) pop(None) freq opt(CalcFC)
 -----------------------------------------------------------------

 ------------------------------
 Gaussian input prepared by ASE
 ------------------------------
 Symbolic Z-matrix:
 Charge =  0 Multiplicity = 1

 SCF Done:  E(RM062X) =  -764.621047731     A.U. after   13 cycles
 SCF Done:  E(RM062X) =  -764.622886006     A.U. after   11 cycles
 SCF Done:  E(RM062X) =  -764.622934356     A.U. after   10 cycles
 SCF Done:  E(RM062X) =  -764.622938718     A.U. after   10 cycles
 SCF Done:  E(RM062X) =  -764.622939184     A.U. after    7 cycles
 SCF Done:  E(RM062X) =  -764.622939269     A.U. after    7 cycles
 Optimization completed.
    -- Stationary point found.
 Normal termination of Gaussian 16 at Sat May 24 07:36:22 2025.

 ---------------------------------------------------------------------
 #P Geom=AllCheck Guess=TCheck SCRF=Check GenChk RM062X/def2TZVPP Freq
 ---------------------------------------------------------------------

 Structure from the checkpoint file:  "/tmp/Gau-218730.chk"
 ------------------------------
 Gaussian input prepared by ASE
 ------------------------------
 Charge =  0 Multiplicity = 1

                          Input orientation:
 ---------------------------------------------------------------------
 Center     Atomic      Atomic             Coordinates (Angstroms)
 Number     Number       Type             X           Y           Z
 ---------------------------------------------------------------------
      1          6           0        1.377528   -0.014854    0.038858
      2          8           0       -0.000543    0.002869    0.007166
      3          6           0        2.010366   -1.163796    0.199387
      4          6           0       -0.578411    0.014642   -1.228317
      5          9           0       -0.249841   -1.061782   -1.932144
      6          9           0       -1.883627    0.032485   -1.052083
      7          9           0       -0.223864    1.081619   -1.934103
      8          9           0        3.308101   -1.266126    0.331767
      9          9           0        1.417256   -2.330532    0.227823
     10          8           0        2.023535    1.159725   -0.089793
     11          1           0        1.741168    1.767839    0.602951
 ---------------------------------------------------------------------

 SCF Done:  E(RM062X) =  -764.622939269     A.U. after    1 cycles

 Isotropic polarizability for W=    0.000000       46.04 Bohr**3.
 End of Minotr F.D. properties file   721 does not exist.

                      1                      2                      3
                      A                      A                      A
 Frequencies --     26.3704                76.1299               123.8645
 Red. masses --     14.3169                14.8793                18.0118
 Frc consts  --      0.0059                 0.0508                 0.1628
 IR Inten    --      0.4467                 0.4028                 0.1884

                      4                      5                      6
                      A                      A                      A
 Frequencies --    201.1676               214.2305               263.5258
 Red. masses --      5.2263                14.1468                 1.2438
 Frc consts  --      0.1246                 0.3825                 0.0509
 IR Inten    --     12.1662                 1.7835               132.6248

                      7                      8                      9
                      A                      A                      A
 Frequencies --    353.9275               372.3566               435.0548
 Red. masses --      9.9082                16.7939                 8.3972
 Frc consts  --      0.7313                 1.3719                 0.9364
 IR Inten    --     17.1464                 1.2416                14.7591

                     10                     11                     12
                      A                      A                      A
 Frequencies --    470.8177               547.7860               563.1053
 Red. masses --     17.1895                16.3113                12.7862
 Frc consts  --      2.2450                 2.8838                 2.3887
 IR Inten    --      0.4600                 3.6092                 6.2564

                     13                     14                     15
                      A                      A                      A
 Frequencies --    623.1033               646.3989               654.8949
 Red. masses --     10.5281                15.8129                15.8639
 Frc consts  --      2.4084                 3.8928                 4.0087
 IR Inten    --      7.4502                18.1373                 7.9486

                     16                     17                     18
                      A                      A                      A
 Frequencies --    728.9230               848.0286               942.1862
 Red. masses --     12.1901                16.1124                13.9007
 Frc consts  --      3.8161                 6.8270                 7.2704
 IR Inten    --      5.8603                 4.9197                23.6428

                     19                     20                     21
                      A                      A                      A
 Frequencies --   1173.7301              1239.5703              1265.5880
 Red. masses --      3.8724                 6.8234                11.6357
 Frc consts  --      3.1431                 6.1772                10.9806
 IR Inten    --    234.1441               589.8718               320.2410

                     22                     23                     24
                      A                      A                      A
 Frequencies --   1307.2879              1335.9638              1346.9329
 Red. masses --      1.9496                12.7629                 8.6505
 Frc consts  --      1.9631                13.4211                 9.2467
 IR Inten    --     97.3121               396.8106               235.2471

                     25                     26                     27
                      A                      A                      A
 Frequencies --   1395.6203              1924.8155              3828.3062
 Red. masses --     12.7164                11.0457                 1.0659
 Frc consts  --     14.5931                24.1113                 9.2040
 IR Inten    --    216.5690                37.3666                98.4342

 - Thermochemistry -
 -------------------
 Temperature   298.150 Kelvin.  Pressure   1.00000 Atm.
 Atom     1 has atomic number  6 and mass  12.00000

 Molecular mass:   163.98967 amu.
 Principal axes and moments of inertia in atomic units:
                           1         2         3
     Eigenvalues --   752.535581953.313442344.52688
           X            0.84439   0.34971  -0.40585
           Y           -0.33150   0.93617   0.11700
           Z            0.42086   0.03575   0.90642
 This molecule is an asymmetric top.
 Rotational symmetry number  1.
 Warning -- assumption of classical behavior for rotation
           may cause significant error
 Rotational temperatures (Kelvin)      0.11510     0.04434     0.03694
 Rotational constants (GHZ):           2.39821     0.92394     0.76977
 Zero-point vibrational energy     137030.4 (Joules/Mol)
                                   32.75104 (Kcal/Mol)
 Warning -- explicit consideration of  12 degrees of freedom as
           vibrations may cause significant error
 Vibrational temperatures:     37.94   109.53   178.21   289.44   308.23
          (Kelvin)            379.15   509.22   535.74   625.95   677.40
                              788.14   810.18   896.51   930.02   942.25
                             1048.76  1220.12  1355.60  1688.74  1783.47
                             1820.90  1880.90  1922.15  1937.94  2007.99
                             2769.38  5508.08

 Zero-point correction=                           0.052192 (Hartree/Particle)
 Thermal correction to Energy=                    0.061250
 Thermal correction to Enthalpy=                  0.062194
 Thermal correction to Gibbs Free Energy=         0.016354
 Sum of electronic and zero-point Energies=           -764.570747
 Sum of electronic and thermal Energies=              -764.561689
 Sum of electronic and thermal Enthalpies=            -764.560745
 Sum of electronic and thermal Free Energies=         -764.606586

                     E (Thermal)             CV                S
                      KCal/Mol        Cal/Mol-Kelvin    Cal/Mol-Kelvin
 Total                   38.435             31.023             96.480
 Electronic               0.000              0.000              0.000
 Translational            0.889              2.981             41.192
 Rotational               0.889              2.981             29.623
 Vibrational             36.658             25.062             25.664
 Vibration     1          0.593              1.985              6.085
 Vibration     2          0.599              1.965              3.988
 Vibration     3          0.610              1.929              3.039
 Vibration     4          0.638              1.838              2.122
 Vibration     5          0.644              1.819              2.007
 Vibration     6          0.670              1.740              1.638
 Vibration     7          0.730              1.567              1.149
 Vibration     8          0.744              1.529              1.070
 Vibration     9          0.796              1.394              0.842
 Vibration    10          0.828              1.315              0.735
 Vibration    11          0.903              1.145              0.549
 Vibration    12          0.919              1.111              0.518

                           ! Non-Optimized Parameters !
 Normal termination of Gaussian 16 at Sat May 24 07:38:59 2025.
