 Gaussian 16, Revision C.01,
 Gaussian 16:  ES64L-G16RevC.01  3-Jul-2019

 ----------------------------------------------------------------------
 #P M062X/Def2TZVPP Symm(None) scf(xqc) pop(None) opt(CalcAll,Cartesian
 )
 ----------------------------------------------------------------------

 ------------------------------
 Gaussian input prepared by ASE
 ------------------------------
 Symbolic Z-matrix:
 Charge =  0 Multiplicity = 1

 SCF Done:  E(RM062X) =  -764.585613006     A.U. after   13 cycles
 SCF Done:  E(RM062X) =  -764.585664191     A.U. after   10 cycles
 SCF Done:  E(RM062X) =  -764.585666035     A.U. after    8 cycles
 SCF Done:  E(RM062X) =  -764.585666050     A.U. after    7 cycles

 Isotropic polarizability for W=    0.000000       46.55 Bohr**3.
 End of Minotr F.D. properties file   721 does not exist.

 Optimization completed.
    -- Stationary point found.

                          Input orientation:
 ---------------------------------------------------------------------
 Center     Atomic      Atomic             Coordinates (Angstroms)
 Number     Number       Type             X           Y           Z
 ---------------------------------------------------------------------
      1          6           0        0.061383   -0.552276   -0.840945
      2          8           0        0.741730    0.569174   -1.241496
      3          6           0        1.942535    2.610526   -1.302124
      4          6           0        1.263586    1.536384   -0.426692
      5          9           0        2.450564    3.552486   -0.520250
      6          9           0        0.311770    2.122830    0.319207
      7          9           0        2.173507    1.030553    0.423121
      8          9           0        2.915094    2.064099   -2.010671
      9          9           0        1.054376    3.154624   -2.115548
     10          8           0       -0.071678   -0.653693    0.443370
     11          1           0        0.300316    0.038442    1.016429
 ---------------------------------------------------------------------

                      1                      2                      3
                      A                      A                      A
 Frequencies --     66.2524                73.8243               143.2271
 Red. masses --     15.0337                 7.5072                13.5881
 Frc consts  --      0.0389                 0.0241                 0.1642
 IR Inten    --      0.0405                 5.4023                 2.4040

                      4                      5                      6
                      A                      A                      A
 Frequencies --    174.0662               229.3045               254.0825
 Red. masses --      4.0493                17.9940                11.2051
 Frc consts  --      0.0723                 0.5574                 0.4262
 IR Inten    --     38.3465                 0.5599                 8.0023

                      7                      8                      9
                      A                      A                      A
 Frequencies --    319.8452               374.8928               387.1282
 Red. masses --     16.3033                18.0514                13.1722
 Frc consts  --      0.9827                 1.4948                 1.1631
 IR Inten    --      1.1757                 0.3289                 2.8785

                     10                     11                     12
                      A                      A                      A
 Frequencies --    516.2711               524.8762               602.9916
 Red. masses --     13.4803                 7.8810                14.4055
 Frc consts  --      2.1169                 1.2792                 3.0860
 IR Inten    --     11.6045                 0.7157                 0.7090

                     13                     14                     15
                      A                      A                      A
 Frequencies --    620.9653               653.7652               686.4267
 Red. masses --      7.8294                 8.4414                 1.8389
 Frc consts  --      1.7788                 2.1257                 0.5105
 IR Inten    --     11.8841                 9.1870                56.1048

                     16                     17                     18
                      A                      A                      A
 Frequencies --    785.4256               846.4745               991.8807
 Red. masses --     10.5026                12.5458                 5.8459
 Frc consts  --      3.8173                 5.2963                 3.3886
 IR Inten    --     28.1239                10.9065                89.2063

                     19                     20                     21
                      A                      A                      A
 Frequencies --   1141.3053              1196.2504              1218.5741
 Red. masses --     11.7105                10.2929                11.7690
 Frc consts  --      8.9873                 8.6783                10.2966
 IR Inten    --    718.3147                68.8095               231.3710

                     22                     23                     24
                      A                      A                      A
 Frequencies --   1297.2429              1309.4089              1315.6249
 Red. masses --     12.3432                13.1172                 1.5839
 Frc consts  --     12.2383                13.2508                 1.6152
 IR Inten    --    281.4614               316.6257               210.2287

                     25                     26                     27
                      A                      A                      A
 Frequencies --   1376.7860              1462.5598              3689.3271
 Red. masses --      8.2354                 9.6389                 1.0633
 Frc consts  --      9.1974                12.1480                 8.5274
 IR Inten    --    182.3090                 7.6527                42.1745

 - Thermochemistry -
 -------------------
 Temperature   298.150 Kelvin.  Pressure   1.00000 Atm.
 Atom     1 has atomic number  6 and mass  12.00000

 Molecular mass:   163.98967 amu.
 Principal axes and moments of inertia in atomic units:
                           1         2         3
     Eigenvalues --   709.028491819.245271895.11752
           X            0.48789   0.14079   0.86148
           Y            0.79741   0.32960  -0.50547
           Z           -0.35510   0.93357   0.04854
 This molecule is an asymmetric top.
 Rotational symmetry number  1.
 Warning -- assumption of classical behavior for rotation
           may cause significant error
 Rotational temperatures (Kelvin)      0.12216     0.04761     0.04570
 Rotational constants (GHZ):           2.54537     0.99203     0.95231
 Zero-point vibrational energy     133137.1 (Joules/Mol)
                                   31.82052 (Kcal/Mol)
 Warning -- explicit consideration of  12 degrees of freedom as
           vibrations may cause significant error
 Vibrational temperatures:     95.32   106.22   206.07   250.44   329.92
          (Kelvin)            365.57   460.19   539.39   556.99   742.80
                              755.18   867.57   893.43   940.62   987.61
                             1130.05  1217.89  1427.10  1642.08  1721.14
                             1753.26  1866.44  1883.95  1892.89  1980.89
                             2104.30  5308.12

 Zero-point correction=                           0.050709 (Hartree/Particle)
 Thermal correction to Energy=                    0.059700
 Thermal correction to Enthalpy=                  0.060644
 Thermal correction to Gibbs Free Energy=         0.015790
 Sum of electronic and zero-point Energies=           -764.534957
 Sum of electronic and thermal Energies=              -764.525966
 Sum of electronic and thermal Enthalpies=            -764.525022
 Sum of electronic and thermal Free Energies=         -764.569876

                     E (Thermal)             CV                S
                      KCal/Mol        Cal/Mol-Kelvin    Cal/Mol-Kelvin
 Total                   37.462             31.008             94.404
 Electronic               0.000              0.000              0.000
 Translational            0.889              2.981             41.192
 Rotational               0.889              2.981             29.282
 Vibrational             35.685             25.046             23.930
 Vibration     1          0.598              1.970              4.262
 Vibration     2          0.599              1.966              4.049
 Vibration     3          0.616              1.910              2.760
 Vibration     4          0.627              1.874              2.391
 Vibration     5          0.652              1.796              1.884
 Vibration     6          0.665              1.756              1.702
 Vibration     7          0.706              1.636              1.311
 Vibration     8          0.746              1.524              1.060
 Vibration     9          0.756              1.498              1.011
 Vibration    10          0.871              1.214              0.619
 Vibration    11          0.880              1.195              0.599
 Vibration    12          0.961              1.025              0.445

 Normal termination of Gaussian 16 at Sat May 24 05:46:41 2025.
