 Gaussian 16, Revision C.01,
 Gaussian 16:  ES64L-G16RevC.01  3-Jul-2019

 -----------------------------------------------------------------
 #P M062X/Def2TZVPP Symm(None) scf(xqc) pop(None) freq opt(CalcFC)
 -----------------------------------------------------------------

 ------------------------------
 Gaussian input prepared by ASE
 ------------------------------
 Symbolic Z-matrix:
 Charge =  0 Multiplicity = 1

 SCF Done:  E(RM062X) =  -764.573804925     A.U. after   13 cycles
 SCF Done:  E(RM062X) =  -764.600341826     A.U. after   15 cycles
 SCF Done:  E(RM062X) =  -764.601518318     A.U. after   14 cycles
 SCF Done:  E(RM062X) =  -764.598284325     A.U. after   14 cycles
 SCF Done:  E(RM062X) =  -764.600084052     A.U. after   12 cycles
 SCF Done:  E(RM062X) =  -764.601952813     A.U. after    9 cycles
 SCF Done:  E(RM062X) =  -764.602026033     A.U. after   13 cycles
 SCF Done:  E(RM062X) =  -764.602131747     A.U. after   12 cycles
 SCF Done:  E(RM062X) =  -764.602132435     A.U. after    8 cycles
 Optimization completed.
    -- Stationary point found.
 Normal termination of Gaussian 16 at Sat May 24 05:06:45 2025.

 ---------------------------------------------------------------------
 #P Geom=AllCheck Guess=TCheck SCRF=Check GenChk RM062X/def2TZVPP Freq
 ---------------------------------------------------------------------

 Structure from the checkpoint file:  "/tmp/Gau-82893.chk"
 ------------------------------
 Gaussian input prepared by ASE
 ------------------------------
 Charge =  0 Multiplicity = 1

                          Input orientation:
 ---------------------------------------------------------------------
 Center     Atomic      Atomic             Coordinates (Angstroms)
 Number     Number       Type             X           Y           Z
 ---------------------------------------------------------------------
      1          6           0        0.121424   -0.053753    0.313340
      2          8           0        1.412210   -0.004278   -0.062028
      3          6           0        3.435142    1.116744   -0.516177
      4          6           0        1.965196    1.255777   -0.064453
      5          9           0        4.004939    2.312971   -0.531280
      6          9           0        1.331514    2.065972   -0.908810
      7          9           0        1.938996    1.803666    1.148068
      8          9           0        4.097698    0.334419    0.321866
      9          9           0        3.491304    0.597243   -1.732899
     10          8           0       -0.175633   -1.317734    0.239357
     11          1           0       -1.097749   -1.414278    0.499849
 ---------------------------------------------------------------------

 SCF Done:  E(RM062X) =  -764.602132435     A.U. after    1 cycles

 Isotropic polarizability for W=    0.000000       46.56 Bohr**3.
 End of Minotr F.D. properties file   721 does not exist.

                      1                      2                      3
                      A                      A                      A
 Frequencies --     61.7760               112.5263               127.8740
 Red. masses --     14.9257                 8.6061                10.5948
 Frc consts  --      0.0336                 0.0642                 0.1021
 IR Inten    --      0.3709                 1.0097                 0.7709

                      4                      5                      6
                      A                      A                      A
 Frequencies --    156.8616               226.8119               277.1170
 Red. masses --     13.9271                18.2690                12.5928
 Frc consts  --      0.2019                 0.5537                 0.5698
 IR Inten    --      0.0814                 3.1899                 5.1860

                      7                      8                      9
                      A                      A                      A
 Frequencies --    344.4289               377.7946               388.2109
 Red. masses --     14.5765                16.1676                16.6597
 Frc consts  --      1.0188                 1.3596                 1.4793
 IR Inten    --      0.4173                 0.0739                 0.1329

                     10                     11                     12
                      A                      A                      A
 Frequencies --    468.0041               532.3101               557.0390
 Red. masses --     10.8782                14.5329                16.6387
 Frc consts  --      1.4038                 2.4262                 3.0419
 IR Inten    --      0.7953                 7.9112                 9.8090

                     13                     14                     15
                      A                      A                      A
 Frequencies --    628.8575               669.8640               739.9999
 Red. masses --     14.9887                12.6243                 1.1555
 Frc consts  --      3.4923                 3.3376                 0.3728
 IR Inten    --      0.3734                 9.5127                83.0238

                     16                     17                     18
                      A                      A                      A
 Frequencies --    768.4389               900.2688              1068.4623
 Red. masses --     15.9841                10.2979                 4.5200
 Frc consts  --      5.5611                 4.9175                 3.0402
 IR Inten    --     52.2616               101.3446               101.0386

                     19                     20                     21
                      A                      A                      A
 Frequencies --   1164.0210              1238.0216              1269.3625
 Red. masses --      9.7165                 3.9454                12.9708
 Frc consts  --      7.7568                 3.5629                12.3137
 IR Inten    --    744.0109               209.2245               113.5697

                     22                     23                     24
                      A                      A                      A
 Frequencies --   1295.9709              1300.3485              1369.2614
 Red. masses --     12.5838                13.2278                 2.1782
 Frc consts  --     12.4524                13.1782                 2.4062
 IR Inten    --    373.3554               386.1402               110.7338

                     25                     26                     27
                      A                      A                      A
 Frequencies --   1395.0896              1474.5705              3865.5984
 Red. masses --     11.0661                10.6833                 1.0665
 Frc consts  --     12.6896                13.6863                 9.3896
 IR Inten    --    101.1517                21.0410               209.4479

 - Thermochemistry -
 -------------------
 Temperature   298.150 Kelvin.  Pressure   1.00000 Atm.
 Atom     1 has atomic number  6 and mass  12.00000

 Molecular mass:   163.98967 amu.
 Principal axes and moments of inertia in atomic units:
                           1         2         3
     Eigenvalues --   781.242931894.502742042.92984
           X            0.86349  -0.41874   0.28114
           Y            0.46487   0.87700  -0.12153
           Z           -0.19567   0.23563   0.95194
 This molecule is an asymmetric top.
 Rotational symmetry number  1.
 Warning -- assumption of classical behavior for rotation
           may cause significant error
 Rotational temperatures (Kelvin)      0.11087     0.04572     0.04240
 Rotational constants (GHZ):           2.31009     0.95262     0.88341
 Zero-point vibrational energy     136248.0 (Joules/Mol)
                                   32.56406 (Kcal/Mol)
 Warning -- explicit consideration of  12 degrees of freedom as
           vibrations may cause significant error
 Vibrational temperatures:     88.88   161.90   183.98   225.69   326.33
          (Kelvin)            398.71   495.56   543.56   558.55   673.35
                              765.88   801.45   904.79   963.78  1064.69
                             1105.61  1295.29  1537.28  1674.77  1781.24
                             1826.33  1864.61  1870.91  1970.06  2007.22
                             2121.58  5561.73

 Zero-point correction=                           0.051894 (Hartree/Particle)
 Thermal correction to Energy=                    0.060815
 Thermal correction to Enthalpy=                  0.061760
 Thermal correction to Gibbs Free Energy=         0.017046
 Sum of electronic and zero-point Energies=           -764.550238
 Sum of electronic and thermal Energies=              -764.541317
 Sum of electronic and thermal Enthalpies=            -764.540373
 Sum of electronic and thermal Free Energies=         -764.585086

                     E (Thermal)             CV                S
                      KCal/Mol        Cal/Mol-Kelvin    Cal/Mol-Kelvin
 Total                   38.162             30.738             94.107
 Electronic               0.000              0.000              0.000
 Translational            0.889              2.981             41.192
 Rotational               0.889              2.981             29.493
 Vibrational             36.385             24.776             23.421
 Vibration     1          0.597              1.973              4.400
 Vibration     2          0.607              1.939              3.225
 Vibration     3          0.611              1.925              2.978
 Vibration     4          0.621              1.895              2.587
 Vibration     5          0.650              1.800              1.904
 Vibration     6          0.678              1.716              1.551
 Vibration     7          0.723              1.587              1.192
 Vibration     8          0.748              1.517              1.048
 Vibration     9          0.756              1.495              1.007
 Vibration    10          0.825              1.321              0.743
 Vibration    11          0.887              1.179              0.582
 Vibration    12          0.913              1.124              0.530

 Optimization completed.
    -- Stationary point found.
 Normal termination of Gaussian 16 at Sat May 24 05:10:36 2025.
