 Gaussian 16, Revision C.01,
 Gaussian 16:  ES64L-G16RevC.01  3-Jul-2019

 -----------------------------------------------------------------
 #P M062X/Def2TZVPP Symm(None) scf(xqc) pop(None) freq opt(CalcFC)
 -----------------------------------------------------------------

 ------------------------------
 Gaussian input prepared by ASE
 ------------------------------
 Symbolic Z-matrix:
 Charge =  0 Multiplicity = 1

 SCF Done:  E(RM062X) =  -764.613804411     A.U. after   13 cycles
 SCF Done:  E(RM062X) =  -764.620804707     A.U. after   13 cycles
 SCF Done:  E(RM062X) =  -764.587307563     A.U. after   14 cycles
 SCF Done:  E(RM062X) =  -764.621640944     A.U. after   11 cycles
 SCF Done:  E(RM062X) =  -764.622066027     A.U. after   11 cycles
 SCF Done:  E(RM062X) =  -764.622610948     A.U. after   14 cycles
 SCF Done:  E(RM062X) =  -764.623227813     A.U. after   11 cycles
 SCF Done:  E(RM062X) =  -764.623723372     A.U. after   11 cycles
 SCF Done:  E(RM062X) =  -764.623813571     A.U. after   11 cycles
 SCF Done:  E(RM062X) =  -764.623860465     A.U. after   10 cycles
 SCF Done:  E(RM062X) =  -764.623866490     A.U. after    8 cycles
 SCF Done:  E(RM062X) =  -764.623868752     A.U. after    7 cycles
 SCF Done:  E(RM062X) =  -764.623870069     A.U. after    7 cycles
 SCF Done:  E(RM062X) =  -764.623870871     A.U. after    7 cycles
 Optimization completed.
    -- Stationary point found.
 Normal termination of Gaussian 16 at Sat May 24 07:41:49 2025.

 ---------------------------------------------------------------------
 #P Geom=AllCheck Guess=TCheck SCRF=Check GenChk RM062X/def2TZVPP Freq
 ---------------------------------------------------------------------

 Structure from the checkpoint file:  "/tmp/Gau-233786.chk"
 ------------------------------
 Gaussian input prepared by ASE
 ------------------------------
 Charge =  0 Multiplicity = 1

                          Input orientation:
 ---------------------------------------------------------------------
 Center     Atomic      Atomic             Coordinates (Angstroms)
 Number     Number       Type             X           Y           Z
 ---------------------------------------------------------------------
      1          6           0        1.431670    0.158639   -0.108885
      2          8           0        0.063777    0.238852   -0.296750
      3          6           0        1.948255   -0.943770    0.405682
      4          6           0       -0.619210    0.864620    0.692490
      5          9           0       -0.091355    2.068714    0.962688
      6          9           0       -1.861443    1.026611    0.297618
      7          9           0       -0.608936    0.174685    1.825559
      8          9           0        3.231355   -1.135392    0.571310
      9          9           0        1.242328   -1.981919    0.775816
     10          8           0        2.186180    1.157765   -0.600198
     11          1           0        2.019049    1.972651   -0.112488
 ---------------------------------------------------------------------

 SCF Done:  E(RM062X) =  -764.623870871     A.U. after    1 cycles

 Isotropic polarizability for W=    0.000000       45.83 Bohr**3.
 End of Minotr F.D. properties file   721 does not exist.

                      1                      2                      3
                      A                      A                      A
 Frequencies --     48.0009                72.4854               126.0168
 Red. masses --     14.7955                15.6719                13.7160
 Frc consts  --      0.0201                 0.0485                 0.1283
 IR Inten    --      0.2431                 0.3073                 2.7841

                      4                      5                      6
                      A                      A                      A
 Frequencies --    202.0852               214.4967               282.1452
 Red. masses --      8.7998                 6.8147                 1.2114
 Frc consts  --      0.2117                 0.1847                 0.0568
 IR Inten    --      3.6804                 5.8321               131.4252

                      7                      8                      9
                      A                      A                      A
 Frequencies --    354.2200               371.3926               444.3932
 Red. masses --     11.9657                16.2032                10.6864
 Frc consts  --      0.8846                 1.3168                 1.2434
 IR Inten    --      9.9635                 3.0272                 5.1187

                     10                     11                     12
                      A                      A                      A
 Frequencies --    479.7387               541.8311               563.9516
 Red. masses --     13.9939                16.5820                13.3958
 Frc consts  --      1.8976                 2.8682                 2.5102
 IR Inten    --      1.5454                 1.6253                 4.6737

                     13                     14                     15
                      A                      A                      A
 Frequencies --    629.0133               647.9501               654.6606
 Red. masses --     11.3457                15.6830                15.6613
 Frc consts  --      2.6448                 3.8794                 3.9547
 IR Inten    --      2.7536                11.0818                 9.7001

                     16                     17                     18
                      A                      A                      A
 Frequencies --    722.2525               846.5440               942.0900
 Red. masses --     13.6563                11.5994                15.0909
 Frc consts  --      4.1972                 4.8976                 7.8913
 IR Inten    --     13.8007                 2.5214                37.3648

                     19                     20                     21
                      A                      A                      A
 Frequencies --   1174.9027              1219.6406              1266.0211
 Red. masses --      4.4599                10.9927                 5.4905
 Frc consts  --      3.6273                 9.6342                 5.1850
 IR Inten    --    316.1594               191.6726               621.3140

                     22                     23                     24
                      A                      A                      A
 Frequencies --   1297.3686              1350.2817              1355.1049
 Red. masses --      2.5805                 4.4682                10.5122
 Frc consts  --      2.5591                 4.7999                11.3734
 IR Inten    --    251.1760               183.0360               280.4895

                     25                     26                     27
                      A                      A                      A
 Frequencies --   1396.8179              1921.2488              3829.0109
 Red. masses --     12.8337                11.1148                 1.0658
 Frc consts  --     14.7530                24.1724                 9.2069
 IR Inten    --    241.1973                41.8722               102.4085

 - Thermochemistry -
 -------------------
 Temperature   298.150 Kelvin.  Pressure   1.00000 Atm.
 Atom     1 has atomic number  6 and mass  12.00000

 Molecular mass:   163.98967 amu.
 Principal axes and moments of inertia in atomic units:
                           1         2         3
     Eigenvalues --   758.004531937.284312323.73744
           X            0.84298   0.45156   0.29237
           Y           -0.53103   0.78541   0.31802
           Z           -0.08602  -0.42334   0.90188
 This molecule is an asymmetric top.
 Rotational symmetry number  1.
 Warning -- assumption of classical behavior for rotation
           may cause significant error
 Rotational temperatures (Kelvin)      0.11427     0.04471     0.03727
 Rotational constants (GHZ):           2.38091     0.93158     0.77665
 Zero-point vibrational energy     137293.4 (Joules/Mol)
                                   32.81391 (Kcal/Mol)
 Warning -- explicit consideration of  12 degrees of freedom as
           vibrations may cause significant error
 Vibrational temperatures:     69.06   104.29   181.31   290.76   308.61
          (Kelvin)            405.94   509.64   534.35   639.38   690.24
                              779.57   811.40   905.01   932.26   941.91
                             1039.16  1217.99  1355.46  1690.42  1754.79
                             1821.52  1866.62  1942.75  1949.69  2009.71
                             2764.25  5509.09

 Zero-point correction=                           0.052292 (Hartree/Particle)
 Thermal correction to Energy=                    0.061269
 Thermal correction to Enthalpy=                  0.062213
 Thermal correction to Gibbs Free Energy=         0.016992
 Sum of electronic and zero-point Energies=           -764.571579
 Sum of electronic and thermal Energies=              -764.562602
 Sum of electronic and thermal Enthalpies=            -764.561657
 Sum of electronic and thermal Free Energies=         -764.606879

                     E (Thermal)             CV                S
                      KCal/Mol        Cal/Mol-Kelvin    Cal/Mol-Kelvin
 Total                   38.447             30.961             95.176
 Electronic               0.000              0.000              0.000
 Translational            0.889              2.981             41.192
 Rotational               0.889              2.981             29.613
 Vibrational             36.670             24.999             24.370
 Vibration     1          0.595              1.978              4.898
 Vibration     2          0.599              1.967              4.085
 Vibration     3          0.611              1.927              3.006
 Vibration     4          0.639              1.837              2.114
 Vibration     5          0.644              1.819              2.005
 Vibration     6          0.681              1.707              1.521
 Vibration     7          0.730              1.567              1.147
 Vibration     8          0.743              1.531              1.074
 Vibration     9          0.804              1.373              0.813
 Vibration    10          0.836              1.295              0.711
 Vibration    11          0.897              1.158              0.561
 Vibration    12          0.920              1.109              0.516

 Optimization completed.
    -- Stationary point found.
 Normal termination of Gaussian 16 at Sat May 24 07:45:09 2025.
