 Gaussian 16, Revision C.01,
 Gaussian 16:  ES64L-G16RevC.01  3-Jul-2019

 -----------------------------------------------------------------
 #P M062X/Def2TZVPP Symm(None) scf(xqc) pop(None) freq opt(CalcFC)
 -----------------------------------------------------------------

 ------------------------------
 Gaussian input prepared by ASE
 ------------------------------
 Symbolic Z-matrix:
 Charge =  0 Multiplicity = 1

 SCF Done:  E(RM062X) =  -764.623872408     A.U. after   13 cycles
 SCF Done:  E(RM062X) =  -764.623872796     A.U. after    7 cycles
 Optimization completed.
    -- Stationary point found.
 Normal termination of Gaussian 16 at Sat May 24 07:35:30 2025.

 ---------------------------------------------------------------------
 #P Geom=AllCheck Guess=TCheck SCRF=Check GenChk RM062X/def2TZVPP Freq
 ---------------------------------------------------------------------

 Structure from the checkpoint file:  "/tmp/Gau-167161.chk"
 ------------------------------
 Gaussian input prepared by ASE
 ------------------------------
 Charge =  0 Multiplicity = 1

                          Input orientation:
 ---------------------------------------------------------------------
 Center     Atomic      Atomic             Coordinates (Angstroms)
 Number     Number       Type             X           Y           Z
 ---------------------------------------------------------------------
      1          6           0        1.382414    0.000890    0.000891
      2          8           0       -0.000662    0.000828    0.000353
      3          6           0        2.026701   -1.144220    0.144305
      4          6           0       -0.577567   -0.011621   -1.225881
      5          9           0       -0.366012   -1.152065   -1.869916
      6          9           0       -1.870344    0.165308   -1.075426
      7          9           0       -0.094486    0.971332   -2.001763
      8          9           0        3.329252   -1.240851    0.211512
      9          9           0        1.438370   -2.306584    0.269973
     10          8           0        2.004266    1.193471    0.002755
     11          1           0        1.861946    1.645311   -0.837112
 ---------------------------------------------------------------------

 SCF Done:  E(RM062X) =  -764.623872796     A.U. after    1 cycles

 Isotropic polarizability for W=    0.000000       45.83 Bohr**3.
 End of Minotr F.D. properties file   721 does not exist.

                      1                      2                      3
                      A                      A                      A
 Frequencies --     48.2479                73.6301               129.0753
 Red. masses --     14.9629                15.6237                14.8746
 Frc consts  --      0.0205                 0.0499                 0.1460
 IR Inten    --      0.2206                 0.3206                 1.9010

                      4                      5                      6
                      A                      A                      A
 Frequencies --    205.0183               215.8851               304.0686
 Red. masses --      9.1116                 8.2507                 1.2007
 Frc consts  --      0.2256                 0.2266                 0.0654
 IR Inten    --      3.2150                 4.3278               125.3832

                      7                      8                      9
                      A                      A                      A
 Frequencies --    355.6846               371.4591               445.8163
 Red. masses --      9.6910                15.8225                10.3104
 Frc consts  --      0.7224                 1.2863                 1.2074
 IR Inten    --     16.1593                 3.6417                 6.0547

                     10                     11                     12
                      A                      A                      A
 Frequencies --    479.8849               542.1701               564.0767
 Red. masses --     13.6899                16.5584                13.3958
 Frc consts  --      1.8575                 2.8677                 2.5113
 IR Inten    --      1.7491                 1.5334                 4.7859

                     13                     14                     15
                      A                      A                      A
 Frequencies --    630.2880               647.9626               654.7614
 Red. masses --     11.3999                15.6016                15.6073
 Frc consts  --      2.6683                 3.8594                 3.9422
 IR Inten    --      2.7242                10.8818                10.1327

                     16                     17                     18
                      A                      A                      A
 Frequencies --    722.7506               846.6109               942.1071
 Red. masses --     13.6334                11.6440                15.1659
 Frc consts  --      4.1960                 4.9172                 7.9309
 IR Inten    --     13.8018                 2.4671                37.1978

                     19                     20                     21
                      A                      A                      A
 Frequencies --   1175.9572              1219.1507              1265.9211
 Red. masses --      4.6299                11.0482                 5.7432
 Frc consts  --      3.7723                 9.6751                 5.4227
 IR Inten    --    316.3653               195.9636               620.0114

                     22                     23                     24
                      A                      A                      A
 Frequencies --   1298.3387              1350.9862              1355.0824
 Red. masses --      2.5187                 4.4051                 9.8411
 Frc consts  --      2.5015                 4.7370                10.6470
 IR Inten    --    256.4113               176.6071               279.6129

                     25                     26                     27
                      A                      A                      A
 Frequencies --   1396.9333              1922.4455              3829.1514
 Red. masses --     12.8330                11.1213                 1.0658
 Frc consts  --     14.7547                24.2166                 9.2072
 IR Inten    --    240.2535                42.2488               101.7811

 - Thermochemistry -
 -------------------
 Temperature   298.150 Kelvin.  Pressure   1.00000 Atm.
 Atom     1 has atomic number  6 and mass  12.00000

 Molecular mass:   163.98967 amu.
 Principal axes and moments of inertia in atomic units:
                           1         2         3
     Eigenvalues --   758.034721936.950662323.46735
           X            0.85266   0.34368  -0.39351
           Y           -0.32132   0.93885   0.12374
           Z            0.41198   0.02093   0.91095
 This molecule is an asymmetric top.
 Rotational symmetry number  1.
 Warning -- assumption of classical behavior for rotation
           may cause significant error
 Rotational temperatures (Kelvin)      0.11426     0.04472     0.03728
 Rotational constants (GHZ):           2.38082     0.93174     0.77674
 Zero-point vibrational energy     137531.5 (Joules/Mol)
                                   32.87081 (Kcal/Mol)
 Warning -- explicit consideration of  12 degrees of freedom as
           vibrations may cause significant error
 Vibrational temperatures:     69.42   105.94   185.71   294.98   310.61
          (Kelvin)            437.49   511.75   534.45   641.43   690.45
                              780.06   811.58   906.84   932.27   942.06
                             1039.88  1218.08  1355.48  1691.94  1754.09
                             1821.38  1868.02  1943.77  1949.66  2009.88
                             2765.97  5509.29

 Zero-point correction=                           0.052383 (Hartree/Particle)
 Thermal correction to Energy=                    0.061313
 Thermal correction to Enthalpy=                  0.062257
 Thermal correction to Gibbs Free Energy=         0.017163
 Sum of electronic and zero-point Energies=           -764.571490
 Sum of electronic and thermal Energies=              -764.562560
 Sum of electronic and thermal Enthalpies=            -764.561616
 Sum of electronic and thermal Free Energies=         -764.606710

                     E (Thermal)             CV                S
                      KCal/Mol        Cal/Mol-Kelvin    Cal/Mol-Kelvin
 Total                   38.474             30.897             94.909
 Electronic               0.000              0.000              0.000
 Translational            0.889              2.981             41.192
 Rotational               0.889              2.981             29.613
 Vibrational             36.697             24.936             24.103
 Vibration     1          0.595              1.978              4.888
 Vibration     2          0.599              1.966              4.054
 Vibration     3          0.612              1.924              2.960
 Vibration     4          0.640              1.833              2.088
 Vibration     5          0.645              1.817              1.993
 Vibration     6          0.695              1.666              1.394
 Vibration     7          0.731              1.564              1.141
 Vibration     8          0.743              1.531              1.074
 Vibration     9          0.805              1.370              0.809
 Vibration    10          0.836              1.295              0.710
 Vibration    11          0.897              1.157              0.561
 Vibration    12          0.920              1.109              0.516

 Optimization completed.
    -- Stationary point found.
 Normal termination of Gaussian 16 at Sat May 24 07:38:39 2025.
