 Gaussian 16, Revision C.01,
 Gaussian 16:  ES64L-G16RevC.01  3-Jul-2019

 -----------------------------------------------------------------
 #P M062X/Def2TZVPP Symm(None) scf(xqc) pop(None) freq opt(CalcFC)
 -----------------------------------------------------------------

 ------------------------------
 Gaussian input prepared by ASE
 ------------------------------
 Symbolic Z-matrix:
 Charge =  0 Multiplicity = 1

 SCF Done:  E(RM062X) =  -764.541009029     A.U. after   13 cycles
 SCF Done:  E(RM062X) =  -764.562277836     A.U. after   14 cycles
 SCF Done:  E(RM062X) =  -764.582356942     A.U. after   14 cycles
 SCF Done:  E(RM062X) =  -764.583328459     A.U. after   13 cycles
 SCF Done:  E(RM062X) =  -764.586652271     A.U. after   14 cycles
 SCF Done:  E(RM062X) =  -764.587833895     A.U. after   14 cycles
 SCF Done:  E(RM062X) =  -764.593292847     A.U. after   12 cycles
 SCF Done:  E(RM062X) =  -764.594679625     A.U. after   12 cycles
 SCF Done:  E(RM062X) =  -764.595063928     A.U. after   11 cycles
 SCF Done:  E(RM062X) =  -764.595291657     A.U. after   10 cycles
 SCF Done:  E(RM062X) =  -764.595363936     A.U. after   10 cycles
 SCF Done:  E(RM062X) =  -764.595407333     A.U. after   10 cycles
 SCF Done:  E(RM062X) =  -764.595414014     A.U. after    9 cycles
 SCF Done:  E(RM062X) =  -764.595414699     A.U. after    8 cycles
 Optimization completed.
    -- Stationary point found.
 Normal termination of Gaussian 16 at Sat May 24 05:04:12 2025.

 ---------------------------------------------------------------------
 #P Geom=AllCheck Guess=TCheck SCRF=Check GenChk RM062X/def2TZVPP Freq
 ---------------------------------------------------------------------

 Structure from the checkpoint file:  "/tmp/Gau-69138.chk"
 ------------------------------
 Gaussian input prepared by ASE
 ------------------------------
 Charge =  0 Multiplicity = 1

                          Input orientation:
 ---------------------------------------------------------------------
 Center     Atomic      Atomic             Coordinates (Angstroms)
 Number     Number       Type             X           Y           Z
 ---------------------------------------------------------------------
      1          6           0        0.085065   -0.111541   -0.423617
      2          8           0        1.413676    0.090249   -0.439406
      3          6           0        3.551667    1.082668   -0.407893
      4          6           0        2.028026    1.329776   -0.350921
      5          9           0        4.186617    2.243996   -0.327731
      6          9           0        1.691135    2.125660   -1.364777
      7          9           0        1.742241    1.945990    0.795181
      8          9           0        3.927602    0.316022    0.603245
      9          9           0        3.875702    0.492989   -1.547547
     10          8           0       -0.513363    1.045025   -0.312908
     11          1           0       -1.462653    0.882875   -0.303419
 ---------------------------------------------------------------------

 SCF Done:  E(RM062X) =  -764.595414699     A.U. after    1 cycles

 Isotropic polarizability for W=    0.000000       46.42 Bohr**3.
 End of Minotr F.D. properties file   721 does not exist.

                      1                      2                      3
                      A                      A                      A
 Frequencies --     69.4689                94.6764               148.2496
 Red. masses --     16.9227                 8.8681                10.7040
 Frc consts  --      0.0481                 0.0468                 0.1386
 IR Inten    --      0.0001                 3.0588                 0.2693

                      4                      5                      6
                      A                      A                      A
 Frequencies --    224.4291               238.5389               248.6456
 Red. masses --     13.7510                14.7490                10.1875
 Frc consts  --      0.4081                 0.4945                 0.3711
 IR Inten    --      2.3001                 1.5862                 4.8712

                      7                      8                      9
                      A                      A                      A
 Frequencies --    320.3025               376.8077               396.2115
 Red. masses --     17.2982                17.9368                15.3999
 Frc consts  --      1.0456                 1.5005                 1.4244
 IR Inten    --      0.8092                 0.0022                 0.2503

                     10                     11                     12
                      A                      A                      A
 Frequencies --    509.1764               534.0656               598.1564
 Red. masses --     13.3370                10.8862                12.9046
 Frc consts  --      2.0373                 1.8294                 2.7204
 IR Inten    --      6.3622                15.1110                 8.2924

                     13                     14                     15
                      A                      A                      A
 Frequencies --    626.2977               639.8635               731.3514
 Red. masses --     10.8728                11.6342                 1.2309
 Frc consts  --      2.5128                 2.8065                 0.3879
 IR Inten    --      3.1294                29.0152                78.0463

                     16                     17                     18
                      A                      A                      A
 Frequencies --    788.9226               862.1977              1062.5675
 Red. masses --     13.1399                13.0315                 3.6340
 Frc consts  --      4.8185                 5.7077                 2.4174
 IR Inten    --      6.5307                 2.1180                52.1799

                     19                     20                     21
                      A                      A                      A
 Frequencies --   1135.6849              1193.3094              1265.6172
 Red. masses --     10.6298                 5.9560                13.0042
 Frc consts  --      8.0778                 4.9970                12.2726
 IR Inten    --    695.2866               135.4481               141.3182

                     22                     23                     24
                      A                      A                      A
 Frequencies --   1293.4011              1303.5401              1337.0566
 Red. masses --     12.4666                13.2135                 4.9630
 Frc consts  --     12.2875                13.2286                 5.2275
 IR Inten    --    253.3679               378.3439               208.9472

                     25                     26                     27
                      A                      A                      A
 Frequencies --   1367.0492              1455.9945              3864.3433
 Red. masses --      2.4895                12.4491                 1.0667
 Frc consts  --      2.7411                15.5492                 9.3853
 IR Inten    --    220.8031                14.2724               207.5454

 - Thermochemistry -
 -------------------
 Temperature   298.150 Kelvin.  Pressure   1.00000 Atm.
 Atom     1 has atomic number  6 and mass  12.00000

 Molecular mass:   163.98967 amu.
 Principal axes and moments of inertia in atomic units:
                           1         2         3
     Eigenvalues --   708.752391790.387881864.09985
           X            0.99598  -0.08633   0.02403
           Y            0.08803   0.99270  -0.08249
           Z           -0.01673   0.08428   0.99630
 This molecule is an asymmetric top.
 Rotational symmetry number  1.
 Warning -- assumption of classical behavior for rotation
           may cause significant error
 Rotational temperatures (Kelvin)      0.12221     0.04838     0.04646
 Rotational constants (GHZ):           2.54636     1.00802     0.96816
 Zero-point vibrational energy     135692.0 (Joules/Mol)
                                   32.43116 (Kcal/Mol)
 Warning -- explicit consideration of  12 degrees of freedom as
           vibrations may cause significant error
 Vibrational temperatures:     99.95   136.22   213.30   322.90   343.20
          (Kelvin)            357.75   460.84   542.14   570.06   732.59
                              768.40   860.61   901.10   920.62  1052.25
                             1135.08  1240.51  1528.80  1634.00  1716.91
                             1820.94  1860.92  1875.50  1923.73  1966.88
                             2094.85  5559.93

 Zero-point correction=                           0.051682 (Hartree/Particle)
 Thermal correction to Energy=                    0.060492
 Thermal correction to Enthalpy=                  0.061436
 Thermal correction to Gibbs Free Energy=         0.017200
 Sum of electronic and zero-point Energies=           -764.543732
 Sum of electronic and thermal Energies=              -764.534923
 Sum of electronic and thermal Enthalpies=            -764.533978
 Sum of electronic and thermal Free Energies=         -764.578214

                     E (Thermal)             CV                S
                      KCal/Mol        Cal/Mol-Kelvin    Cal/Mol-Kelvin
 Total                   37.959             30.703             93.102
 Electronic               0.000              0.000              0.000
 Translational            0.889              2.981             41.192
 Rotational               0.889              2.981             29.249
 Vibrational             36.182             24.741             22.661
 Vibration     1          0.598              1.969              4.168
 Vibration     2          0.603              1.953              3.561
 Vibration     3          0.618              1.905              2.695
 Vibration     4          0.649              1.804              1.923
 Vibration     5          0.657              1.782              1.814
 Vibration     6          0.662              1.765              1.740
 Vibration     7          0.706              1.635              1.309
 Vibration     8          0.747              1.520              1.052
 Vibration     9          0.763              1.478              0.977
 Vibration    10          0.864              1.230              0.636
 Vibration    11          0.889              1.175              0.578
 Vibration    12          0.956              1.036              0.453

 Optimization completed.
    -- Stationary point found.
 Normal termination of Gaussian 16 at Sat May 24 05:08:48 2025.
