 Gaussian 16, Revision C.01,
 Gaussian 16:  ES64L-G16RevC.01  3-Jul-2019

 ------------------------------------------
 #P am1 Symm(None) scf(xqc) pop(None) force
 ------------------------------------------

 ------------------------------
 Gaussian input prepared by ASE
 ------------------------------
 Symbolic Z-matrix:
 Charge =  0 Multiplicity = 1

                          Input orientation:
 ---------------------------------------------------------------------
 Center     Atomic      Atomic             Coordinates (Angstroms)
 Number     Number       Type             X           Y           Z
 ---------------------------------------------------------------------
      1          6           0        1.034491    0.192961    0.210532
      2          8           0        0.872336   -0.839565   -0.440453
      3          6           0        1.555042    1.417807   -0.237890
      4          6           0        1.091045    2.115497   -1.516376
      5          9           0        0.975620    3.434680   -1.321621
      6          9           0        1.934587    1.989955   -2.526125
      7          9           0       -0.079068    1.717505   -1.940150
      8          9           0        1.506263   -0.312004   -2.157478
      9          9           0        2.386658    2.069954    0.491748
     10          8           0        1.080694    0.038046    1.536468
     11          1           0        0.959629   -0.887350    1.785019
 ---------------------------------------------------------------------

 SCF Done:  E(RAM1) =   3.04122977244     A.U. after   25 cycles
 Normal termination of Gaussian 16 at Sat May 24 06:31:00 2025.
