 Gaussian 16, Revision C.01,
 Gaussian 16:  ES64L-G16RevC.01  3-Jul-2019

 ----------------------------------------------------------------------
 #P M062X/Def2TZVPP Symm(None) scf(xqc) pop(None) opt(NoFreeze,TS,CalcA
 ll,NoEigentest,MaxCycle=999)
 ----------------------------------------------------------------------

 ------------------------------
 Gaussian input prepared by ASE
 ------------------------------
 Symbolic Z-matrix:
 Charge =  0 Multiplicity = 1

 SCF Done:  E(RM062X) =  -764.469636816     A.U. after   16 cycles
 SCF Done:  E(RM062X) =  -764.469637014     A.U. after    8 cycles

 Isotropic polarizability for W=    0.000000       52.03 Bohr**3.
 End of Minotr F.D. properties file   721 does not exist.

 Optimization completed.
    -- Stationary point found.

                          Input orientation:
 ---------------------------------------------------------------------
 Center     Atomic      Atomic             Coordinates (Angstroms)
 Number     Number       Type             X           Y           Z
 ---------------------------------------------------------------------
      1          6           0        1.499197   -0.000301   -0.000346
      2          8           0        2.131392   -1.008690    0.117678
      3          6           0        0.000402    0.000584    0.000286
      4          6           0       -1.248875    1.539723    0.450613
      5          9           0       -1.768395    2.659870   -0.034459
      6          9           0       -2.248432    0.728682    0.635180
      7          9           0       -0.571043    1.892265    1.503112
      8          9           0       -0.404150    1.271508   -0.931298
      9          9           0       -0.477235   -1.004557   -0.696382
     10          8           0        2.015486    1.233509    0.001593
     11          1           0        2.971819    1.147800    0.113509
 ---------------------------------------------------------------------

 ******    1 imaginary frequencies (negative Signs) ******

                      1                      2                      3
                      A                      A                      A
 Frequencies --   -656.1801                61.8154                65.4655
 Red. masses --     14.8467                14.7169                14.9910
 Frc consts  --      3.7664                 0.0331                 0.0379
 IR Inten    --     86.5205                 0.7734                 1.4809

                      4                      5                      6
                      A                      A                      A
 Frequencies --     84.4511               201.6877               225.1567
 Red. masses --     11.6765                16.2909                12.2254
 Frc consts  --      0.0491                 0.3904                 0.3652
 IR Inten    --      0.6660                47.2033                 0.6495

                      7                      8                      9
                      A                      A                      A
 Frequencies --    308.3573               353.9298               375.7317
 Red. masses --     11.5134                16.4077                15.1619
 Frc consts  --      0.6450                 1.2110                 1.2611
 IR Inten    --     38.1849                 4.2497                 8.1220

                     10                     11                     12
                      A                      A                      A
 Frequencies --    429.4134               451.3378               553.9230
 Red. masses --     10.6708                 8.5955                 2.8137
 Frc consts  --      1.1593                 1.0316                 0.5087
 IR Inten    --      4.5754               153.4365                83.8907

                     13                     14                     15
                      A                      A                      A
 Frequencies --    561.4289               608.6120               622.8295
 Red. masses --      6.2451                 9.0844                 2.4688
 Frc consts  --      1.1598                 1.9826                 0.5643
 IR Inten    --    134.9263                13.2224               100.6974

                     16                     17                     18
                      A                      A                      A
 Frequencies --    673.7696               754.2072               782.7074
 Red. masses --      7.2162                13.5210                 7.0389
 Frc consts  --      1.9301                 4.5315                 2.5407
 IR Inten    --    166.4221               197.3820                34.0573

                     19                     20                     21
                      A                      A                      A
 Frequencies --    931.5930               969.7825              1178.8303
 Red. masses --     10.2768                11.3759                 3.0157
 Frc consts  --      5.2548                 6.3035                 2.4691
 IR Inten    --    289.2331               227.8481               236.2659

                     22                     23                     24
                      A                      A                      A
 Frequencies --   1215.7528              1298.6225              1388.9849
 Red. masses --      8.3312                 3.8528                12.9468
 Frc consts  --      7.2551                 3.8282                14.7166
 IR Inten    --    537.3744                42.6241               367.7326

                     25                     26                     27
                      A                      A                      A
 Frequencies --   1426.4954              1866.4306              3815.6779
 Red. masses --      4.4037                11.1549                 1.0646
 Frc consts  --      5.2798                22.8950                 9.1322
 IR Inten    --     73.9732               411.1838               122.4115

 - Thermochemistry -
 -------------------
 Temperature   298.150 Kelvin.  Pressure   1.00000 Atm.
 Atom     1 has atomic number  6 and mass  12.00000

 Molecular mass:   163.98967 amu.
 Principal axes and moments of inertia in atomic units:
                           1         2         3
     Eigenvalues --   784.303181819.188942142.10581
           X            0.83145   0.55421  -0.03925
           Y           -0.54010   0.78968  -0.29103
           Z           -0.13029   0.26317   0.95591
 This molecule is an asymmetric top.
 Rotational symmetry number  1.
 Warning -- assumption of classical behavior for rotation
           may cause significant error
 Rotational temperatures (Kelvin)      0.11043     0.04761     0.04043
 Rotational constants (GHZ):           2.30108     0.99206     0.84251
    1 imaginary frequencies ignored.
 Zero-point vibrational energy     126846.0 (Joules/Mol)
                                   30.31692 (Kcal/Mol)
 Warning -- explicit consideration of  13 degrees of freedom as
           vibrations may cause significant error
 Vibrational temperatures:     88.94    94.19   121.51   290.18   323.95
          (Kelvin)            443.66   509.23   540.59   617.83   649.37
                              796.97   807.77   875.66   896.11   969.40
                             1085.14  1126.14  1340.35  1395.30  1696.07
                             1749.20  1868.43  1998.44  2052.41  2685.38
                             5489.91

 Zero-point correction=                           0.048313 (Hartree/Particle)
 Thermal correction to Energy=                    0.057372
 Thermal correction to Enthalpy=                  0.058316
 Thermal correction to Gibbs Free Energy=         0.012932
 Sum of electronic and zero-point Energies=           -764.421324
 Sum of electronic and thermal Energies=              -764.412265
 Sum of electronic and thermal Enthalpies=            -764.411321
 Sum of electronic and thermal Free Energies=         -764.456705

                     E (Thermal)             CV                S
                      KCal/Mol        Cal/Mol-Kelvin    Cal/Mol-Kelvin
 Total                   36.001             31.207             95.518
 Electronic               0.000              0.000              0.000
 Translational            0.889              2.981             41.192
 Rotational               0.889              2.981             29.504
 Vibrational             34.224             25.245             24.822
 Vibration     1          0.597              1.973              4.398
 Vibration     2          0.597              1.971              4.285
 Vibration     3          0.601              1.960              3.785
 Vibration     4          0.639              1.837              2.118
 Vibration     5          0.650              1.803              1.917
 Vibration     6          0.698              1.658              1.371
 Vibration     7          0.730              1.567              1.149
 Vibration     8          0.747              1.522              1.056
 Vibration     9          0.791              1.406              0.861
 Vibration    10          0.810              1.358              0.792
 Vibration    11          0.909              1.131              0.536
 Vibration    12          0.917              1.115              0.521
 Vibration    13          0.967              1.014              0.435

 Normal termination of Gaussian 16 at Sat May 24 05:12:37 2025.
