 Gaussian 16, Revision C.01,
 Gaussian 16:  ES64L-G16RevC.01  3-Jul-2019

 -----------------------------------------------------------------
 #P M062X/Def2TZVPP Symm(None) scf(xqc) pop(None) freq opt(CalcFC)
 -----------------------------------------------------------------

 ------------------------------
 Gaussian input prepared by ASE
 ------------------------------
 Symbolic Z-matrix:
 Charge =  0 Multiplicity = 1

 SCF Done:  E(RM062X) =  -764.586629741     A.U. after   13 cycles
 SCF Done:  E(RM062X) =  -764.590467373     A.U. after   15 cycles
 SCF Done:  E(RM062X) =  -764.591928701     A.U. after   13 cycles
 SCF Done:  E(RM062X) =  -764.596259362     A.U. after   11 cycles
 SCF Done:  E(RM062X) =  -764.596829229     A.U. after   14 cycles
 SCF Done:  E(RM062X) =  -764.594209401     A.U. after   14 cycles
 SCF Done:  E(RM062X) =  -764.596958934     A.U. after   12 cycles
 SCF Done:  E(RM062X) =  -764.597042091     A.U. after   12 cycles
 SCF Done:  E(RM062X) =  -764.597084366     A.U. after    9 cycles
 SCF Done:  E(RM062X) =  -764.597330323     A.U. after   13 cycles
 SCF Done:  E(RM062X) =  -764.598017925     A.U. after   11 cycles
 SCF Done:  E(RM062X) =  -764.598109729     A.U. after   14 cycles
 SCF Done:  E(RM062X) =  -764.592654104     A.U. after   12 cycles
 SCF Done:  E(RM062X) =  -764.597858160     A.U. after   14 cycles
 SCF Done:  E(RM062X) =  -764.598208231     A.U. after   11 cycles
 SCF Done:  E(RM062X) =  -764.597534047     A.U. after   12 cycles
 SCF Done:  E(RM062X) =  -764.598251222     A.U. after   11 cycles
 SCF Done:  E(RM062X) =  -764.598254545     A.U. after    8 cycles
 SCF Done:  E(RM062X) =  -764.598254900     A.U. after    8 cycles
 Optimization completed.
    -- Stationary point found.
 Normal termination of Gaussian 16 at Sat May 24 05:20:01 2025.

 ---------------------------------------------------------------------
 #P Geom=AllCheck Guess=TCheck SCRF=Check GenChk RM062X/def2TZVPP Freq
 ---------------------------------------------------------------------

 Structure from the checkpoint file:  "/tmp/Gau-288001.chk"
 ------------------------------
 Gaussian input prepared by ASE
 ------------------------------
 Charge =  0 Multiplicity = 1

                          Input orientation:
 ---------------------------------------------------------------------
 Center     Atomic      Atomic             Coordinates (Angstroms)
 Number     Number       Type             X           Y           Z
 ---------------------------------------------------------------------
      1          6           0        0.904424   -0.711917   -0.777733
      2          8           0        1.051113    0.181969    0.235361
      3          6           0        1.212011    2.379615   -0.794803
      4          6           0        1.893896    1.256426    0.022607
      5          9           0        2.029680    3.417921   -0.883462
      6          9           0        2.188808    1.742892    1.224345
      7          9           0        3.015618    0.894700   -0.583120
      8          9           0        0.912235    1.959337   -2.010907
      9          9           0        0.098180    2.758279   -0.181054
     10          8           0        0.074455   -1.604712   -0.348469
     11          1           0       -0.237238   -1.432592    0.561425
 ---------------------------------------------------------------------

 SCF Done:  E(RM062X) =  -764.598254900     A.U. after    1 cycles

 Isotropic polarizability for W=    0.000000       46.91 Bohr**3.
 End of Minotr F.D. properties file   721 does not exist.

                      1                      2                      3
                      A                      A                      A
 Frequencies --     42.2703                94.8652               118.8801
 Red. masses --     14.9522                15.4166                 4.0273
 Frc consts  --      0.0157                 0.0817                 0.0335
 IR Inten    --      2.3506                 1.1873                26.1173

                      4                      5                      6
                      A                      A                      A
 Frequencies --    209.1060               224.6965               245.1897
 Red. masses --     13.7843                17.1453                14.0210
 Frc consts  --      0.3551                 0.5100                 0.4966
 IR Inten    --      1.9363                 1.6587                 7.5965

                      7                      8                      9
                      A                      A                      A
 Frequencies --    354.2211               374.9921               392.6415
 Red. masses --     17.1720                15.5077                14.8559
 Frc consts  --      1.2695                 1.2848                 1.3494
 IR Inten    --      0.4338                 1.4929                 1.2717

                     10                     11                     12
                      A                      A                      A
 Frequencies --    442.8038               529.2711               558.6591
 Red. masses --      9.7978                12.8844                14.4402
 Frc consts  --      1.1319                 2.1265                 2.6553
 IR Inten    --      7.1681                 1.1568                 2.7592

                     13                     14                     15
                      A                      A                      A
 Frequencies --    623.2783               685.4832               759.7868
 Red. masses --     14.5816                15.0142                10.5766
 Frc consts  --      3.3375                 4.1567                 3.5973
 IR Inten    --      2.0336                11.1811                26.7677

                     16                     17                     18
                      A                      A                      A
 Frequencies --    783.6139               864.6675              1084.6897
 Red. masses --      1.3087                 7.9319                 6.5070
 Frc consts  --      0.4735                 3.4940                 4.5107
 IR Inten    --    121.3350                19.9405                79.5286

                     19                     20                     21
                      A                      A                      A
 Frequencies --   1146.1240              1224.8749              1287.9246
 Red. masses --     12.4636                 5.1954                12.0177
 Frc consts  --      9.6463                 4.5925                11.7450
 IR Inten    --    479.3545               557.4218               136.1024

                     22                     23                     24
                      A                      A                      A
 Frequencies --   1297.0244              1304.6004              1363.2222
 Red. masses --      8.2582                11.6694                 2.3273
 Frc consts  --      8.1853                11.7018                 2.5482
 IR Inten    --    273.8729               413.1018               111.8176

                     25                     26                     27
                      A                      A                      A
 Frequencies --   1422.2395              1440.0268              3622.1389
 Red. masses --      6.1563                12.5407                 1.0625
 Frc consts  --      7.3369                15.3219                 8.2130
 IR Inten    --     68.2810                 1.5170                23.1889

 - Thermochemistry -
 -------------------
 Temperature   298.150 Kelvin.  Pressure   1.00000 Atm.
 Atom     1 has atomic number  6 and mass  12.00000

 Molecular mass:   163.98967 amu.
 Principal axes and moments of inertia in atomic units:
                           1         2         3
     Eigenvalues --   877.897461701.353881911.21899
           X            0.23112   0.77631  -0.58645
           Y            0.96829  -0.12478   0.21642
           Z           -0.09483   0.61787   0.78054
 This molecule is an asymmetric top.
 Rotational symmetry number  1.
 Warning -- assumption of classical behavior for rotation
           may cause significant error
 Rotational temperatures (Kelvin)      0.09866     0.05091     0.04532
 Rotational constants (GHZ):           2.05575     1.06077     0.94429
 Zero-point vibrational energy     134563.7 (Joules/Mol)
                                   32.16149 (Kcal/Mol)
 Warning -- explicit consideration of  12 degrees of freedom as
           vibrations may cause significant error
 Vibrational temperatures:     60.82   136.49   171.04   300.86   323.29
          (Kelvin)            352.77   509.65   539.53   564.92   637.10
                              761.50   803.79   896.76   986.26  1093.16
                             1127.45  1244.06  1560.63  1649.02  1762.32
                             1853.04  1866.13  1877.03  1961.37  2046.29
                             2071.88  5211.45

 Zero-point correction=                           0.051253 (Hartree/Particle)
 Thermal correction to Energy=                    0.060228
 Thermal correction to Enthalpy=                  0.061172
 Thermal correction to Gibbs Free Energy=         0.016049
 Sum of electronic and zero-point Energies=           -764.547002
 Sum of electronic and thermal Energies=              -764.538027
 Sum of electronic and thermal Enthalpies=            -764.537082
 Sum of electronic and thermal Free Energies=         -764.582206

                     E (Thermal)             CV                S
                      KCal/Mol        Cal/Mol-Kelvin    Cal/Mol-Kelvin
 Total                   37.794             30.761             94.971
 Electronic               0.000              0.000              0.000
 Translational            0.889              2.981             41.192
 Rotational               0.889              2.981             29.436
 Vibrational             36.016             24.799             24.343
 Vibration     1          0.595              1.980              5.150
 Vibration     2          0.603              1.953              3.557
 Vibration     3          0.609              1.934              3.118
 Vibration     4          0.642              1.827              2.051
 Vibration     5          0.649              1.803              1.921
 Vibration     6          0.660              1.771              1.765
 Vibration     7          0.730              1.567              1.147
 Vibration     8          0.746              1.523              1.059
 Vibration     9          0.760              1.486              0.990
 Vibration    10          0.802              1.377              0.818
 Vibration    11          0.884              1.185              0.589
 Vibration    12          0.914              1.121              0.527

 Optimization completed.
    -- Stationary point found.
 Normal termination of Gaussian 16 at Sat May 24 05:23:25 2025.
