 Gaussian 16, Revision C.01,
 Gaussian 16:  ES64L-G16RevC.01  3-Jul-2019

 ----------------------------------------------------------------------
 #P M062X/Def2TZVPP Symm(None) scf(xqc) pop(None) opt(NoFreeze,TS,CalcA
 ll,NoEigentest,MaxCycle=999)
 ----------------------------------------------------------------------

 ------------------------------
 Gaussian input prepared by ASE
 ------------------------------
 Symbolic Z-matrix:
 Charge =  0 Multiplicity = 1

 SCF Done:  E(RM062X) =  -764.469901793     A.U. after   17 cycles
 SCF Done:  E(RM062X) =  -764.465612770     A.U. after   18 cycles
 SCF Done:  E(RM062X) =  -764.472157696     A.U. after   18 cycles
 SCF Done:  E(RM062X) =  -764.481912649     A.U. after   17 cycles
 SCF Done:  E(RM062X) =  -764.485707899     A.U. after   16 cycles
 SCF Done:  E(RM062X) =  -764.486275535     A.U. after   16 cycles
 SCF Done:  E(RM062X) =  -764.486338587     A.U. after   13 cycles

 Isotropic polarizability for W=    0.000000       55.80 Bohr**3.
 End of Minotr F.D. properties file   721 does not exist.

 Optimization completed.
    -- Stationary point found.

                          Input orientation:
 ---------------------------------------------------------------------
 Center     Atomic      Atomic             Coordinates (Angstroms)
 Number     Number       Type             X           Y           Z
 ---------------------------------------------------------------------
      1          6           0        2.164316    1.061839   -0.185420
      2          8           0        1.137504    1.654440   -0.581156
      3          6           0        1.978216   -0.334176    0.137034
      4          6           0       -0.222890    0.500370   -0.050853
      5          9           0       -0.519040   -0.756930   -0.257865
      6          9           0       -0.360159    0.866642    1.189647
      7          9           0       -1.053860    1.187076   -0.807461
      8          9           0        1.828669   -1.100062   -0.970268
      9          9           0        2.967398   -0.868177    0.870066
     10          8           0        3.277205    1.702226    0.050455
     11          1           0        3.131068    2.657194   -0.008203
 ---------------------------------------------------------------------

 ******    1 imaginary frequencies (negative Signs) ******

                      1                      2                      3
                      A                      A                      A
 Frequencies --   -640.7148                48.0195               105.7180
 Red. masses --     11.2616                13.7829                12.5338
 Frc consts  --      2.7238                 0.0187                 0.0825
 IR Inten    --    138.1839                 3.7469                 2.7489

                      4                      5                      6
                      A                      A                      A
 Frequencies --    171.0322               217.0970               246.8909
 Red. masses --     15.4064                17.5608                 9.7093
 Frc consts  --      0.2655                 0.4876                 0.3487
 IR Inten    --     22.1417                 4.3208                 6.9169

                      7                      8                      9
                      A                      A                      A
 Frequencies --    296.9603               326.7351               355.5015
 Red. masses --     10.5453                13.2498                15.6343
 Frc consts  --      0.5479                 0.8334                 1.1642
 IR Inten    --      2.8273                12.2143                16.8768

                     10                     11                     12
                      A                      A                      A
 Frequencies --    436.0562               524.4970               582.1597
 Red. masses --      8.9055                14.3417                 2.7926
 Frc consts  --      0.9977                 2.3245                 0.5576
 IR Inten    --     16.4104                 6.3453                56.9431

                     13                     14                     15
                      A                      A                      A
 Frequencies --    591.1008               617.2132               662.5251
 Red. masses --     12.3340                10.8906                 2.0264
 Frc consts  --      2.5391                 2.4444                 0.5240
 IR Inten    --      6.0209                88.6681               124.0842

                     16                     17                     18
                      A                      A                      A
 Frequencies --    732.5402               768.3452               830.0600
 Red. masses --     13.8515                10.6356                 5.5353
 Frc consts  --      4.3793                 3.6994                 2.2470
 IR Inten    --    239.5652                30.0378                96.5000

                     19                     20                     21
                      A                      A                      A
 Frequencies --    969.5452              1145.7034              1181.4530
 Red. masses --     15.5247                 9.2695                10.1102
 Frc consts  --      8.5982                 7.1689                 8.3147
 IR Inten    --    652.1273               107.0204               209.1429

                     22                     23                     24
                      A                      A                      A
 Frequencies --   1244.4960              1258.7639              1353.0939
 Red. masses --      2.8132                 3.5733                11.9935
 Frc consts  --      2.5670                 3.3359                12.9376
 IR Inten    --    334.9453               232.6476               348.9698

                     25                     26                     27
                      A                      A                      A
 Frequencies --   1526.0949              1607.4916              3793.9638
 Red. masses --      4.7673                12.5814                 1.0651
 Frc consts  --      6.5416                19.1547                 9.0333
 IR Inten    --    154.0669               198.7844               147.2118

 - Thermochemistry -
 -------------------
 Temperature   298.150 Kelvin.  Pressure   1.00000 Atm.
 Atom     1 has atomic number  6 and mass  12.00000

 Molecular mass:   163.98967 amu.
 Principal axes and moments of inertia in atomic units:
                           1         2         3
     Eigenvalues --   915.446141643.383932015.38657
           X            0.98800   0.12805  -0.08638
           Y           -0.12795   0.99176   0.00667
           Z            0.08652   0.00447   0.99624
 This molecule is an asymmetric top.
 Rotational symmetry number  1.
 Warning -- assumption of classical behavior for rotation
           may cause significant error
 Rotational temperatures (Kelvin)      0.09461     0.05270     0.04298
 Rotational constants (GHZ):           1.97143     1.09819     0.89548
    1 imaginary frequencies ignored.
 Zero-point vibrational energy     129155.2 (Joules/Mol)
                                   30.86883 (Kcal/Mol)
 Warning -- explicit consideration of  13 degrees of freedom as
           vibrations may cause significant error
 Vibrational temperatures:     69.09   152.10   246.08   312.35   355.22
          (Kelvin)            427.26   470.10   511.49   627.39   754.63
                              837.60   850.46   888.03   953.23  1053.96
                             1105.48  1194.27  1394.96  1648.41  1699.85
                             1790.55  1811.08  1946.80  2195.71  2312.82
                             5458.67

 Zero-point correction=                           0.049193 (Hartree/Particle)
 Thermal correction to Energy=                    0.057867
 Thermal correction to Enthalpy=                  0.058811
 Thermal correction to Gibbs Free Energy=         0.014576
 Sum of electronic and zero-point Energies=           -764.437146
 Sum of electronic and thermal Energies=              -764.428471
 Sum of electronic and thermal Enthalpies=            -764.427527
 Sum of electronic and thermal Free Energies=         -764.471762

                     E (Thermal)             CV                S
                      KCal/Mol        Cal/Mol-Kelvin    Cal/Mol-Kelvin
 Total                   36.312             30.355             93.101
 Electronic               0.000              0.000              0.000
 Translational            0.889              2.981             41.192
 Rotational               0.889              2.981             29.496
 Vibrational             34.535             24.393             22.413
 Vibration     1          0.595              1.978              4.897
 Vibration     2          0.605              1.945              3.346
 Vibration     3          0.626              1.878              2.424
 Vibration     4          0.646              1.815              1.983
 Vibration     5          0.661              1.768              1.753
 Vibration     6          0.691              1.679              1.434
 Vibration     7          0.710              1.622              1.276
 Vibration     8          0.731              1.564              1.142
 Vibration     9          0.797              1.392              0.839
 Vibration    10          0.879              1.196              0.600
 Vibration    11          0.939              1.070              0.481
 Vibration    12          0.949              1.051              0.465
 Vibration    13          0.977              0.996              0.421

 Normal termination of Gaussian 16 at Sat May 24 08:00:41 2025.
