 Gaussian 16, Revision C.01,
 Gaussian 16:  ES64L-G16RevC.01  3-Jul-2019

 -----------------------------------------------------------------
 #P M062X/Def2TZVPP Symm(None) scf(xqc) pop(None) freq opt(CalcFC)
 -----------------------------------------------------------------

 ------------------------------
 Gaussian input prepared by ASE
 ------------------------------
 Symbolic Z-matrix:
 Charge =  0 Multiplicity = 1

 SCF Done:  E(RM062X) =  -764.394779489     A.U. after   19 cycles
 SCF Done:  E(RM062X) =  -764.429903995     A.U. after   17 cycles
 SCF Done:  E(RM062X) =  -764.440251568     A.U. after   18 cycles
 SCF Done:  E(RM062X) =  -764.405761160     A.U. after   18 cycles
 SCF Done:  E(RM062X) =  -764.448141667     A.U. after   16 cycles
 SCF Done:  E(RM062X) =  -764.451437650     A.U. after   16 cycles
 SCF Done:  E(RM062X) =  -764.452594014     A.U. after   15 cycles
 SCF Done:  E(RM062X) =  -764.453934099     A.U. after   15 cycles
 SCF Done:  E(RM062X) =  -764.455164846     A.U. after   16 cycles
 SCF Done:  E(RM062X) =  -764.457305719     A.U. after   16 cycles
 SCF Done:  E(RM062X) =  -764.462598770     A.U. after   14 cycles
 SCF Done:  E(RM062X) =  -764.462803686     A.U. after   14 cycles
 SCF Done:  E(RM062X) =  -764.463046783     A.U. after   14 cycles
 SCF Done:  E(RM062X) =  -764.463165629     A.U. after   13 cycles
 SCF Done:  E(RM062X) =  -764.463261024     A.U. after   12 cycles
 SCF Done:  E(RM062X) =  -764.463286377     A.U. after   12 cycles
 SCF Done:  E(RM062X) =  -764.463289205     A.U. after   10 cycles
 SCF Done:  E(RM062X) =  -764.463290065     A.U. after   10 cycles
 SCF Done:  E(RM062X) =  -764.463290358     A.U. after    9 cycles
 Optimization completed.
    -- Stationary point found.
 Normal termination of Gaussian 16 at Sat May 24 08:59:16 2025.

 ---------------------------------------------------------------------
 #P Geom=AllCheck Guess=TCheck SCRF=Check GenChk RM062X/def2TZVPP Freq
 ---------------------------------------------------------------------

 Structure from the checkpoint file:  "/tmp/Gau-219827.chk"
 ------------------------------
 Gaussian input prepared by ASE
 ------------------------------
 Charge =  0 Multiplicity = 1

                          Input orientation:
 ---------------------------------------------------------------------
 Center     Atomic      Atomic             Coordinates (Angstroms)
 Number     Number       Type             X           Y           Z
 ---------------------------------------------------------------------
      1          6           0        0.257767    1.864221   -1.386408
      2          8           0        1.693249    0.468779    0.002142
      3          6           0        0.905027    1.204551   -2.607205
      4          6           0        2.208955    1.940149   -3.006401
      5          9           0        2.721093    1.366298   -4.082415
      6          9           0        1.934774    3.209731   -3.281237
      7          9           0        3.096573    1.897948   -2.027424
      8          9           0        1.161674   -0.094588   -2.441463
      9          9           0        0.051120    1.325188   -3.634881
     10          8           0        0.558771    1.594490   -0.255261
     11          1           0        1.800895    0.638259    0.946809
 ---------------------------------------------------------------------

 SCF Done:  E(RM062X) =  -764.463290358     A.U. after    1 cycles

 Isotropic polarizability for W=    0.000000       53.97 Bohr**3.
 End of Minotr F.D. properties file   721 does not exist.

                      1                      2                      3
                      A                      A                      A
 Frequencies --     38.0154                98.0545               155.6425
 Red. masses --     15.4556                 9.3001                 7.9878
 Frc consts  --      0.0132                 0.0527                 0.1140
 IR Inten    --      0.1611                 0.5112                 8.3252

                      4                      5                      6
                      A                      A                      A
 Frequencies --    188.8803               209.9998               216.7112
 Red. masses --      1.8069                 3.4118                 7.0151
 Frc consts  --      0.0380                 0.0886                 0.1941
 IR Inten    --     65.9818                46.3510                11.1302

                      7                      8                      9
                      A                      A                      A
 Frequencies --    264.2862               287.1264               364.5696
 Red. masses --     15.2084                15.5993                17.5628
 Frc consts  --      0.6259                 0.7577                 1.3753
 IR Inten    --     80.8011                21.9762                 2.4687

                     10                     11                     12
                      A                      A                      A
 Frequencies --    391.0457               460.6485               473.8444
 Red. masses --     16.5704                 9.3699                14.7803
 Frc consts  --      1.4929                 1.1715                 1.9553
 IR Inten    --    175.1242                87.7654                11.2224

                     13                     14                     15
                      A                      A                      A
 Frequencies --    515.6879               564.9945               599.0174
 Red. masses --     13.7540                15.3539                17.2107
 Frc consts  --      2.1550                 2.8877                 3.6386
 IR Inten    --      4.1370                 4.7171                 5.8250

                     16                     17                     18
                      A                      A                      A
 Frequencies --    689.1244               737.1512               803.7399
 Red. masses --     15.0415                10.3714                15.1132
 Frc consts  --      4.2086                 3.3205                 5.7522
 IR Inten    --     10.0677                33.6778                 4.3915

                     19                     20                     21
                      A                      A                      A
 Frequencies --   1046.5650              1193.3426              1211.7545
 Red. masses --     13.0501                 1.2033                10.3276
 Frc consts  --      8.4217                 1.0096                 8.9347
 IR Inten    --    112.1193                81.3553               217.9266

                     22                     23                     24
                      A                      A                      A
 Frequencies --   1251.0666              1286.1733              1301.7025
 Red. masses --     12.8132                13.0719                13.0862
 Frc consts  --     11.8160                12.7406                13.0643
 IR Inten    --    185.6322               229.7373               205.7366

                     25                     26                     27
                      A                      A                      A
 Frequencies --   1365.1597              1702.8196              3846.3241
 Red. masses --     12.5510                12.3029                 1.0683
 Frc consts  --     13.7814                21.0181                 9.3119
 IR Inten    --    130.8934               153.6130               133.6369

 - Thermochemistry -
 -------------------
 Temperature   298.150 Kelvin.  Pressure   1.00000 Atm.
 Atom     1 has atomic number  6 and mass  12.00000

 Molecular mass:   163.98967 amu.
 Principal axes and moments of inertia in atomic units:
                           1         2         3
     Eigenvalues --   942.787971543.418521728.06821
           X           -0.30898   0.86706  -0.39082
           Y           -0.29829   0.30184   0.90549
           Z            0.90308   0.39636   0.16537
 This molecule is an asymmetric top.
 Rotational symmetry number  1.
 Warning -- assumption of classical behavior for rotation
           may cause significant error
 Rotational temperatures (Kelvin)      0.09187     0.05612     0.05012
 Rotational constants (GHZ):           1.91426     1.16931     1.04437
 Zero-point vibrational energy     127183.7 (Joules/Mol)
                                   30.39762 (Kcal/Mol)
 Warning -- explicit consideration of  15 degrees of freedom as
           vibrations may cause significant error
 Vibrational temperatures:     54.70   141.08   223.93   271.76   302.14
          (Kelvin)            311.80   380.25   413.11   524.53   562.63
                              662.77   681.76   741.96   812.90   861.85
                              991.50  1060.60  1156.40  1505.77  1716.95
                             1743.44  1800.01  1850.52  1872.86  1964.16
                             2449.98  5534.00

 Zero-point correction=                           0.048442 (Hartree/Particle)
 Thermal correction to Energy=                    0.058189
 Thermal correction to Enthalpy=                  0.059133
 Thermal correction to Gibbs Free Energy=         0.012766
 Sum of electronic and zero-point Energies=           -764.414849
 Sum of electronic and thermal Energies=              -764.405102
 Sum of electronic and thermal Enthalpies=            -764.404157
 Sum of electronic and thermal Free Energies=         -764.450525

                     E (Thermal)             CV                S
                      KCal/Mol        Cal/Mol-Kelvin    Cal/Mol-Kelvin
 Total                   36.514             33.380             97.588
 Electronic               0.000              0.000              0.000
 Translational            0.889              2.981             41.192
 Rotational               0.889              2.981             29.310
 Vibrational             34.737             27.418             27.086
 Vibration     1          0.594              1.982              5.360
 Vibration     2          0.603              1.951              3.493
 Vibration     3          0.620              1.896              2.602
 Vibration     4          0.633              1.855              2.239
 Vibration     5          0.642              1.826              2.044
 Vibration     6          0.646              1.816              1.986
 Vibration     7          0.671              1.738              1.633
 Vibration     8          0.684              1.698              1.491
 Vibration     9          0.738              1.545              1.103
 Vibration    10          0.759              1.489              0.996
 Vibration    11          0.818              1.337              0.764
 Vibration    12          0.831              1.308              0.727
 Vibration    13          0.871              1.215              0.620
 Vibration    14          0.921              1.107              0.514
 Vibration    15          0.957              1.034              0.451

                           ! Non-Optimized Parameters !
 Normal termination of Gaussian 16 at Sat May 24 09:02:49 2025.
