 Gaussian 16, Revision C.01,
 Gaussian 16:  ES64L-G16RevC.01  3-Jul-2019

 ----------------------------------------------------------------------
 #P M062X/Def2TZVPP Symm(None) scf(xqc) pop(None) opt(NoFreeze,TS,CalcA
 ll,NoEigentest,MaxCycle=999)
 ----------------------------------------------------------------------

 ------------------------------
 Gaussian input prepared by ASE
 ------------------------------
 Symbolic Z-matrix:
 Charge =  0 Multiplicity = 1

 SCF Done:  E(RM062X) =  -764.545329296     A.U. after   14 cycles

 Isotropic polarizability for W=    0.000000       49.33 Bohr**3.
 End of Minotr F.D. properties file   721 does not exist.

 Optimization completed.
    -- Stationary point found.

                          Input orientation:
 ---------------------------------------------------------------------
 Center     Atomic      Atomic             Coordinates (Angstroms)
 Number     Number       Type             X           Y           Z
 ---------------------------------------------------------------------
      1          6           0        2.116723   -0.072318   -0.021883
      2          8           0        2.297005   -1.182333   -0.213877
      3          6           0       -0.049662    0.322962    0.073699
      4          6           0       -0.620919    0.107562    1.471877
      5          9           0       -1.929489   -0.105353    1.472208
      6          9           0       -0.022539   -0.941359    2.039450
      7          9           0       -0.368886    1.183451    2.222265
      8          9           0       -0.698216    1.396443   -0.466119
      9          9           0       -0.375975   -0.753054   -0.672044
     10          8           0        2.438930    1.112963    0.165440
     11          1           0        1.283897    1.174042    0.201487
 ---------------------------------------------------------------------

 ******    1 imaginary frequencies (negative Signs) ******

                      1                      2                      3
                      A                      A                      A
 Frequencies --  -1936.4242                26.3329                55.6255
 Red. masses --      1.1805                13.0356                17.9216
 Frc consts  --      2.6080                 0.0053                 0.0327
 IR Inten    --    331.5138                 0.2551                 0.0620

                      4                      5                      6
                      A                      A                      A
 Frequencies --     84.6668               175.8264               216.5618
 Red. masses --     16.2969                15.8677                13.3594
 Frc consts  --      0.0688                 0.2890                 0.3691
 IR Inten    --      0.7661                 2.5286                44.0965

                      7                      8                      9
                      A                      A                      A
 Frequencies --    218.5450               266.6269               366.7874
 Red. masses --     17.6742                16.9097                13.7932
 Frc consts  --      0.4974                 0.7083                 1.0933
 IR Inten    --      8.0393                 0.2870                 8.7281

                     10                     11                     12
                      A                      A                      A
 Frequencies --    373.5247               448.0302               543.1326
 Red. masses --     15.4027                17.4122                17.1407
 Frc consts  --      1.2662                 2.0593                 2.9791
 IR Inten    --      4.9344                 0.4095                 0.9353

                     13                     14                     15
                      A                      A                      A
 Frequencies --    585.9537               598.8088               603.0443
 Red. masses --     14.4993                15.9071                 6.2214
 Frc consts  --      2.9331                 3.3606                 1.3330
 IR Inten    --     32.6050                 3.4541                 6.3910

                     16                     17                     18
                      A                      A                      A
 Frequencies --    710.9499               759.2549               880.6276
 Red. masses --      9.9523                13.2237                 1.8723
 Frc consts  --      2.9638                 4.4914                 0.8555
 IR Inten    --    573.9338                46.5019                41.0002

                     19                     20                     21
                      A                      A                      A
 Frequencies --   1015.0836              1138.4854              1163.7490
 Red. masses --      2.8538                13.3783                 8.7882
 Frc consts  --      1.7325                10.2166                 7.0125
 IR Inten    --     13.7385               144.3606               169.4448

                     22                     23                     24
                      A                      A                      A
 Frequencies --   1251.9640              1255.4626              1297.7727
 Red. masses --     10.3462                12.0543                10.3318
 Frc consts  --      9.5547                11.1944                10.2524
 IR Inten    --    177.9674               197.4067               575.7142

                     25                     26                     27
                      A                      A                      A
 Frequencies --   1401.4465              2033.5316              2339.0063
 Red. masses --     10.6890                 1.2612                 4.0000
 Frc consts  --     12.3692                 3.0729                12.8937
 IR Inten    --     28.0322               158.8585               448.7049

 - Thermochemistry -
 -------------------
 Temperature   298.150 Kelvin.  Pressure   1.00000 Atm.
 Atom     1 has atomic number  6 and mass  12.00000

 Molecular mass:   163.98967 amu.
 Principal axes and moments of inertia in atomic units:
                           1         2         3
     Eigenvalues --   972.912541776.043181825.09634
           X            0.88821   0.36452   0.27967
           Y           -0.09312  -0.45325   0.88650
           Z           -0.44991   0.81344   0.36864
 This molecule is an asymmetric top.
 Rotational symmetry number  1.
 Warning -- assumption of classical behavior for rotation
           may cause significant error
 Rotational temperatures (Kelvin)      0.08903     0.04877     0.04746
 Rotational constants (GHZ):           1.85499     1.01616     0.98885
    1 imaginary frequencies ignored.
 Zero-point vibrational energy     118494.9 (Joules/Mol)
                                   28.32096 (Kcal/Mol)
 Warning -- explicit consideration of  14 degrees of freedom as
           vibrations may cause significant error
 Vibrational temperatures:     37.89    80.03   121.82   252.97   311.58
          (Kelvin)            314.44   383.62   527.73   537.42   644.62
                              781.45   843.06   861.55   867.65  1022.90
                             1092.40  1267.03  1460.48  1638.03  1674.38
                             1801.30  1806.33  1867.21  2016.37  2925.80
                             3365.31

 Zero-point correction=                           0.045132 (Hartree/Particle)
 Thermal correction to Energy=                    0.054573
 Thermal correction to Enthalpy=                  0.055517
 Thermal correction to Gibbs Free Energy=         0.008465
 Sum of electronic and zero-point Energies=           -764.500197
 Sum of electronic and thermal Energies=              -764.490756
 Sum of electronic and thermal Enthalpies=            -764.489812
 Sum of electronic and thermal Free Energies=         -764.536864

                     E (Thermal)             CV                S
                      KCal/Mol        Cal/Mol-Kelvin    Cal/Mol-Kelvin
 Total                   34.245             31.333             99.030
 Electronic               0.000              0.000              0.000
 Translational            0.889              2.981             41.192
 Rotational               0.889              2.981             29.535
 Vibrational             32.468             25.371             28.303
 Vibration     1          0.593              1.985              6.088
 Vibration     2          0.596              1.975              4.607
 Vibration     3          0.601              1.960              3.780
 Vibration     4          0.628              1.872              2.372
 Vibration     5          0.645              1.816              1.988
 Vibration     6          0.646              1.813              1.971
 Vibration     7          0.672              1.734              1.618
 Vibration     8          0.740              1.541              1.093
 Vibration     9          0.745              1.526              1.065
 Vibration    10          0.807              1.365              0.802
 Vibration    11          0.898              1.155              0.559
 Vibration    12          0.943              1.062              0.474
 Vibration    13          0.957              1.034              0.452
 Vibration    14          0.961              1.025              0.444

 Normal termination of Gaussian 16 at Sat May 24 07:20:47 2025.
