 Gaussian 16, Revision C.01,
 Gaussian 16:  ES64L-G16RevC.01  3-Jul-2019

 -----------------------------------------------------------------
 #P M062X/Def2TZVPP Symm(None) scf(xqc) pop(None) freq opt(CalcFC)
 -----------------------------------------------------------------

 ------------------------------
 Gaussian input prepared by ASE
 ------------------------------
 Symbolic Z-matrix:
 Charge =  0 Multiplicity = 1

 SCF Done:  E(RM062X) =  -764.410598289     A.U. after   18 cycles
 SCF Done:  E(RM062X) =  -764.449130027     A.U. after   16 cycles
 SCF Done:  E(RM062X) =  -764.452172627     A.U. after   17 cycles
 SCF Done:  E(RM062X) =  -764.450541122     A.U. after   15 cycles
 SCF Done:  E(RM062X) =  -764.451187619     A.U. after   16 cycles
 SCF Done:  E(RM062X) =  -764.452206990     A.U. after   13 cycles
 SCF Done:  E(RM062X) =  -764.459551468     A.U. after   14 cycles
 SCF Done:  E(RM062X) =  -764.461660480     A.U. after   15 cycles
 SCF Done:  E(RM062X) =  -764.460904119     A.U. after   17 cycles
 SCF Done:  E(RM062X) =  -764.462630946     A.U. after   13 cycles
 SCF Done:  E(RM062X) =  -764.462987297     A.U. after   14 cycles
 SCF Done:  E(RM062X) =  -764.463212694     A.U. after   13 cycles
 SCF Done:  E(RM062X) =  -764.463264698     A.U. after   14 cycles
 SCF Done:  E(RM062X) =  -764.463280734     A.U. after   10 cycles
 SCF Done:  E(RM062X) =  -764.463286021     A.U. after    9 cycles
 SCF Done:  E(RM062X) =  -764.463287506     A.U. after    9 cycles
 SCF Done:  E(RM062X) =  -764.463287849     A.U. after    9 cycles
 Optimization completed.
    -- Stationary point found.
 Normal termination of Gaussian 16 at Sat May 24 08:54:15 2025.

 ---------------------------------------------------------------------
 #P Geom=AllCheck Guess=TCheck SCRF=Check GenChk RM062X/def2TZVPP Freq
 ---------------------------------------------------------------------

 Structure from the checkpoint file:  "/tmp/Gau-78618.chk"
 ------------------------------
 Gaussian input prepared by ASE
 ------------------------------
 Charge =  0 Multiplicity = 1

                          Input orientation:
 ---------------------------------------------------------------------
 Center     Atomic      Atomic             Coordinates (Angstroms)
 Number     Number       Type             X           Y           Z
 ---------------------------------------------------------------------
      1          6           0        2.407114    1.742889    0.240649
      2          8           0        0.750810   -0.043684    0.278558
      3          6           0        3.015599    1.119536    1.499765
      4          6           0        4.031153    0.009419    1.129558
      5          9           0        4.555452   -0.488484    2.237058
      6          9           0        3.445165   -0.962424    0.450934
      7          9           0        5.001096    0.526648    0.385277
      8          9           0        3.695399    2.081128    2.142461
      9          9           0        2.108934    0.626693    2.345921
     10          8           0        1.450068    1.286373   -0.323618
     11          1           0        0.176061   -0.214634   -0.478475
 ---------------------------------------------------------------------

 SCF Done:  E(RM062X) =  -764.463287849     A.U. after    1 cycles

 Isotropic polarizability for W=    0.000000       54.00 Bohr**3.
 End of Minotr F.D. properties file   721 does not exist.

                      1                      2                      3
                      A                      A                      A
 Frequencies --     41.0841                94.8540               155.6245
 Red. masses --     15.3125                 8.8569                 8.5028
 Frc consts  --      0.0152                 0.0470                 0.1213
 IR Inten    --      0.1607                 0.7922                 7.3010

                      4                      5                      6
                      A                      A                      A
 Frequencies --    188.9040               209.1521               216.5430
 Red. masses --      1.8892                 3.1611                 6.8199
 Frc consts  --      0.0397                 0.0815                 0.1884
 IR Inten    --     63.1831                50.1184                11.8673

                      7                      8                      9
                      A                      A                      A
 Frequencies --    263.7113               286.5442               364.4939
 Red. masses --     15.3928                15.6491                17.5995
 Frc consts  --      0.6307                 0.7570                 1.3776
 IR Inten    --     81.6347                20.9094                 2.6124

                     10                     11                     12
                      A                      A                      A
 Frequencies --    390.7330               460.6321               473.6805
 Red. masses --     16.6117                 9.3616                14.7984
 Frc consts  --      1.4943                 1.1703                 1.9563
 IR Inten    --    173.6038                89.0141                11.2376

                     13                     14                     15
                      A                      A                      A
 Frequencies --    515.5894               565.1693               599.1997
 Red. masses --     13.7514                15.3380                17.2066
 Frc consts  --      2.1538                 2.8865                 3.6399
 IR Inten    --      4.0811                 4.7079                 5.8711

                     16                     17                     18
                      A                      A                      A
 Frequencies --    689.0947               736.8975               803.8578
 Red. masses --     15.0134                10.3334                15.0925
 Frc consts  --      4.2004                 3.3060                 5.7460
 IR Inten    --      9.9789                33.8036                 4.3273

                     19                     20                     21
                      A                      A                      A
 Frequencies --   1047.1448              1190.6515              1211.6069
 Red. masses --     13.0428                 1.1983                10.8094
 Frc consts  --      8.4262                 1.0009                 9.3492
 IR Inten    --    111.6666                80.9044               219.0490

                     22                     23                     24
                      A                      A                      A
 Frequencies --   1251.3557              1286.7898              1302.4652
 Red. masses --     12.8498                13.0713                13.0819
 Frc consts  --     11.8551                12.7522                13.0753
 IR Inten    --    187.9168               228.4443               201.6041

                     25                     26                     27
                      A                      A                      A
 Frequencies --   1365.6969              1702.1711              3841.3038
 Red. masses --     12.5569                12.3066                 1.0683
 Frc consts  --     13.7988                21.0085                 9.2875
 IR Inten    --    133.1393               154.0192               133.9007

 - Thermochemistry -
 -------------------
 Temperature   298.150 Kelvin.  Pressure   1.00000 Atm.
 Atom     1 has atomic number  6 and mass  12.00000

 Molecular mass:   163.98967 amu.
 Principal axes and moments of inertia in atomic units:
                           1         2         3
     Eigenvalues --   942.728971543.397871727.84464
           X            0.92186  -0.06345  -0.38229
           Y           -0.15935   0.83718  -0.52320
           Z            0.35324   0.54323   0.76166
 This molecule is an asymmetric top.
 Rotational symmetry number  1.
 Warning -- assumption of classical behavior for rotation
           may cause significant error
 Rotational temperatures (Kelvin)      0.09188     0.05612     0.05013
 Rotational constants (GHZ):           1.91438     1.16933     1.04450
 Zero-point vibrational energy     127132.8 (Joules/Mol)
                                   30.38548 (Kcal/Mol)
 Warning -- explicit consideration of  15 degrees of freedom as
           vibrations may cause significant error
 Vibrational temperatures:     59.11   136.47   223.91   271.79   300.92
          (Kelvin)            311.56   379.42   412.27   524.43   562.18
                              662.75   681.52   741.82   813.15   862.11
                              991.45  1060.23  1156.57  1506.61  1713.08
                             1743.23  1800.42  1851.40  1873.96  1964.93
                             2449.04  5526.78

 Zero-point correction=                           0.048422 (Hartree/Particle)
 Thermal correction to Energy=                    0.058173
 Thermal correction to Enthalpy=                  0.059117
 Thermal correction to Gibbs Free Energy=         0.012783
 Sum of electronic and zero-point Energies=           -764.414866
 Sum of electronic and thermal Energies=              -764.405115
 Sum of electronic and thermal Enthalpies=            -764.404171
 Sum of electronic and thermal Free Energies=         -764.450504

                     E (Thermal)             CV                S
                      KCal/Mol        Cal/Mol-Kelvin    Cal/Mol-Kelvin
 Total                   36.504             33.386             97.517
 Electronic               0.000              0.000              0.000
 Translational            0.889              2.981             41.192
 Rotational               0.889              2.981             29.310
 Vibrational             34.726             27.425             27.015
 Vibration     1          0.594              1.981              5.206
 Vibration     2          0.603              1.953              3.557
 Vibration     3          0.620              1.896              2.602
 Vibration     4          0.633              1.855              2.239
 Vibration     5          0.642              1.827              2.051
 Vibration     6          0.645              1.816              1.988
 Vibration     7          0.670              1.739              1.637
 Vibration     8          0.684              1.699              1.494
 Vibration     9          0.738              1.545              1.103
 Vibration    10          0.758              1.490              0.997
 Vibration    11          0.818              1.337              0.764
 Vibration    12          0.830              1.308              0.727
 Vibration    13          0.871              1.215              0.620
 Vibration    14          0.921              1.107              0.514
 Vibration    15          0.957              1.033              0.451

 Optimization completed.
    -- Stationary point found.
 Normal termination of Gaussian 16 at Sat May 24 08:57:22 2025.
