 Gaussian 16, Revision C.01,
 Gaussian 16:  ES64L-G16RevC.01  3-Jul-2019

 -----------------------------------------------------------------
 #P M062X/Def2TZVPP Symm(None) scf(xqc) pop(None) freq opt(CalcFC)
 -----------------------------------------------------------------

 ------------------------------
 Gaussian input prepared by ASE
 ------------------------------
 Symbolic Z-matrix:
 Charge =  0 Multiplicity = 1

 SCF Done:  E(RM062X) =  -764.487196231     A.U. after   15 cycles
 SCF Done:  E(RM062X) =  -764.488740041     A.U. after   13 cycles
 SCF Done:  E(RM062X) =  -764.491747420     A.U. after   14 cycles
 SCF Done:  E(RM062X) =  -764.491941732     A.U. after   13 cycles
 SCF Done:  E(RM062X) =  -764.491950838     A.U. after   12 cycles
 SCF Done:  E(RM062X) =  -764.491968024     A.U. after   11 cycles
 SCF Done:  E(RM062X) =  -764.491968718     A.U. after    8 cycles
 SCF Done:  E(RM062X) =  -764.491968928     A.U. after    7 cycles
 SCF Done:  E(RM062X) =  -764.491968951     A.U. after    7 cycles
 Optimization completed.
    -- Stationary point found.
 Normal termination of Gaussian 16 at Sat May 24 06:37:19 2025.

 ---------------------------------------------------------------------
 #P Geom=AllCheck Guess=TCheck SCRF=Check GenChk RM062X/def2TZVPP Freq
 ---------------------------------------------------------------------

 Structure from the checkpoint file:  "/tmp/Gau-256354.chk"
 ------------------------------
 Gaussian input prepared by ASE
 ------------------------------
 Charge =  0 Multiplicity = 1

                          Input orientation:
 ---------------------------------------------------------------------
 Center     Atomic      Atomic             Coordinates (Angstroms)
 Number     Number       Type             X           Y           Z
 ---------------------------------------------------------------------
      1          6           0        1.273691    0.014094    0.128233
      2          8           0       -0.068564    0.013898    0.073014
      3          6           0        1.943653   -1.131371    0.021924
      4          6           0        1.435642   -2.543737    0.015824
      5          9           0        1.589900   -3.096351   -1.190226
      6          9           0        2.148690   -3.274074    0.875839
      7          9           0        0.159797   -2.628567    0.353510
      8          9           0       -0.509522    0.518250    1.323519
      9          9           0        3.273042   -1.066217   -0.132450
     10          8           0        1.826086    1.225769    0.186530
     11          1           0        2.780855    1.151973    0.298937
 ---------------------------------------------------------------------

 SCF Done:  E(RM062X) =  -764.491968951     A.U. after    1 cycles

 Isotropic polarizability for W=    0.000000       50.44 Bohr**3.
 End of Minotr F.D. properties file   721 does not exist.

                      1                      2                      3
                      A                      A                      A
 Frequencies --     29.4468                73.5522               108.9092
 Red. masses --     17.7078                17.6964                 9.3267
 Frc consts  --      0.0090                 0.0564                 0.0652
 IR Inten    --      0.4442                 0.8431                 1.4611

                      4                      5                      6
                      A                      A                      A
 Frequencies --    183.9204               222.8909               269.3059
 Red. masses --     14.1388                15.2298                 9.9511
 Frc consts  --      0.2818                 0.4458                 0.4252
 IR Inten    --      3.3298                 1.1795                 6.6702

                      7                      8                      9
                      A                      A                      A
 Frequencies --    317.9858               363.9990               374.9520
 Red. masses --      5.8849                 6.0091                 7.1113
 Frc consts  --      0.3506                 0.4691                 0.5891
 IR Inten    --     10.4557                13.3261                11.8686

                     10                     11                     12
                      A                      A                      A
 Frequencies --    393.0571               494.7464               513.3205
 Red. masses --      1.5364                16.2358                15.8819
 Frc consts  --      0.1399                 2.3415                 2.4656
 IR Inten    --     84.7283                 2.1035                 1.5785

                     13                     14                     15
                      A                      A                      A
 Frequencies --    604.9585               614.6118               684.2765
 Red. masses --     13.2394                15.9440                11.2701
 Frc consts  --      2.8548                 3.5485                 3.1091
 IR Inten    --      2.3760                 1.3228                 4.8368

                     16                     17                     18
                      A                      A                      A
 Frequencies --    756.4589               830.1795               952.1988
 Red. masses --     13.9426                13.3669                16.6597
 Frc consts  --      4.7007                 5.4278                 8.8996
 IR Inten    --     24.2408                22.8020                98.6859

                     19                     20                     21
                      A                      A                      A
 Frequencies --   1065.2495              1171.0130              1222.2917
 Red. masses --      6.9818                 2.7925                13.1228
 Frc consts  --      4.6679                 2.2562                11.5512
 IR Inten    --    128.5163               282.2373               294.9086

                     22                     23                     24
                      A                      A                      A
 Frequencies --   1272.8246              1287.0327              1408.3707
 Red. masses --      5.2526                 4.4451                 8.9551
 Frc consts  --      5.0137                 4.3382                10.4653
 IR Inten    --    304.8304               139.8405               126.1768

                     25                     26                     27
                      A                      A                      A
 Frequencies --   1427.3703              1823.9440              3851.9889
 Red. masses --      4.7406                11.4158                 1.0656
 Frc consts  --      5.6905                22.3758                 9.3157
 IR Inten    --    128.9504               151.7470               123.5719

 - Thermochemistry -
 -------------------
 Temperature   298.150 Kelvin.  Pressure   1.00000 Atm.
 Atom     1 has atomic number  6 and mass  12.00000

 Molecular mass:   163.98967 amu.
 Principal axes and moments of inertia in atomic units:
                           1         2         3
     Eigenvalues --   909.282991779.753602299.84299
           X           -0.33339   0.90836   0.25247
           Y            0.92550   0.36637  -0.09602
           Z            0.17971  -0.20165   0.96283
 This molecule is an asymmetric top.
 Rotational symmetry number  1.
 Warning -- assumption of classical behavior for rotation
           may cause significant error
 Rotational temperatures (Kelvin)      0.09526     0.04867     0.03766
 Rotational constants (GHZ):           1.98480     1.01404     0.78472
 Zero-point vibrational energy     133496.4 (Joules/Mol)
                                   31.90641 (Kcal/Mol)
 Warning -- explicit consideration of  14 degrees of freedom as
           vibrations may cause significant error
 Vibrational temperatures:     42.37   105.83   156.70   264.62   320.69
          (Kelvin)            387.47   457.51   523.71   539.47   565.52
                              711.83   738.55   870.40   884.29   984.52
                             1088.38  1194.44  1370.00  1532.66  1684.83
                             1758.61  1831.31  1851.75  2026.33  2053.67
                             2624.25  5542.15

 Zero-point correction=                           0.050846 (Hartree/Particle)
 Thermal correction to Energy=                    0.060208
 Thermal correction to Enthalpy=                  0.061152
 Thermal correction to Gibbs Free Energy=         0.014739
 Sum of electronic and zero-point Energies=           -764.441123
 Sum of electronic and thermal Energies=              -764.431761
 Sum of electronic and thermal Enthalpies=            -764.430817
 Sum of electronic and thermal Free Energies=         -764.477230

                     E (Thermal)             CV                S
                      KCal/Mol        Cal/Mol-Kelvin    Cal/Mol-Kelvin
 Total                   37.781             31.835             97.684
 Electronic               0.000              0.000              0.000
 Translational            0.889              2.981             41.192
 Rotational               0.889              2.981             29.699
 Vibrational             36.004             25.873             26.792
 Vibration     1          0.593              1.984              5.866
 Vibration     2          0.599              1.966              4.056
 Vibration     3          0.606              1.942              3.288
 Vibration     4          0.631              1.862              2.288
 Vibration     5          0.649              1.806              1.935
 Vibration     6          0.674              1.730              1.601
 Vibration     7          0.704              1.639              1.320
 Vibration     8          0.738              1.546              1.105
 Vibration     9          0.746              1.523              1.059
 Vibration    10          0.760              1.485              0.989
 Vibration    11          0.850              1.262              0.671
 Vibration    12          0.868              1.220              0.626
 Vibration    13          0.964              1.021              0.441
 Vibration    14          0.974              1.001              0.425

 Optimization completed.
    -- Stationary point found.
 Normal termination of Gaussian 16 at Sat May 24 06:40:36 2025.
