 Gaussian 16, Revision C.01,
 Gaussian 16:  ES64L-G16RevC.01  3-Jul-2019

 ----------------------------------------------------------------------
 #P M062X/Def2TZVPP Symm(None) scf(xqc) pop(None) opt(NoFreeze,TS,CalcA
 ll,NoEigentest,MaxCycle=999)
 ----------------------------------------------------------------------

 ------------------------------
 Gaussian input prepared by ASE
 ------------------------------
 Symbolic Z-matrix:
 Charge =  0 Multiplicity = 1

 SCF Done:  E(RM062X) =  -764.520638038     A.U. after   20 cycles
 SCF Done:  E(RM062X) =  -764.520638238     A.U. after   10 cycles

 Isotropic polarizability for W=    0.000000       49.39 Bohr**3.
 End of Minotr F.D. properties file   721 does not exist.

 Optimization completed.
    -- Stationary point found.

                          Input orientation:
 ---------------------------------------------------------------------
 Center     Atomic      Atomic             Coordinates (Angstroms)
 Number     Number       Type             X           Y           Z
 ---------------------------------------------------------------------
      1          6           0        1.533910    0.000131    0.000631
      2          8           0        1.999131   -0.829933    0.781431
      3          6           0       -0.000011   -0.000010   -0.000762
      4          6           0       -0.950095    1.220889    0.060816
      5          9           0       -2.211100    0.831288   -0.009951
      6          9           0       -0.739253    1.818336    1.219904
      7          9           0       -0.681543    2.031243   -0.935635
      8          9           0        1.498374   -0.371187   -1.448012
      9          9           0       -0.590688   -1.098237    0.038678
     10          8           0        1.951718    1.311625    0.001544
     11          1           0        2.722711    1.333677    0.579577
 ---------------------------------------------------------------------

 ******    1 imaginary frequencies (negative Signs) ******

                      1                      2                      3
                      A                      A                      A
 Frequencies --   -313.8525                48.6872                90.0349
 Red. masses --     13.3475                15.5561                14.8800
 Frc consts  --      0.7746                 0.0217                 0.0711
 IR Inten    --      5.6851                 0.0756                 2.9138

                      4                      5                      6
                      A                      A                      A
 Frequencies --    144.2422               194.9710               233.3197
 Red. masses --     10.9332                16.4865                12.6623
 Frc consts  --      0.1340                 0.3692                 0.4061
 IR Inten    --      2.9143                 2.7042                 4.0283

                      7                      8                      9
                      A                      A                      A
 Frequencies --    279.7770               321.0578               376.0223
 Red. masses --     14.2156                 2.8669                 2.3327
 Frc consts  --      0.6556                 0.1741                 0.1943
 IR Inten    --      8.6094                26.4684                29.9350

                     10                     11                     12
                      A                      A                      A
 Frequencies --    449.2780               480.2075               498.8222
 Red. masses --      4.8119                14.7091                 7.9211
 Frc consts  --      0.5723                 1.9985                 1.1613
 IR Inten    --     12.0548                10.1968                14.2940

                     13                     14                     15
                      A                      A                      A
 Frequencies --    529.9552               596.0083               659.6445
 Red. masses --     16.0453                10.8474                 7.4347
 Frc consts  --      2.6551                 2.2703                 1.9060
 IR Inten    --     15.9833                36.7706                74.1789

                     16                     17                     18
                      A                      A                      A
 Frequencies --    755.9809               776.6662               814.8250
 Red. masses --     14.7893                13.0580                 9.5519
 Frc consts  --      4.9799                 4.6408                 3.7365
 IR Inten    --    112.4849                50.6381                97.4189

                     19                     20                     21
                      A                      A                      A
 Frequencies --   1018.2652              1091.7912              1279.4117
 Red. masses --     12.6200                 4.8414                 8.9030
 Frc consts  --      7.7096                 3.4002                 8.5863
 IR Inten    --    134.4512               217.4229               273.4163

                     22                     23                     24
                      A                      A                      A
 Frequencies --   1299.6918              1312.0793              1342.4676
 Red. masses --      3.0956                11.2118                 3.0631
 Frc consts  --      3.0809                11.3723                 3.2525
 IR Inten    --     62.1009               240.3056               148.0399

                     25                     26                     27
                      A                      A                      A
 Frequencies --   1546.2581              1569.1095              3854.4620
 Red. masses --     10.7445                11.5620                 1.0653
 Frc consts  --     15.1356                16.7722                 9.3249
 IR Inten    --    391.3116                99.6551               123.6848

 - Thermochemistry -
 -------------------
 Temperature   298.150 Kelvin.  Pressure   1.00000 Atm.
 Atom     1 has atomic number  6 and mass  12.00000

 Molecular mass:   163.98967 amu.
 Principal axes and moments of inertia in atomic units:
                           1         2         3
     Eigenvalues --   860.136301681.494651878.59750
           X            0.89007   0.45147   0.06286
           Y           -0.44920   0.89218  -0.04731
           Z           -0.07744   0.01387   0.99690
 This molecule is an asymmetric top.
 Rotational symmetry number  1.
 Warning -- assumption of classical behavior for rotation
           may cause significant error
 Rotational temperatures (Kelvin)      0.10070     0.05151     0.04611
 Rotational constants (GHZ):           2.09820     1.07330     0.96069
    1 imaginary frequencies ignored.
 Zero-point vibrational energy     128975.6 (Joules/Mol)
                                   30.82591 (Kcal/Mol)
 Warning -- explicit consideration of  13 degrees of freedom as
           vibrations may cause significant error
 Vibrational temperatures:     70.05   129.54   207.53   280.52   335.69
          (Kelvin)            402.54   461.93   541.01   646.41   690.91
                              717.69   762.49   857.52   949.08  1087.69
                             1117.45  1172.35  1465.06  1570.84  1840.79
                             1869.97  1887.79  1931.51  2224.72  2257.60
                             5545.71

 Zero-point correction=                           0.049124 (Hartree/Particle)
 Thermal correction to Energy=                    0.058041
 Thermal correction to Enthalpy=                  0.058985
 Thermal correction to Gibbs Free Energy=         0.014181
 Sum of electronic and zero-point Energies=           -764.471514
 Sum of electronic and thermal Energies=              -764.462597
 Sum of electronic and thermal Enthalpies=            -764.461653
 Sum of electronic and thermal Free Energies=         -764.506457

                     E (Thermal)             CV                S
                      KCal/Mol        Cal/Mol-Kelvin    Cal/Mol-Kelvin
 Total                   36.421             30.736             94.298
 Electronic               0.000              0.000              0.000
 Translational            0.889              2.981             41.192
 Rotational               0.889              2.981             29.387
 Vibrational             34.644             24.774             23.719
 Vibration     1          0.595              1.978              4.870
 Vibration     2          0.602              1.956              3.659
 Vibration     3          0.616              1.909              2.747
 Vibration     4          0.636              1.847              2.180
 Vibration     5          0.654              1.790              1.853
 Vibration     6          0.680              1.711              1.535
 Vibration     7          0.707              1.633              1.305
 Vibration     8          0.747              1.521              1.055
 Vibration     9          0.808              1.362              0.798
 Vibration    10          0.837              1.294              0.710
 Vibration    11          0.854              1.253              0.661
 Vibration    12          0.885              1.184              0.587
 Vibration    13          0.954              1.040              0.457

 Normal termination of Gaussian 16 at Sat May 24 05:23:20 2025.
