 Gaussian 16, Revision C.01,
 Gaussian 16:  ES64L-G16RevC.01  3-Jul-2019

 -----------------------------------------------------------------
 #P M062X/Def2TZVPP Symm(None) scf(xqc) pop(None) freq opt(CalcFC)
 -----------------------------------------------------------------

 ------------------------------
 Gaussian input prepared by ASE
 ------------------------------
 Symbolic Z-matrix:
 Charge =  0 Multiplicity = 1

 SCF Done:  E(RM062X) =  -764.478278641     A.U. after   15 cycles
 SCF Done:  E(RM062X) =  -764.486851969     A.U. after   16 cycles
 SCF Done:  E(RM062X) =  -764.490215247     A.U. after   16 cycles
 SCF Done:  E(RM062X) =  -764.491607724     A.U. after   14 cycles
 SCF Done:  E(RM062X) =  -764.491551961     A.U. after   14 cycles
 SCF Done:  E(RM062X) =  -764.491839427     A.U. after   13 cycles
 SCF Done:  E(RM062X) =  -764.491764348     A.U. after   14 cycles
 SCF Done:  E(RM062X) =  -764.491959337     A.U. after   12 cycles
 SCF Done:  E(RM062X) =  -764.491968953     A.U. after   11 cycles
 SCF Done:  E(RM062X) =  -764.491969797     A.U. after   10 cycles
 SCF Done:  E(RM062X) =  -764.491969885     A.U. after    7 cycles
 Optimization completed.
    -- Stationary point found.
 Normal termination of Gaussian 16 at Sat May 24 06:39:02 2025.

 ---------------------------------------------------------------------
 #P Geom=AllCheck Guess=TCheck SCRF=Check GenChk RM062X/def2TZVPP Freq
 ---------------------------------------------------------------------

 Structure from the checkpoint file:  "/tmp/Gau-152561.chk"
 ------------------------------
 Gaussian input prepared by ASE
 ------------------------------
 Charge =  0 Multiplicity = 1

                          Input orientation:
 ---------------------------------------------------------------------
 Center     Atomic      Atomic             Coordinates (Angstroms)
 Number     Number       Type             X           Y           Z
 ---------------------------------------------------------------------
      1          6           0        1.301431    0.026547    0.149095
      2          8           0       -0.019244    0.023687    0.394982
      3          6           0        1.957606   -1.125354    0.027479
      4          6           0        1.428711   -2.527568   -0.055525
      5          9           0        1.998649   -3.154754   -1.086668
      6          9           0        1.741907   -3.216940    1.044707
      7          9           0        0.116515   -2.569457   -0.214762
      8          9           0       -0.622948    0.669748   -0.714416
      9          9           0        3.296467   -1.082093   -0.003383
     10          8           0        1.863193    1.235338    0.150790
     11          1           0        2.790982    1.172263   -0.103935
 ---------------------------------------------------------------------

 SCF Done:  E(RM062X) =  -764.491969885     A.U. after    1 cycles

 Isotropic polarizability for W=    0.000000       50.44 Bohr**3.
 End of Minotr F.D. properties file   721 does not exist.

                      1                      2                      3
                      A                      A                      A
 Frequencies --     29.7852                74.8798               108.6233
 Red. masses --     17.7087                17.6938                 9.2335
 Frc consts  --      0.0093                 0.0585                 0.0642
 IR Inten    --      0.4559                 0.8357                 1.4973

                      4                      5                      6
                      A                      A                      A
 Frequencies --    183.7343               223.0558               269.1180
 Red. masses --     14.1083                15.2540                 9.8081
 Frc consts  --      0.2806                 0.4472                 0.4185
 IR Inten    --      3.4023                 1.1967                 6.7807

                      7                      8                      9
                      A                      A                      A
 Frequencies --    317.4836               363.3966               374.6214
 Red. masses --      5.5462                 5.3053                 6.5685
 Frc consts  --      0.3294                 0.4128                 0.5431
 IR Inten    --     11.6266                16.4082                13.5121

                     10                     11                     12
                      A                      A                      A
 Frequencies --    390.1090               494.7565               513.3054
 Red. masses --      1.6531                16.2425                15.8846
 Frc consts  --      0.1482                 2.3425                 2.4659
 IR Inten    --     78.6805                 2.0798                 1.6035

                     13                     14                     15
                      A                      A                      A
 Frequencies --    604.8846               614.4721               684.2110
 Red. masses --     13.1960                15.9896                11.2688
 Frc consts  --      2.8447                 3.5571                 3.1082
 IR Inten    --      2.3838                 1.3376                 4.7083

                     16                     17                     18
                      A                      A                      A
 Frequencies --    756.4333               830.0814               952.5042
 Red. masses --     13.9289                13.3372                16.6577
 Frc consts  --      4.6958                 5.4145                 8.9043
 IR Inten    --     24.1883                22.8319                98.8745

                     19                     20                     21
                      A                      A                      A
 Frequencies --   1064.9317              1169.8743              1221.6369
 Red. masses --      6.8997                 2.7627                13.1247
 Frc consts  --      4.6103                 2.2277                11.5405
 IR Inten    --    126.4922               286.1604               295.0235

                     22                     23                     24
                      A                      A                      A
 Frequencies --   1272.4277              1286.8347              1408.2053
 Red. masses --      4.9671                 4.7690                 8.7774
 Frc consts  --      4.7383                 4.6529                10.2553
 IR Inten    --    294.8552               147.1318               123.2750

                     25                     26                     27
                      A                      A                      A
 Frequencies --   1426.5501              1823.9907              3850.4650
 Red. masses --      4.8431                11.4218                 1.0656
 Frc consts  --      5.8069                22.3887                 9.3083
 IR Inten    --    132.7610               151.4706               123.6220

 - Thermochemistry -
 -------------------
 Temperature   298.150 Kelvin.  Pressure   1.00000 Atm.
 Atom     1 has atomic number  6 and mass  12.00000

 Molecular mass:   163.98967 amu.
 Principal axes and moments of inertia in atomic units:
                           1         2         3
     Eigenvalues --   909.322731779.642852299.71800
           X           -0.33770   0.93459  -0.11185
           Y            0.94096   0.33817  -0.01532
           Z           -0.02351   0.11042   0.99361
 This molecule is an asymmetric top.
 Rotational symmetry number  1.
 Warning -- assumption of classical behavior for rotation
           may cause significant error
 Rotational temperatures (Kelvin)      0.09525     0.04867     0.03766
 Rotational constants (GHZ):           1.98471     1.01410     0.78477
 Zero-point vibrational energy     133445.7 (Joules/Mol)
                                   31.89428 (Kcal/Mol)
 Warning -- explicit consideration of  14 degrees of freedom as
           vibrations may cause significant error
 Vibrational temperatures:     42.85   107.74   156.28   264.35   320.93
          (Kelvin)            387.20   456.79   522.85   539.00   561.28
                              711.84   738.53   870.29   884.09   984.43
                             1088.34  1194.30  1370.44  1532.20  1683.19
                             1757.66  1830.74  1851.47  2026.09  2052.49
                             2624.32  5539.96

 Zero-point correction=                           0.050827 (Hartree/Particle)
 Thermal correction to Energy=                    0.060191
 Thermal correction to Enthalpy=                  0.061135
 Thermal correction to Gibbs Free Energy=         0.014738
 Sum of electronic and zero-point Energies=           -764.441143
 Sum of electronic and thermal Energies=              -764.431779
 Sum of electronic and thermal Enthalpies=            -764.430835
 Sum of electronic and thermal Free Energies=         -764.477232

                     E (Thermal)             CV                S
                      KCal/Mol        Cal/Mol-Kelvin    Cal/Mol-Kelvin
 Total                   37.770             31.846             97.652
 Electronic               0.000              0.000              0.000
 Translational            0.889              2.981             41.192
 Rotational               0.889              2.981             29.699
 Vibrational             35.993             25.885             26.760
 Vibration     1          0.594              1.984              5.844
 Vibration     2          0.599              1.966              4.021
 Vibration     3          0.606              1.942              3.293
 Vibration     4          0.631              1.862              2.290
 Vibration     5          0.649              1.806              1.934
 Vibration     6          0.674              1.730              1.602
 Vibration     7          0.704              1.640              1.323
 Vibration     8          0.737              1.548              1.108
 Vibration     9          0.746              1.524              1.061
 Vibration    10          0.758              1.491              1.000
 Vibration    11          0.850              1.262              0.671
 Vibration    12          0.868              1.221              0.626
 Vibration    13          0.963              1.021              0.441
 Vibration    14          0.974              1.001              0.425

 Optimization completed.
    -- Stationary point found.
 Normal termination of Gaussian 16 at Sat May 24 06:42:17 2025.
