 Gaussian 16, Revision C.01,
 Gaussian 16:  ES64L-G16RevC.01  3-Jul-2019

 ----------------------------------------------------------------------
 #P M062X/Def2TZVPP Symm(None) scf(xqc) pop(None) opt(NoFreeze,TS,CalcA
 ll,NoEigentest,MaxCycle=999)
 ----------------------------------------------------------------------

 ------------------------------
 Gaussian input prepared by ASE
 ------------------------------
 Symbolic Z-matrix:
 Charge =  0 Multiplicity = 1

 SCF Done:  E(RM062X) =  -764.490630781     A.U. after   14 cycles

 Isotropic polarizability for W=    0.000000       50.03 Bohr**3.
 End of Minotr F.D. properties file   721 does not exist.

 Optimization completed.
    -- Stationary point found.

                          Input orientation:
 ---------------------------------------------------------------------
 Center     Atomic      Atomic             Coordinates (Angstroms)
 Number     Number       Type             X           Y           Z
 ---------------------------------------------------------------------
      1          6           0        1.733960    0.000000    0.000000
      2          8           0        1.860705   -1.256208   -0.000182
      3          6           0        0.000000    0.000000    0.000000
      4          6           0        0.265532   -1.511976   -0.000185
      5          9           0       -1.659104   -0.784900   -0.000099
      6          9           0        0.060450   -2.186004   -1.080010
      7          9           0        0.060492   -2.186226    1.079497
      8          9           0       -0.283230    0.633702    1.120226
      9          9           0       -0.283247    0.633944   -1.120079
     10          8           0        2.750090    0.781967    0.000000
     11          1           0        3.590645    0.290263   -0.000155
 ---------------------------------------------------------------------

 ******    1 imaginary frequencies (negative Signs) ******

                      1                      2                      3
                      A                      A                      A
 Frequencies --   -681.1341               114.8808               137.0870
 Red. masses --     12.3374                12.7480                17.3218
 Frc consts  --      3.3724                 0.0991                 0.1918
 IR Inten    --     30.8309                 0.0003                 0.0699

                      4                      5                      6
                      A                      A                      A
 Frequencies --    157.5518               196.0094               319.4852
 Red. masses --     10.8122                 7.7762                18.4205
 Frc consts  --      0.1581                 0.1760                 1.1078
 IR Inten    --      7.2588                 0.0244                 6.3926

                      7                      8                      9
                      A                      A                      A
 Frequencies --    350.7288               371.1375               387.4381
 Red. masses --     13.1928                15.3731                16.2345
 Frc consts  --      0.9562                 1.2476                 1.4358
 IR Inten    --      6.4249               272.6366                 4.9096

                     10                     11                     12
                      A                      A                      A
 Frequencies --    409.9164               480.4466               487.6894
 Red. masses --     16.7525                14.5432                 8.9597
 Frc consts  --      1.6585                 1.9779                 1.2555
 IR Inten    --      2.6330                51.4104                53.6428

                     13                     14                     15
                      A                      A                      A
 Frequencies --    514.4811               608.1850               663.8022
 Red. masses --      8.6774                 1.7912                14.5737
 Frc consts  --      1.3533                 0.3904                 3.7835
 IR Inten    --     10.2797                59.6484               674.4280

                     16                     17                     18
                      A                      A                      A
 Frequencies --    688.3340               727.7372               760.5846
 Red. masses --     10.4658                 5.1859                 3.3260
 Frc consts  --      2.9216                 1.6182                 1.1336
 IR Inten    --     11.5848                77.5867                67.2572

                     19                     20                     21
                      A                      A                      A
 Frequencies --    814.8109              1199.3966              1236.8224
 Red. masses --     15.5819                 2.7798                 3.3083
 Frc consts  --      6.0951                 2.3561                 2.9817
 IR Inten    --    374.7996               231.4675               176.9891

                     22                     23                     24
                      A                      A                      A
 Frequencies --   1341.7437              1430.1978              1471.5569
 Red. masses --     13.2401                13.1112                 7.1385
 Frc consts  --     14.0437                15.8010                 9.1077
 IR Inten    --    341.8809               150.3255                43.7042

                     25                     26                     27
                      A                      A                      A
 Frequencies --   1515.5109              1648.2916              3701.1460
 Red. masses --      6.1606                12.5248                 1.0640
 Frc consts  --      8.3366                20.0489                 8.5873
 IR Inten    --     74.5688               284.7414               117.4914

 - Thermochemistry -
 -------------------
 Temperature   298.150 Kelvin.  Pressure   1.00000 Atm.
 Atom     1 has atomic number  6 and mass  12.00000

 Molecular mass:   163.98967 amu.
 Principal axes and moments of inertia in atomic units:
                           1         2         3
     Eigenvalues --   990.428721343.836521677.36486
           X            0.86124  -0.50821   0.00002
           Y            0.50821   0.86124  -0.00012
           Z            0.00004   0.00011   1.00000
 This molecule is an asymmetric top.
 Rotational symmetry number  1.
 Warning -- assumption of classical behavior for rotation
           may cause significant error
 Rotational temperatures (Kelvin)      0.08745     0.06445     0.05164
 Rotational constants (GHZ):           1.82218     1.34298     1.07594
    1 imaginary frequencies ignored.
 Zero-point vibrational energy     130004.0 (Joules/Mol)
                                   31.07170 (Kcal/Mol)
 Warning -- explicit consideration of  13 degrees of freedom as
           vibrations may cause significant error
 Vibrational temperatures:    165.29   197.24   226.68   282.01   459.67
          (Kelvin)            504.62   533.98   557.44   589.78   691.26
                              701.68   740.22   875.04   955.06   990.36
                             1047.05  1094.31  1172.33  1725.66  1779.51
                             1930.47  2057.74  2117.24  2180.48  2371.52
                             5325.12

 Zero-point correction=                           0.049516 (Hartree/Particle)
 Thermal correction to Energy=                    0.058049
 Thermal correction to Enthalpy=                  0.058993
 Thermal correction to Gibbs Free Energy=         0.015928
 Sum of electronic and zero-point Energies=           -764.441115
 Sum of electronic and thermal Energies=              -764.432582
 Sum of electronic and thermal Enthalpies=            -764.431637
 Sum of electronic and thermal Free Energies=         -764.474702

                     E (Thermal)             CV                S
                      KCal/Mol        Cal/Mol-Kelvin    Cal/Mol-Kelvin
 Total                   36.426             30.728             90.638
 Electronic               0.000              0.000              0.000
 Translational            0.889              2.981             41.192
 Rotational               0.889              2.981             29.192
 Vibrational             34.649             24.766             20.254
 Vibration     1          0.608              1.937              3.185
 Vibration     2          0.614              1.916              2.844
 Vibration     3          0.621              1.894              2.579
 Vibration     4          0.636              1.845              2.170
 Vibration     5          0.705              1.636              1.313
 Vibration     6          0.728              1.574              1.163
 Vibration     7          0.743              1.531              1.075
 Vibration     8          0.756              1.497              1.010
 Vibration     9          0.774              1.449              0.927
 Vibration    10          0.837              1.293              0.709
 Vibration    11          0.844              1.277              0.690
 Vibration    12          0.870              1.218              0.623
 Vibration    13          0.967              1.014              0.436

 Normal termination of Gaussian 16 at Sat May 24 04:45:56 2025.
