 Gaussian 16, Revision C.01,
 Gaussian 16:  ES64L-G16RevC.01  3-Jul-2019

 -----------------------------------------------------------------
 #P M062X/Def2TZVPP Symm(None) scf(xqc) pop(None) freq opt(CalcFC)
 -----------------------------------------------------------------

 ------------------------------
 Gaussian input prepared by ASE
 ------------------------------
 Symbolic Z-matrix:
 Charge =  0 Multiplicity = 1

 SCF Done:  E(RM062X) =  -764.576829045     A.U. after   13 cycles
 SCF Done:  E(RM062X) =  -764.599806857     A.U. after   14 cycles
 SCF Done:  E(RM062X) =  -764.600434453     A.U. after   11 cycles
 SCF Done:  E(RM062X) =  -764.600472824     A.U. after   11 cycles
 SCF Done:  E(RM062X) =  -764.600530332     A.U. after   11 cycles
 SCF Done:  E(RM062X) =  -764.600530866     A.U. after    6 cycles
 Optimization completed.
    -- Stationary point found.
 Normal termination of Gaussian 16 at Sat May 24 05:06:26 2025.

 ---------------------------------------------------------------------
 #P Geom=AllCheck Guess=TCheck SCRF=Check GenChk RM062X/def2TZVPP Freq
 ---------------------------------------------------------------------

 Structure from the checkpoint file:  "/tmp/Gau-11191.chk"
 ------------------------------
 Gaussian input prepared by ASE
 ------------------------------
 Charge =  0 Multiplicity = 1

                          Input orientation:
 ---------------------------------------------------------------------
 Center     Atomic      Atomic             Coordinates (Angstroms)
 Number     Number       Type             X           Y           Z
 ---------------------------------------------------------------------
      1          6           0        0.096193   -0.019065   -0.189939
      2          8           0        1.434114   -0.005419   -0.077473
      3          6           0        2.007570    1.828136    1.408902
      4          6           0        2.044151    1.230774   -0.018071
      5          9           0        2.668862    2.976289    1.424480
      6          9           0        3.316292    1.038591   -0.350962
      7          9           0        1.505575    2.099263   -0.864619
      8          9           0        0.759998    2.044251    1.792972
      9          9           0        2.580924    0.988193    2.258980
     10          8           0       -0.198745   -1.287569   -0.204867
     11          1           0       -1.155277   -1.359184   -0.288140
 ---------------------------------------------------------------------

 SCF Done:  E(RM062X) =  -764.600530866     A.U. after    1 cycles

 Isotropic polarizability for W=    0.000000       46.51 Bohr**3.
 End of Minotr F.D. properties file   721 does not exist.

                      1                      2                      3
                      A                      A                      A
 Frequencies --     48.4188                93.4988               128.5708
 Red. masses --     14.0762                 8.4804                13.3862
 Frc consts  --      0.0194                 0.0437                 0.1304
 IR Inten    --      0.2866                 1.4225                 0.9363

                      4                      5                      6
                      A                      A                      A
 Frequencies --    212.3135               227.0737               247.3090
 Red. masses --     12.0787                13.7708                14.7943
 Frc consts  --      0.3208                 0.4184                 0.5331
 IR Inten    --      0.2291                 3.3203                 2.8810

                      7                      8                      9
                      A                      A                      A
 Frequencies --    354.0859               375.7555               393.0607
 Red. masses --     16.6331                15.6882                15.3989
 Frc consts  --      1.2287                 1.3051                 1.4017
 IR Inten    --      0.0966                 0.4854                 0.2535

                     10                     11                     12
                      A                      A                      A
 Frequencies --    446.7670               532.9037               559.2788
 Red. masses --     13.3366                13.0851                16.4638
 Frc consts  --      1.5684                 2.1894                 3.0342
 IR Inten    --      0.6167                 5.4603                 7.8959

                     13                     14                     15
                      A                      A                      A
 Frequencies --    626.0151               686.0206               734.9022
 Red. masses --     14.6129                15.6410                 1.1402
 Frc consts  --      3.3741                 4.3370                 0.3628
 IR Inten    --      4.4328                13.1977                90.4225

                     16                     17                     18
                      A                      A                      A
 Frequencies --    759.6150               865.6503              1111.1068
 Red. masses --     13.3881                 9.7508                 3.8640
 Frc consts  --      4.5515                 4.3050                 2.8106
 IR Inten    --     62.3136                73.9950               133.5236

                     19                     20                     21
                      A                      A                      A
 Frequencies --   1160.9820              1236.0635              1286.5529
 Red. masses --      9.2598                 6.3223                 9.1067
 Frc consts  --      7.3536                 5.6912                 8.8811
 IR Inten    --    471.3358               370.3458               140.1109

                     22                     23                     24
                      A                      A                      A
 Frequencies --   1295.2476              1298.8306              1365.2803
 Red. masses --     10.7164                11.8448                 2.5545
 Frc consts  --     10.5927                11.7729                 2.8054
 IR Inten    --    303.7726               409.7713                71.3908

                     25                     26                     27
                      A                      A                      A
 Frequencies --   1409.8305              1439.4088              3871.4229
 Red. masses --      6.2503                12.3893                 1.0665
 Frc consts  --      7.3196                15.1240                 9.4179
 IR Inten    --    196.5630                 3.9729               205.7254

 - Thermochemistry -
 -------------------
 Temperature   298.150 Kelvin.  Pressure   1.00000 Atm.
 Atom     1 has atomic number  6 and mass  12.00000

 Molecular mass:   163.98967 amu.
 Principal axes and moments of inertia in atomic units:
                           1         2         3
     Eigenvalues --   875.140291703.691551916.31037
           X            0.56060  -0.51234  -0.65057
           Y            0.71187  -0.10320   0.69469
           Z            0.42306   0.85256  -0.30686
 This molecule is an asymmetric top.
 Rotational symmetry number  1.
 Warning -- assumption of classical behavior for rotation
           may cause significant error
 Rotational temperatures (Kelvin)      0.09897     0.05084     0.04520
 Rotational constants (GHZ):           2.06223     1.05931     0.94178
 Zero-point vibrational energy     136170.7 (Joules/Mol)
                                   32.54558 (Kcal/Mol)
 Warning -- explicit consideration of  12 degrees of freedom as
           vibrations may cause significant error
 Vibrational temperatures:     69.66   134.52   184.98   305.47   326.71
          (Kelvin)            355.82   509.45   540.63   565.53   642.80
                              766.73   804.68   900.70   987.03  1057.36
                             1092.92  1245.48  1598.63  1670.39  1778.42
                             1851.06  1863.57  1868.73  1964.33  2028.43
                             2070.99  5570.11

 Zero-point correction=                           0.051865 (Hartree/Particle)
 Thermal correction to Energy=                    0.060804
 Thermal correction to Enthalpy=                  0.061748
 Thermal correction to Gibbs Free Energy=         0.016837
 Sum of electronic and zero-point Energies=           -764.548666
 Sum of electronic and thermal Energies=              -764.539727
 Sum of electronic and thermal Enthalpies=            -764.538783
 Sum of electronic and thermal Free Energies=         -764.583694

                     E (Thermal)             CV                S
                      KCal/Mol        Cal/Mol-Kelvin    Cal/Mol-Kelvin
 Total                   38.155             30.764             94.524
 Electronic               0.000              0.000              0.000
 Translational            0.889              2.981             41.192
 Rotational               0.889              2.981             29.437
 Vibrational             36.378             24.802             23.895
 Vibration     1          0.595              1.978              4.881
 Vibration     2          0.603              1.954              3.586
 Vibration     3          0.611              1.925              2.967
 Vibration     4          0.643              1.822              2.024
 Vibration     5          0.651              1.800              1.902
 Vibration     6          0.661              1.767              1.750
 Vibration     7          0.730              1.567              1.148
 Vibration     8          0.747              1.522              1.056
 Vibration     9          0.760              1.485              0.989
 Vibration    10          0.806              1.368              0.806
 Vibration    11          0.888              1.177              0.581
 Vibration    12          0.915              1.119              0.525

 Optimization completed.
    -- Stationary point found.
 Normal termination of Gaussian 16 at Sat May 24 05:09:32 2025.
