 Gaussian 16, Revision C.01,
 Gaussian 16:  ES64L-G16RevC.01  3-Jul-2019

 ------------------------------------------
 #P am1 Symm(None) scf(xqc) pop(None) force
 ------------------------------------------

 ------------------------------
 Gaussian input prepared by ASE
 ------------------------------
 Symbolic Z-matrix:
 Charge =  0 Multiplicity = 1

                          Input orientation:
 ---------------------------------------------------------------------
 Center     Atomic      Atomic             Coordinates (Angstroms)
 Number     Number       Type             X           Y           Z
 ---------------------------------------------------------------------
      1          6           0        1.514898    0.221948    0.167410
      2          8           0        1.686864   -0.657258   -0.677343
      3          6           0        1.087673    1.523077   -0.143793
      4          6           0        1.236750    2.099929   -1.551488
      5          9           0        1.690898    3.358186   -1.506347
      6          9           0        2.101996    1.443925   -2.305097
      7          9           0        0.112198    2.156185   -2.214335
      8          9           0        0.075294   -0.327049   -1.637635
      9          9           0        0.590235    2.305506    0.744811
     10          8           0        1.544183   -0.117208    1.459059
     11          1           0        1.676308   -1.069756    1.548432
 ---------------------------------------------------------------------

 SCF Done:  E(RAM1) =   3.01851355766     A.U. after   23 cycles
 Normal termination of Gaussian 16 at Sat May 24 06:31:22 2025.
