 Gaussian 16, Revision C.01,
 Gaussian 16:  ES64L-G16RevC.01  3-Jul-2019

 ----------------------------------------------------------------------
 #P M062X/Def2TZVPP Symm(None) scf(xqc) pop(None) opt(NoFreeze,TS,CalcA
 ll,NoEigentest,MaxCycle=999)
 ----------------------------------------------------------------------

 ------------------------------
 Gaussian input prepared by ASE
 ------------------------------
 Symbolic Z-matrix:
 Charge =  0 Multiplicity = 1

 SCF Done:  E(RM062X) =  -764.495960052     A.U. after   15 cycles
 SCF Done:  E(RM062X) =  -764.512179908     A.U. after   16 cycles
 SCF Done:  E(RM062X) =  -764.512299541     A.U. after   12 cycles
 SCF Done:  E(RM062X) =  -764.512299666     A.U. after    8 cycles

 Isotropic polarizability for W=    0.000000       48.57 Bohr**3.
 End of Minotr F.D. properties file   721 does not exist.

 Optimization completed.
    -- Stationary point found.

                          Input orientation:
 ---------------------------------------------------------------------
 Center     Atomic      Atomic             Coordinates (Angstroms)
 Number     Number       Type             X           Y           Z
 ---------------------------------------------------------------------
      1          6           0        1.809296    0.126636    0.081204
      2          8           0        1.255003   -0.258427    1.146007
      3          6           0        0.006378    0.002331   -0.000676
      4          6           0       -0.256119    0.957269   -1.211605
      5          9           0        0.359178    0.526863   -2.298848
      6          9           0       -1.558496    1.011449   -1.465737
      7          9           0        0.172395    2.179232   -0.921269
      8          9           0       -0.269672   -1.227923   -0.366906
      9          9           0       -0.876325    0.420181    0.919021
     10          8           0        3.077236    0.454518    0.199592
     11          1           0        3.420370    0.723554   -0.659856
 ---------------------------------------------------------------------

 ******    1 imaginary frequencies (negative Signs) ******

                      1                      2                      3
                      A                      A                      A
 Frequencies --   -778.8115                64.9441                70.9675
 Red. masses --     12.5098                13.0818                 9.4287
 Frc consts  --      4.4706                 0.0325                 0.0280
 IR Inten    --     65.0396                 0.4653                 7.0984

                      4                      5                      6
                      A                      A                      A
 Frequencies --    121.8768               219.8056               257.2016
 Red. masses --     12.6765                12.2415                13.0795
 Frc consts  --      0.1109                 0.3485                 0.5098
 IR Inten    --      2.0727                 9.6691                 5.9480

                      7                      8                      9
                      A                      A                      A
 Frequencies --    328.8389               366.1080               376.7623
 Red. masses --     11.7657                14.5604                14.6612
 Frc consts  --      0.7496                 1.1498                 1.2262
 IR Inten    --      8.3834                14.3967                 8.7978

                     10                     11                     12
                      A                      A                      A
 Frequencies --    420.6031               474.8049               562.3980
 Red. masses --     16.6894                16.7415                10.8510
 Frc consts  --      1.7395                 2.2237                 2.0221
 IR Inten    --     13.7493                 4.2163                29.3825

                     13                     14                     15
                      A                      A                      A
 Frequencies --    599.9369               608.8718               628.3926
 Red. masses --     11.6578                 1.8952                 2.8751
 Frc consts  --      2.4722                 0.4140                 0.6689
 IR Inten    --      3.9943                42.9670                57.1896

                     16                     17                     18
                      A                      A                      A
 Frequencies --    689.7235               753.3617               854.5324
 Red. masses --      9.6476                12.2873                14.0863
 Frc consts  --      2.7041                 4.1088                 6.0604
 IR Inten    --    104.1103               129.2035               238.5689

                     19                     20                     21
                      A                      A                      A
 Frequencies --   1026.0945              1181.1974              1244.6778
 Red. masses --      9.6545                 1.4156                12.0193
 Frc consts  --      5.9890                 1.1637                10.9709
 IR Inten    --    237.2646                81.4077               195.7124

                     22                     23                     24
                      A                      A                      A
 Frequencies --   1272.2261              1299.1169              1328.1781
 Red. masses --     10.8187                13.0055                 9.7612
 Frc consts  --     10.3170                12.9323                10.1453
 IR Inten    --    443.3150               270.7482               130.2437

                     25                     26                     27
                      A                      A                      A
 Frequencies --   1358.6329              1621.9776              3861.1873
 Red. masses --      9.9501                 8.5877                 1.0663
 Frc consts  --     10.8213                13.3112                 9.3666
 IR Inten    --    180.0095               132.9211               185.3816

 - Thermochemistry -
 -------------------
 Temperature   298.150 Kelvin.  Pressure   1.00000 Atm.
 Atom     1 has atomic number  6 and mass  12.00000

 Molecular mass:   163.98967 amu.
 Principal axes and moments of inertia in atomic units:
                           1         2         3
     Eigenvalues --   953.604001491.377201799.68715
           X            0.82664  -0.54924  -0.12247
           Y           -0.24852  -0.55159   0.79623
           Z            0.50487   0.62777   0.59246
 This molecule is an asymmetric top.
 Rotational symmetry number  1.
 Warning -- assumption of classical behavior for rotation
           may cause significant error
 Rotational temperatures (Kelvin)      0.09083     0.05808     0.04813
 Rotational constants (GHZ):           1.89255     1.21012     1.00281
    1 imaginary frequencies ignored.
 Zero-point vibrational energy     129151.3 (Joules/Mol)
                                   30.86791 (Kcal/Mol)
 Warning -- explicit consideration of  13 degrees of freedom as
           vibrations may cause significant error
 Vibrational temperatures:     93.44   102.11   175.35   316.25   370.06
          (Kelvin)            473.13   526.75   542.08   605.15   683.14
                              809.17   863.18   876.03   904.12   992.36
                             1083.92  1229.48  1476.32  1699.48  1790.81
                             1830.45  1869.14  1910.95  1954.77  2333.66
                             5555.39

 Zero-point correction=                           0.049191 (Hartree/Particle)
 Thermal correction to Energy=                    0.057942
 Thermal correction to Enthalpy=                  0.058886
 Thermal correction to Gibbs Free Energy=         0.014460
 Sum of electronic and zero-point Energies=           -764.463109
 Sum of electronic and thermal Energies=              -764.454358
 Sum of electronic and thermal Enthalpies=            -764.453414
 Sum of electronic and thermal Free Energies=         -764.497840

                     E (Thermal)             CV                S
                      KCal/Mol        Cal/Mol-Kelvin    Cal/Mol-Kelvin
 Total                   36.359             30.439             93.502
 Electronic               0.000              0.000              0.000
 Translational            0.889              2.981             41.192
 Rotational               0.889              2.981             29.327
 Vibrational             34.581             24.477             22.982
 Vibration     1          0.597              1.971              4.301
 Vibration     2          0.598              1.968              4.126
 Vibration     3          0.609              1.931              3.070
 Vibration     4          0.647              1.811              1.961
 Vibration     5          0.667              1.751              1.681
 Vibration     6          0.712              1.618              1.266
 Vibration     7          0.739              1.542              1.096
 Vibration     8          0.747              1.520              1.052
 Vibration     9          0.783              1.425              0.890
 Vibration    10          0.832              1.306              0.724
 Vibration    11          0.918              1.113              0.519
 Vibration    12          0.958              1.032              0.450
 Vibration    13          0.968              1.013              0.435

 Normal termination of Gaussian 16 at Sat May 24 05:21:48 2025.
