 Gaussian 16, Revision C.01,
 Gaussian 16:  ES64L-G16RevC.01  3-Jul-2019

 -----------------------------------------------------------------
 #P M062X/Def2TZVPP Symm(None) scf(xqc) pop(None) freq opt(CalcFC)
 -----------------------------------------------------------------

 ------------------------------
 Gaussian input prepared by ASE
 ------------------------------
 Symbolic Z-matrix:
 Charge =  0 Multiplicity = 1

 SCF Done:  E(RM062X) =  -764.565420538     A.U. after   13 cycles
 SCF Done:  E(RM062X) =  -764.580494651     A.U. after   14 cycles
 SCF Done:  E(RM062X) =  -764.580561454     A.U. after   15 cycles
 SCF Done:  E(RM062X) =  -764.581559720     A.U. after   12 cycles
 SCF Done:  E(RM062X) =  -764.581637023     A.U. after   10 cycles
 SCF Done:  E(RM062X) =  -764.581780585     A.U. after   11 cycles
 SCF Done:  E(RM062X) =  -764.581976126     A.U. after   11 cycles
 SCF Done:  E(RM062X) =  -764.582268657     A.U. after   11 cycles
 SCF Done:  E(RM062X) =  -764.582569407     A.U. after   11 cycles
 SCF Done:  E(RM062X) =  -764.583031590     A.U. after   12 cycles
 SCF Done:  E(RM062X) =  -764.583372998     A.U. after   12 cycles
 SCF Done:  E(RM062X) =  -764.583413530     A.U. after   11 cycles
 SCF Done:  E(RM062X) =  -764.583445044     A.U. after   10 cycles
 SCF Done:  E(RM062X) =  -764.583454336     A.U. after    8 cycles
 SCF Done:  E(RM062X) =  -764.583455102     A.U. after    8 cycles
 SCF Done:  E(RM062X) =  -764.583455361     A.U. after    8 cycles
 Optimization completed.
    -- Stationary point found.
 Normal termination of Gaussian 16 at Sat May 24 05:09:01 2025.

 ---------------------------------------------------------------------
 #P Geom=AllCheck Guess=TCheck SCRF=Check GenChk RM062X/def2TZVPP Freq
 ---------------------------------------------------------------------

 Structure from the checkpoint file:  "/tmp/Gau-203302.chk"
 ------------------------------
 Gaussian input prepared by ASE
 ------------------------------
 Charge =  0 Multiplicity = 1

                          Input orientation:
 ---------------------------------------------------------------------
 Center     Atomic      Atomic             Coordinates (Angstroms)
 Number     Number       Type             X           Y           Z
 ---------------------------------------------------------------------
      1          6           0        0.240194   -0.385056   -0.406720
      2          8           0        1.540452   -0.076622   -0.102531
      3          6           0        1.967321    1.870861    1.280990
      4          6           0        2.194992    1.130428   -0.057079
      5          9           0        2.659519    2.997231    1.299953
      6          9           0        3.489153    0.891222   -0.191942
      7          9           0        1.819489    1.959078   -1.056635
      8          9           0        0.672096    2.162208    1.403738
      9          9           0        2.336314    1.110677    2.292972
     10          8           0       -0.489108    0.630086   -0.740771
     11          1           0       -0.075334    1.508919   -0.768836
 ---------------------------------------------------------------------

 SCF Done:  E(RM062X) =  -764.583455361     A.U. after    1 cycles

 Isotropic polarizability for W=    0.000000       46.46 Bohr**3.
 End of Minotr F.D. properties file   721 does not exist.

                      1                      2                      3
                      A                      A                      A
 Frequencies --     55.6737               105.9808               149.4595
 Red. masses --     15.4273                12.0163                 4.8176
 Frc consts  --      0.0282                 0.0795                 0.0634
 IR Inten    --      0.4713                 0.4186                30.3103

                      4                      5                      6
                      A                      A                      A
 Frequencies --    219.1568               236.8584               240.9066
 Red. masses --     16.5668                 9.1967                11.4555
 Frc consts  --      0.4688                 0.3040                 0.3917
 IR Inten    --      4.4185                10.6189                 2.3284

                      7                      8                      9
                      A                      A                      A
 Frequencies --    350.4376               356.6399               394.5548
 Red. masses --     14.5522                13.6333                12.6938
 Frc consts  --      1.0529                 1.0217                 1.1643
 IR Inten    --      2.6105                 3.3774                 3.3724

                     10                     11                     12
                      A                      A                      A
 Frequencies --    473.8487               518.6351               598.6431
 Red. masses --     14.9520                14.5880                14.8732
 Frc consts  --      1.9780                 2.3119                 3.1404
 IR Inten    --      2.6811                 9.3784                 3.5723

                     13                     14                     15
                      A                      A                      A
 Frequencies --    605.0435               686.8040               712.3330
 Red. masses --     12.9251                 3.0690                 2.2706
 Frc consts  --      2.7878                 0.8529                 0.6788
 IR Inten    --      5.1401                10.0225               101.4726

                     16                     17                     18
                      A                      A                      A
 Frequencies --    773.4336               803.5974              1030.8772
 Red. masses --      5.4065                16.0744                 7.2590
 Frc consts  --      1.9055                 6.1159                 4.5451
 IR Inten    --     21.4957                 5.4431               116.6073

                     19                     20                     21
                      A                      A                      A
 Frequencies --   1107.9035              1178.1622              1265.8964
 Red. masses --     12.9637                10.5044                 3.5632
 Frc consts  --      9.3752                 8.5908                 3.3642
 IR Inten    --    385.2632               162.9059               425.7093

                     22                     23                     24
                      A                      A                      A
 Frequencies --   1279.2867              1314.2545              1329.3320
 Red. masses --     12.3855                13.1041                 2.5006
 Frc consts  --     11.9427                13.3357                 2.6035
 IR Inten    --    379.4324               255.1270                83.3914

                     25                     26                     27
                      A                      A                      A
 Frequencies --   1390.9026              1429.4753              3706.7229
 Red. masses --      5.2246                11.9411                 1.0628
 Frc consts  --      5.9552                14.3763                 8.6033
 IR Inten    --    204.0162                14.5117                64.4872

 - Thermochemistry -
 -------------------
 Temperature   298.150 Kelvin.  Pressure   1.00000 Atm.
 Atom     1 has atomic number  6 and mass  12.00000

 Molecular mass:   163.98967 amu.
 Principal axes and moments of inertia in atomic units:
                           1         2         3
     Eigenvalues --   914.445641472.774271670.73830
           X            0.62739   0.76291  -0.15604
           Y            0.50132  -0.24238   0.83062
           Z            0.59587  -0.59935  -0.53453
 This molecule is an asymmetric top.
 Rotational symmetry number  1.
 Warning -- assumption of classical behavior for rotation
           may cause significant error
 Rotational temperatures (Kelvin)      0.09472     0.05881     0.05184
 Rotational constants (GHZ):           1.97359     1.22540     1.08021
 Zero-point vibrational energy     133472.3 (Joules/Mol)
                                   31.90064 (Kcal/Mol)
 Warning -- explicit consideration of  13 degrees of freedom as
           vibrations may cause significant error
 Vibrational temperatures:     80.10   152.48   215.04   315.32   340.79
          (Kelvin)            346.61   504.20   513.13   567.68   681.76
                              746.20   861.31   870.52   988.16  1024.89
                             1112.80  1156.20  1483.20  1594.03  1695.11
                             1821.34  1840.61  1890.92  1912.61  2001.20
                             2056.70  5333.15

 Zero-point correction=                           0.050837 (Hartree/Particle)
 Thermal correction to Energy=                    0.059723
 Thermal correction to Enthalpy=                  0.060667
 Thermal correction to Gibbs Free Energy=         0.016240
 Sum of electronic and zero-point Energies=           -764.532618
 Sum of electronic and thermal Energies=              -764.523733
 Sum of electronic and thermal Enthalpies=            -764.522788
 Sum of electronic and thermal Free Energies=         -764.567215

                     E (Thermal)             CV                S
                      KCal/Mol        Cal/Mol-Kelvin    Cal/Mol-Kelvin
 Total                   37.477             30.992             93.505
 Electronic               0.000              0.000              0.000
 Translational            0.889              2.981             41.192
 Rotational               0.889              2.981             29.199
 Vibrational             35.699             25.030             23.113
 Vibration     1          0.596              1.975              4.605
 Vibration     2          0.605              1.944              3.341
 Vibration     3          0.618              1.903              2.679
 Vibration     4          0.647              1.812              1.966
 Vibration     5          0.656              1.784              1.826
 Vibration     6          0.658              1.778              1.796
 Vibration     7          0.727              1.574              1.164
 Vibration     8          0.732              1.562              1.137
 Vibration     9          0.762              1.482              0.983
 Vibration    10          0.831              1.308              0.727
 Vibration    11          0.874              1.209              0.613
 Vibration    12          0.957              1.035              0.452
 Vibration    13          0.964              1.021              0.441

 Optimization completed.
    -- Stationary point found.
 Normal termination of Gaussian 16 at Sat May 24 05:12:34 2025.
