 Gaussian 16, Revision C.01,
 Gaussian 16:  ES64L-G16RevC.01  3-Jul-2019

 -----------------------------------------------------------------
 #P M062X/Def2TZVPP Symm(None) scf(xqc) pop(None) freq opt(CalcFC)
 -----------------------------------------------------------------

 ------------------------------
 Gaussian input prepared by ASE
 ------------------------------
 Symbolic Z-matrix:
 Charge =  0 Multiplicity = 1

 SCF Done:  E(RM062X) =  -764.543282849     A.U. after   13 cycles
 SCF Done:  E(RM062X) =  -764.566266532     A.U. after   14 cycles
 SCF Done:  E(RM062X) =  -764.577264078     A.U. after   14 cycles
 SCF Done:  E(RM062X) =  -764.588887722     A.U. after   13 cycles
 SCF Done:  E(RM062X) =  -764.588109432     A.U. after   15 cycles
 SCF Done:  E(RM062X) =  -764.583679398     A.U. after   13 cycles
 SCF Done:  E(RM062X) =  -764.586408268     A.U. after   13 cycles
 SCF Done:  E(RM062X) =  -764.591770787     A.U. after   11 cycles
 SCF Done:  E(RM062X) =  -764.592185116     A.U. after   14 cycles
 SCF Done:  E(RM062X) =  -764.587991495     A.U. after   14 cycles
 SCF Done:  E(RM062X) =  -764.593876482     A.U. after   14 cycles
 SCF Done:  E(RM062X) =  -764.594990808     A.U. after   13 cycles
 SCF Done:  E(RM062X) =  -764.595211044     A.U. after   11 cycles
 SCF Done:  E(RM062X) =  -764.595336839     A.U. after   11 cycles
 SCF Done:  E(RM062X) =  -764.595399178     A.U. after   10 cycles
 SCF Done:  E(RM062X) =  -764.595411991     A.U. after    8 cycles
 SCF Done:  E(RM062X) =  -764.595416544     A.U. after    8 cycles
 SCF Done:  E(RM062X) =  -764.595417667     A.U. after    8 cycles
 Optimization completed.
    -- Stationary point found.
 Normal termination of Gaussian 16 at Sat May 24 05:02:20 2025.

 ---------------------------------------------------------------------
 #P Geom=AllCheck Guess=TCheck SCRF=Check GenChk RM062X/def2TZVPP Freq
 ---------------------------------------------------------------------

 Structure from the checkpoint file:  "/tmp/Gau-243871.chk"
 ------------------------------
 Gaussian input prepared by ASE
 ------------------------------
 Charge =  0 Multiplicity = 1

                          Input orientation:
 ---------------------------------------------------------------------
 Center     Atomic      Atomic             Coordinates (Angstroms)
 Number     Number       Type             X           Y           Z
 ---------------------------------------------------------------------
      1          6           0        0.224652   -0.422029   -0.558075
      2          8           0        1.522152   -0.077971   -0.496224
      3          6           0        3.536183    1.140524   -0.370040
      4          6           0        1.994712    1.223278   -0.423085
      5          9           0        4.038109    2.365802   -0.298998
      6          9           0        1.646662    1.939747   -1.491001
      7          9           0        1.566881    1.847076    0.673580
      8          9           0        3.919915    0.456008    0.695635
      9          9           0        3.998737    0.548577   -1.459606
     10          8           0       -0.498822    0.666179   -0.538042
     11          1           0       -1.424139    0.402617   -0.582303
 ---------------------------------------------------------------------

 SCF Done:  E(RM062X) =  -764.595417667     A.U. after    1 cycles

 Isotropic polarizability for W=    0.000000       46.42 Bohr**3.
 End of Minotr F.D. properties file   721 does not exist.

                      1                      2                      3
                      A                      A                      A
 Frequencies --     70.0056                94.5996               148.4983
 Red. masses --     16.9709                 8.9179                10.6688
 Frc consts  --      0.0490                 0.0470                 0.1386
 IR Inten    --      0.0000                 3.0363                 0.2888

                      4                      5                      6
                      A                      A                      A
 Frequencies --    225.4763               238.7926               247.5897
 Red. masses --     14.1332                14.5003                10.2268
 Frc consts  --      0.4233                 0.4872                 0.3694
 IR Inten    --      2.5921                 1.3103                 4.8414

                      7                      8                      9
                      A                      A                      A
 Frequencies --    320.3116               376.6680               396.3726
 Red. masses --     17.2901                17.9598                15.4951
 Frc consts  --      1.0452                 1.5013                 1.4343
 IR Inten    --      0.8123                 0.0029                 0.2196

                     10                     11                     12
                      A                      A                      A
 Frequencies --    509.3632               534.4451               598.4360
 Red. masses --     13.3587                11.1676                12.9366
 Frc consts  --      2.0421                 1.8794                 2.7296
 IR Inten    --      6.3817                14.5710                 8.2777

                     13                     14                     15
                      A                      A                      A
 Frequencies --    626.5915               640.0278               736.5655
 Red. masses --     11.2795                11.6657                 1.2194
 Frc consts  --      2.6092                 2.8155                 0.3898
 IR Inten    --      2.8302                29.0922                78.8983

                     16                     17                     18
                      A                      A                      A
 Frequencies --    789.1235               862.3752              1063.7057
 Red. masses --     13.1548                13.0282                 3.6493
 Frc consts  --      4.8264                 5.7085                 2.4328
 IR Inten    --      6.5326                 2.1400                49.4182

                     19                     20                     21
                      A                      A                      A
 Frequencies --   1136.0824              1193.6011              1265.3550
 Red. masses --     10.5277                 5.9452                13.0051
 Frc consts  --      8.0057                 4.9904                12.2684
 IR Inten    --    695.7303               136.0938               141.8064

                     22                     23                     24
                      A                      A                      A
 Frequencies --   1294.0750              1303.8819              1337.4724
 Red. masses --     12.4380                13.2144                 5.0062
 Frc consts  --     12.2721                13.2365                 5.2763
 IR Inten    --    252.7708               378.2743               210.2384

                     25                     26                     27
                      A                      A                      A
 Frequencies --   1368.0446              1456.3141              3863.5143
 Red. masses --      2.4761                12.4472                 1.0667
 Frc consts  --      2.7304                15.5536                 9.3812
 IR Inten    --    219.2284                14.4652               207.6743

 - Thermochemistry -
 -------------------
 Temperature   298.150 Kelvin.  Pressure   1.00000 Atm.
 Atom     1 has atomic number  6 and mass  12.00000

 Molecular mass:   163.98967 amu.
 Principal axes and moments of inertia in atomic units:
                           1         2         3
     Eigenvalues --   708.787711790.364081864.11304
           X            0.97986  -0.19631  -0.03657
           Y            0.19474   0.97993  -0.04256
           Z            0.04419   0.03458   0.99842
 This molecule is an asymmetric top.
 Rotational symmetry number  1.
 Warning -- assumption of classical behavior for rotation
           may cause significant error
 Rotational temperatures (Kelvin)      0.12220     0.04838     0.04646
 Rotational constants (GHZ):           2.54624     1.00803     0.96815
 Zero-point vibrational energy     135759.9 (Joules/Mol)
                                   32.44740 (Kcal/Mol)
 Warning -- explicit consideration of  12 degrees of freedom as
           vibrations may cause significant error
 Vibrational temperatures:    100.72   136.11   213.66   324.41   343.57
          (Kelvin)            356.23   460.86   541.94   570.29   732.86
                              768.95   861.02   901.53   920.86  1059.75
                             1135.37  1240.77  1530.44  1634.57  1717.33
                             1820.56  1861.89  1876.00  1924.32  1968.31
                             2095.31  5558.74

 Zero-point correction=                           0.051708 (Hartree/Particle)
 Thermal correction to Energy=                    0.060513
 Thermal correction to Enthalpy=                  0.061457
 Thermal correction to Gibbs Free Energy=         0.017235
 Sum of electronic and zero-point Energies=           -764.543709
 Sum of electronic and thermal Energies=              -764.534905
 Sum of electronic and thermal Enthalpies=            -764.533960
 Sum of electronic and thermal Free Energies=         -764.578183

                     E (Thermal)             CV                S
                      KCal/Mol        Cal/Mol-Kelvin    Cal/Mol-Kelvin
 Total                   37.973             30.686             93.074
 Electronic               0.000              0.000              0.000
 Translational            0.889              2.981             41.192
 Rotational               0.889              2.981             29.249
 Vibrational             36.195             24.725             22.632
 Vibration     1          0.598              1.968              4.153
 Vibration     2          0.603              1.953              3.563
 Vibration     3          0.618              1.904              2.691
 Vibration     4          0.650              1.802              1.915
 Vibration     5          0.657              1.781              1.812
 Vibration     6          0.661              1.767              1.748
 Vibration     7          0.706              1.635              1.309
 Vibration     8          0.747              1.520              1.053
 Vibration     9          0.763              1.478              0.976
 Vibration    10          0.865              1.229              0.635
 Vibration    11          0.889              1.174              0.577
 Vibration    12          0.956              1.035              0.452

 Optimization completed.
    -- Stationary point found.
 Normal termination of Gaussian 16 at Sat May 24 05:05:30 2025.
