 Gaussian 16, Revision C.01,
 Gaussian 16:  ES64L-G16RevC.01  3-Jul-2019

 -----------------------------------------------------------------
 #P M062X/Def2TZVPP Symm(None) scf(xqc) pop(None) freq opt(CalcFC)
 -----------------------------------------------------------------

 ------------------------------
 Gaussian input prepared by ASE
 ------------------------------
 Symbolic Z-matrix:
 Charge =  0 Multiplicity = 1

 SCF Done:  E(RM062X) =  -764.460476876     A.U. after   15 cycles
 SCF Done:  E(RM062X) =  -764.464874672     A.U. after   15 cycles
 SCF Done:  E(RM062X) =  -764.464687743     A.U. after   16 cycles
 SCF Done:  E(RM062X) =  -764.465530489     A.U. after   13 cycles
 SCF Done:  E(RM062X) =  -764.465584452     A.U. after   13 cycles
 SCF Done:  E(RM062X) =  -764.465605127     A.U. after   11 cycles
 SCF Done:  E(RM062X) =  -764.465606146     A.U. after    9 cycles
 Optimization completed.
    -- Stationary point found.
 Normal termination of Gaussian 16 at Sat May 24 08:49:26 2025.

 ---------------------------------------------------------------------
 #P Geom=AllCheck Guess=TCheck SCRF=Check GenChk RM062X/def2TZVPP Freq
 ---------------------------------------------------------------------

 Structure from the checkpoint file:  "/tmp/Gau-229838.chk"
 ------------------------------
 Gaussian input prepared by ASE
 ------------------------------
 Charge =  0 Multiplicity = 1

                          Input orientation:
 ---------------------------------------------------------------------
 Center     Atomic      Atomic             Coordinates (Angstroms)
 Number     Number       Type             X           Y           Z
 ---------------------------------------------------------------------
      1          6           0        0.617222    1.977358    0.862257
      2          8           0        0.820974    0.047494   -0.264096
      3          6           0        0.992426    3.471469    0.852081
      4          6           0        1.856950    4.032713   -0.296083
      5          9           0        2.067072    5.328854   -0.114159
      6          9           0        3.030900    3.413706   -0.330951
      7          9           0        1.242254    3.862380   -1.460172
      8          9           0       -0.162967    4.153649    0.852906
      9          9           0        1.648534    3.708706    1.997860
     10          8           0        1.104802    1.442210   -0.159028
     11          1           0        0.292794   -0.093114    0.544463
 ---------------------------------------------------------------------

 SCF Done:  E(RM062X) =  -764.465606146     A.U. after    1 cycles

 Isotropic polarizability for W=    0.000000       50.02 Bohr**3.
 End of Minotr F.D. properties file   721 does not exist.

                      1                      2                      3
                      A                      A                      A
 Frequencies --     38.3059                80.7566               127.8277
 Red. masses --     11.8690                16.2485                13.0877
 Frc consts  --      0.0103                 0.0624                 0.1260
 IR Inten    --      1.0260                 0.0848                 0.1213

                      4                      5                      6
                      A                      A                      A
 Frequencies --    193.9433               240.1423               257.4612
 Red. masses --      5.6508                 7.1881                15.2780
 Frc consts  --      0.1252                 0.2442                 0.5967
 IR Inten    --      0.0353                 5.7627                 8.2548

                      7                      8                      9
                      A                      A                      A
 Frequencies --    348.1836               375.7102               389.6974
 Red. masses --     17.5567                 8.0693                13.7294
 Frc consts  --      1.2540                 0.6711                 1.2285
 IR Inten    --      0.5859                15.2288                 6.6555

                     10                     11                     12
                      A                      A                      A
 Frequencies --    393.4739               418.2633               511.5428
 Red. masses --      5.0320                 1.7540                11.4951
 Frc consts  --      0.4590                 0.1808                 1.7723
 IR Inten    --     20.9041                65.7777                11.5022

                     13                     14                     15
                      A                      A                      A
 Frequencies --    543.7681               611.8780               665.3846
 Red. masses --     15.7047                17.1106                17.0244
 Frc consts  --      2.7359                 3.7744                 4.4409
 IR Inten    --      2.2762                 0.0143                12.1213

                     16                     17                     18
                      A                      A                      A
 Frequencies --    730.5665               824.9141               927.8124
 Red. masses --     11.1589                12.7910                13.2617
 Frc consts  --      3.5091                 5.1283                 6.7262
 IR Inten    --     30.2876                 4.2749                64.3256

                     19                     20                     21
                      A                      A                      A
 Frequencies --   1128.1350              1230.3529              1246.4030
 Red. masses --     11.3093                13.1846                12.4952
 Frc consts  --      8.4803                11.7592                11.4369
 IR Inten    --    155.6498               136.9159               239.3860

                     22                     23                     24
                      A                      A                      A
 Frequencies --   1283.5545              1286.4386              1400.1401
 Red. masses --     12.5578                13.1695                12.4995
 Frc consts  --     12.1897                12.8410                14.4373
 IR Inten    --    130.6668               321.4455                92.9726

                     25                     26                     27
                      A                      A                      A
 Frequencies --   1463.0516              1517.6046              3670.4628
 Red. masses --      2.0640                 2.3226                 1.0662
 Frc consts  --      2.6031                 3.1517                 8.4632
 IR Inten    --     38.9385                41.9876                65.6033

 - Thermochemistry -
 -------------------
 Temperature   298.150 Kelvin.  Pressure   1.00000 Atm.
 Atom     1 has atomic number  6 and mass  12.00000

 Molecular mass:   163.98967 amu.
 Principal axes and moments of inertia in atomic units:
                           1         2         3
     Eigenvalues --   925.787871674.959131958.52464
           X            0.23433  -0.51027   0.82747
           Y            0.97190   0.10339  -0.21148
           Z            0.02236   0.85378   0.52016
 This molecule is an asymmetric top.
 Rotational symmetry number  1.
 Warning -- assumption of classical behavior for rotation
           may cause significant error
 Rotational temperatures (Kelvin)      0.09356     0.05171     0.04422
 Rotational constants (GHZ):           1.94941     1.07748     0.92148
 Zero-point vibrational energy     131025.6 (Joules/Mol)
                                   31.31588 (Kcal/Mol)
 Warning -- explicit consideration of  14 degrees of freedom as
           vibrations may cause significant error
 Vibrational temperatures:     55.11   116.19   183.92   279.04   345.51
          (Kelvin)            370.43   500.96   540.56   560.69   566.12
                              601.79   736.00   782.36   880.36   957.34
                             1051.12  1186.87  1334.92  1623.13  1770.20
                             1793.30  1846.75  1850.90  2014.49  2105.00
                             2183.49  5280.98

 Zero-point correction=                           0.049905 (Hartree/Particle)
 Thermal correction to Energy=                    0.059227
 Thermal correction to Enthalpy=                  0.060171
 Thermal correction to Gibbs Free Energy=         0.014344
 Sum of electronic and zero-point Energies=           -764.415701
 Sum of electronic and thermal Energies=              -764.406379
 Sum of electronic and thermal Enthalpies=            -764.405435
 Sum of electronic and thermal Free Energies=         -764.451262

                     E (Thermal)             CV                S
                      KCal/Mol        Cal/Mol-Kelvin    Cal/Mol-Kelvin
 Total                   37.166             32.034             96.451
 Electronic               0.000              0.000              0.000
 Translational            0.889              2.981             41.192
 Rotational               0.889              2.981             29.497
 Vibrational             35.388             26.073             25.762
 Vibration     1          0.594              1.982              5.345
 Vibration     2          0.600              1.962              3.872
 Vibration     3          0.611              1.925              2.978
 Vibration     4          0.635              1.848              2.190
 Vibration     5          0.657              1.779              1.802
 Vibration     6          0.667              1.750              1.679
 Vibration     7          0.726              1.579              1.174
 Vibration     8          0.747              1.522              1.056
 Vibration     9          0.758              1.492              1.001
 Vibration    10          0.761              1.484              0.987
 Vibration    11          0.781              1.431              0.898
 Vibration    12          0.867              1.224              0.630
 Vibration    13          0.899              1.153              0.557
 Vibration    14          0.971              1.007              0.430

 Optimization completed.
    -- Stationary point found.
 Normal termination of Gaussian 16 at Sat May 24 08:52:25 2025.
