 Gaussian 16, Revision C.01,
 Gaussian 16:  ES64L-G16RevC.01  3-Jul-2019

 -----------------------------------------------------------------
 #P M062X/Def2TZVPP Symm(None) scf(xqc) pop(None) freq opt(CalcFC)
 -----------------------------------------------------------------

 ------------------------------
 Gaussian input prepared by ASE
 ------------------------------
 Symbolic Z-matrix:
 Charge =  0 Multiplicity = 1

 SCF Done:  E(RM062X) =  -764.550547217     A.U. after   14 cycles
 SCF Done:  E(RM062X) =  -764.576304979     A.U. after   14 cycles
 SCF Done:  E(RM062X) =  -764.586663131     A.U. after   16 cycles
 SCF Done:  E(RM062X) =  -764.581208540     A.U. after   15 cycles
 SCF Done:  E(RM062X) =  -764.586304921     A.U. after   14 cycles
 SCF Done:  E(RM062X) =  -764.587787506     A.U. after   11 cycles
 SCF Done:  E(RM062X) =  -764.585455422     A.U. after   14 cycles
 SCF Done:  E(RM062X) =  -764.590330520     A.U. after   13 cycles
 SCF Done:  E(RM062X) =  -764.590726528     A.U. after   11 cycles
 SCF Done:  E(RM062X) =  -764.591194746     A.U. after   12 cycles
 SCF Done:  E(RM062X) =  -764.591601534     A.U. after   12 cycles
 SCF Done:  E(RM062X) =  -764.591794707     A.U. after   13 cycles
 SCF Done:  E(RM062X) =  -764.591945880     A.U. after   11 cycles
 SCF Done:  E(RM062X) =  -764.592006211     A.U. after   11 cycles
 SCF Done:  E(RM062X) =  -764.592022471     A.U. after   10 cycles
 SCF Done:  E(RM062X) =  -764.592023886     A.U. after    8 cycles
 SCF Done:  E(RM062X) =  -764.592024513     A.U. after    8 cycles
 Optimization completed.
    -- Stationary point found.
 Normal termination of Gaussian 16 at Sat May 24 05:04:00 2025.

 ---------------------------------------------------------------------
 #P Geom=AllCheck Guess=TCheck SCRF=Check GenChk RM062X/def2TZVPP Freq
 ---------------------------------------------------------------------

 Structure from the checkpoint file:  "/tmp/Gau-38700.chk"
 ------------------------------
 Gaussian input prepared by ASE
 ------------------------------
 Charge =  0 Multiplicity = 1

                          Input orientation:
 ---------------------------------------------------------------------
 Center     Atomic      Atomic             Coordinates (Angstroms)
 Number     Number       Type             X           Y           Z
 ---------------------------------------------------------------------
      1          6           0        0.349696   -0.369600   -0.554015
      2          8           0        1.608685   -0.042273   -0.232648
      3          6           0        1.883263    1.822427    1.328345
      4          6           0        2.159731    1.225551   -0.073745
      5          9           0        2.501088    2.990001    1.434260
      6          9           0        3.475216    1.061884   -0.179262
      7          9           0        1.771842    2.084340   -1.011017
      8          9           0        0.587389    2.005712    1.529057
      9          9           0        2.348089    1.000949    2.257218
     10          8           0       -0.365096    0.715844   -0.689661
     11          1           0       -1.260921    0.444009   -0.915566
 ---------------------------------------------------------------------

 SCF Done:  E(RM062X) =  -764.592024513     A.U. after    1 cycles

 Isotropic polarizability for W=    0.000000       46.35 Bohr**3.
 End of Minotr F.D. properties file   721 does not exist.

                      1                      2                      3
                      A                      A                      A
 Frequencies --     41.2838               106.6166               164.0085
 Red. masses --     14.3868                 8.7313                13.4785
 Frc consts  --      0.0144                 0.0585                 0.2136
 IR Inten    --      0.7045                 3.2621                 2.2822

                      4                      5                      6
                      A                      A                      A
 Frequencies --    218.9495               227.9685               264.8510
 Red. masses --     15.9895                10.0099                13.5486
 Frc consts  --      0.4516                 0.3065                 0.5600
 IR Inten    --      1.7056                 1.8214                 1.7402

                      7                      8                      9
                      A                      A                      A
 Frequencies --    344.2765               360.9005               401.4481
 Red. masses --     15.9126                15.2902                13.2351
 Frc consts  --      1.1112                 1.1734                 1.2567
 IR Inten    --      0.5668                 0.6025                 0.9283

                     10                     11                     12
                      A                      A                      A
 Frequencies --    469.4735               518.3267               596.8681
 Red. masses --     15.1985                14.1233                13.1040
 Frc consts  --      1.9737                 2.2356                 2.7505
 IR Inten    --      2.3015                 7.7946                 2.3219

                     13                     14                     15
                      A                      A                      A
 Frequencies --    603.9772               700.7208               727.2743
 Red. masses --     17.3930                 4.4944                 1.4109
 Frc consts  --      3.7382                 1.3002                 0.4397
 IR Inten    --      1.8207                87.0758                38.5209

                     16                     17                     18
                      A                      A                      A
 Frequencies --    787.5917               814.3496              1089.1396
 Red. masses --      8.4565                13.9325                 8.0039
 Frc consts  --      3.0906                 5.4438                 5.5940
 IR Inten    --     22.6986                 8.3960               232.9482

                     19                     20                     21
                      A                      A                      A
 Frequencies --   1119.7403              1200.5195              1276.7770
 Red. masses --      3.5921                 8.8996                10.1156
 Frc consts  --      2.6536                 7.5572                 9.7157
 IR Inten    --    306.0178               240.1038               143.2123

                     22                     23                     24
                      A                      A                      A
 Frequencies --   1291.2868              1294.0731              1350.0879
 Red. masses --     12.1791                13.0888                 7.1351
 Frc consts  --     11.9650                12.9142                 7.6626
 IR Inten    --    192.7174               206.2343               449.6982

                     25                     26                     27
                      A                      A                      A
 Frequencies --   1367.2692              1428.1027              3864.8879
 Red. masses --      2.2834                12.1824                 1.0666
 Frc consts  --      2.5150                14.6386                 9.3872
 IR Inten    --    203.3513                15.9194               204.4004

 - Thermochemistry -
 -------------------
 Temperature   298.150 Kelvin.  Pressure   1.00000 Atm.
 Atom     1 has atomic number  6 and mass  12.00000

 Molecular mass:   163.98967 amu.
 Principal axes and moments of inertia in atomic units:
                           1         2         3
     Eigenvalues --   920.347981437.512161646.89196
           X            0.58612   0.78466  -0.20195
           Y            0.49129  -0.14599   0.85867
           Z            0.64428  -0.60250  -0.47106
 This molecule is an asymmetric top.
 Rotational symmetry number  1.
 Warning -- assumption of classical behavior for rotation
           may cause significant error
 Rotational temperatures (Kelvin)      0.09411     0.06025     0.05259
 Rotational constants (GHZ):           1.96093     1.25546     1.09585
 Zero-point vibrational energy     135362.1 (Joules/Mol)
                                   32.35231 (Kcal/Mol)
 Warning -- explicit consideration of  13 degrees of freedom as
           vibrations may cause significant error
 Vibrational temperatures:     59.40   153.40   235.97   315.02   328.00
          (Kelvin)            381.06   495.34   519.26   577.59   675.47
                              745.76   858.76   868.99  1008.18  1046.39
                             1133.17  1171.67  1567.03  1611.06  1727.28
                             1837.00  1857.87  1861.88  1942.48  1967.20
                             2054.72  5560.71

 Zero-point correction=                           0.051557 (Hartree/Particle)
 Thermal correction to Energy=                    0.060399
 Thermal correction to Enthalpy=                  0.061343
 Thermal correction to Gibbs Free Energy=         0.016822
 Sum of electronic and zero-point Energies=           -764.540468
 Sum of electronic and thermal Energies=              -764.531625
 Sum of electronic and thermal Enthalpies=            -764.530681
 Sum of electronic and thermal Free Energies=         -764.575203

                     E (Thermal)             CV                S
                      KCal/Mol        Cal/Mol-Kelvin    Cal/Mol-Kelvin
 Total                   37.901             30.781             93.703
 Electronic               0.000              0.000              0.000
 Translational            0.889              2.981             41.192
 Rotational               0.889              2.981             29.167
 Vibrational             36.124             24.820             23.343
 Vibration     1          0.594              1.981              5.197
 Vibration     2          0.605              1.944              3.330
 Vibration     3          0.623              1.887              2.503
 Vibration     4          0.647              1.812              1.968
 Vibration     5          0.651              1.798              1.895
 Vibration     6          0.671              1.737              1.630
 Vibration     7          0.723              1.587              1.192
 Vibration     8          0.735              1.553              1.118
 Vibration     9          0.767              1.467              0.957
 Vibration    10          0.827              1.318              0.739
 Vibration    11          0.873              1.209              0.614
 Vibration    12          0.955              1.038              0.455
 Vibration    13          0.962              1.023              0.443

                           ! Non-Optimized Parameters !
 Normal termination of Gaussian 16 at Sat May 24 05:07:41 2025.
