 Gaussian 16, Revision C.01,
 Gaussian 16:  ES64L-G16RevC.01  3-Jul-2019

 ------------------------------------------
 #P am1 Symm(None) scf(xqc) pop(None) force
 ------------------------------------------

 ------------------------------
 Gaussian input prepared by ASE
 ------------------------------
 Symbolic Z-matrix:
 Charge =  0 Multiplicity = 1

                          Input orientation:
 ---------------------------------------------------------------------
 Center     Atomic      Atomic             Coordinates (Angstroms)
 Number     Number       Type             X           Y           Z
 ---------------------------------------------------------------------
      1          6           0        2.162844    1.092736   -0.097785
      2          8           0        1.141429    1.711169    0.271588
      3          6           0        1.987590   -0.340428   -0.046216
      4          6           0       -0.227740    0.475301    0.019796
      5          9           0       -0.593061   -0.768597   -0.155585
      6          9           0       -0.706522    0.903138    1.169899
      7          9           0       -0.566759    1.181837   -1.018592
      8          9           0        2.255620   -1.108110   -1.113894
      9          9           0        2.460189   -1.002886    1.036746
     10          8           0        3.262459    1.734575   -0.386305
     11          1           0        3.152376    2.691704   -0.293677
 ---------------------------------------------------------------------

 SCF Done:  E(RAM1) =   2.87258478429     A.U. after   17 cycles
 Normal termination of Gaussian 16 at Sat May 24 07:33:10 2025.
