 Gaussian 16, Revision C.01,
 Gaussian 16:  ES64L-G16RevC.01  3-Jul-2019

 ----------------------------------------------------------------------
 #P M062X/Def2TZVPP Symm(None) scf(xqc) pop(None) opt(NoFreeze,TS,CalcA
 ll,NoEigentest,MaxCycle=999)
 ----------------------------------------------------------------------

 ------------------------------
 Gaussian input prepared by ASE
 ------------------------------
 Symbolic Z-matrix:
 Charge =  0 Multiplicity = 1

 SCF Done:  E(RM062X) =  -764.428843327     A.U. after   22 cycles
 SCF Done:  E(RM062X) =  -764.446051479     A.U. after   20 cycles
 SCF Done:  E(RM062X) =  -764.453276485     A.U. after   19 cycles
 SCF Done:  E(RM062X) =  -764.453195604     A.U. after   20 cycles
 SCF Done:  E(RM062X) =  -764.453727974     A.U. after   18 cycles
 SCF Done:  E(RM062X) =  -764.453783395     A.U. after   17 cycles
 SCF Done:  E(RM062X) =  -764.453786126     A.U. after   15 cycles
 SCF Done:  E(RM062X) =  -764.453786131     A.U. after   10 cycles

 Isotropic polarizability for W=    0.000000       58.73 Bohr**3.
 End of Minotr F.D. properties file   721 does not exist.

 Optimization completed.
    -- Stationary point found.

                          Input orientation:
 ---------------------------------------------------------------------
 Center     Atomic      Atomic             Coordinates (Angstroms)
 Number     Number       Type             X           Y           Z
 ---------------------------------------------------------------------
      1          6           0        2.348864    1.183982    0.010353
      2          8           0        2.085650    1.807223    1.031769
      3          6           0        2.094599   -0.203005    0.039349
      4          6           0        1.694320   -0.965923    1.312140
      5          9           0        1.425608   -2.220008    0.973943
      6          9           0        2.730666   -0.966078    2.146208
      7          9           0        0.654451   -0.440850    1.904372
      8          9           0        0.261245    1.832832    0.259822
      9          9           0        2.299187   -0.933323   -0.989370
     10          8           0        2.739473    1.701115   -1.148268
     11          1           0        2.554872    2.650318   -1.122399
 ---------------------------------------------------------------------

 ******    1 imaginary frequencies (negative Signs) ******

                      1                      2                      3
                      A                      A                      A
 Frequencies --   -443.8270                22.7149                56.9118
 Red. masses --     15.7554                18.4884                 8.7648
 Frc consts  --      1.8285                 0.0056                 0.0167
 IR Inten    --    223.5802                 1.1751                13.7408

                      4                      5                      6
                      A                      A                      A
 Frequencies --     97.1200               164.8374               199.7370
 Red. masses --     17.3792                11.9136                 6.5912
 Frc consts  --      0.0966                 0.1907                 0.1549
 IR Inten    --      4.4021                 0.3908                10.3126

                      7                      8                      9
                      A                      A                      A
 Frequencies --    270.7512               305.0212               354.6382
 Red. masses --     11.3724                 9.2357                 1.7837
 Frc consts  --      0.4912                 0.5063                 0.1322
 IR Inten    --     45.2630                29.7688                53.9028

                     10                     11                     12
                      A                      A                      A
 Frequencies --    362.1565               383.9473               485.3633
 Red. masses --      7.5205                 8.3324                 7.6126
 Frc consts  --      0.5812                 0.7237                 1.0566
 IR Inten    --     10.7479                11.4984                59.2874

                     13                     14                     15
                      A                      A                      A
 Frequencies --    523.5482               574.5359               622.0090
 Red. masses --     13.3473                11.8145                13.9514
 Frc consts  --      2.1555                 2.2977                 3.1802
 IR Inten    --     11.0598                 9.7468                 5.7831

                     16                     17                     18
                      A                      A                      A
 Frequencies --    679.0719               748.1627               805.1034
 Red. masses --      6.1526                12.3803                11.6085
 Frc consts  --      1.6716                 4.0829                 4.4333
 IR Inten    --     87.8168                 1.1351                 3.1548

                     19                     20                     21
                      A                      A                      A
 Frequencies --   1084.4505              1203.2412              1253.2356
 Red. masses --     13.4267                 2.5247                 8.1527
 Frc consts  --      9.3033                 2.1536                 7.5443
 IR Inten    --    299.2076                73.3287               248.0744

                     22                     23                     24
                      A                      A                      A
 Frequencies --   1312.9673              1324.9645              1445.6647
 Red. masses --      3.0755                 9.7459                12.5601
 Frc consts  --      3.1237                10.0805                15.4660
 IR Inten    --    128.6424               167.3186               444.0347

                     25                     26                     27
                      A                      A                      A
 Frequencies --   1547.5309              1676.7141              3815.3650
 Red. masses --      7.3101                13.0781                 1.0647
 Frc consts  --     10.3146                21.6628                 9.1318
 IR Inten    --    303.2864               272.4933               164.4898

 - Thermochemistry -
 -------------------
 Temperature   298.150 Kelvin.  Pressure   1.00000 Atm.
 Atom     1 has atomic number  6 and mass  12.00000

 Molecular mass:   163.98967 amu.
 Principal axes and moments of inertia in atomic units:
                           1         2         3
     Eigenvalues --   944.833461663.908281984.90732
           X            0.04027  -0.54519   0.83734
           Y            0.88192   0.41330   0.22669
           Z           -0.46967   0.72934   0.49746
 This molecule is an asymmetric top.
 Rotational symmetry number  1.
 Warning -- assumption of classical behavior for rotation
           may cause significant error
 Rotational temperatures (Kelvin)      0.09167     0.05205     0.04364
 Rotational constants (GHZ):           1.91012     1.08464     0.90923
    1 imaginary frequencies ignored.
 Zero-point vibrational energy     127520.5 (Joules/Mol)
                                   30.47813 (Kcal/Mol)
 Warning -- explicit consideration of  13 degrees of freedom as
           vibrations may cause significant error
 Vibrational temperatures:     32.68    81.88   139.73   237.16   287.38
          (Kelvin)            389.55   438.86   510.25   521.06   552.41
                              698.33   753.27   826.63   894.93   977.03
                             1076.44  1158.36  1560.28  1731.20  1803.13
                             1889.07  1906.33  2079.99  2226.55  2412.42
                             5489.46

 Zero-point correction=                           0.048570 (Hartree/Particle)
 Thermal correction to Energy=                    0.058085
 Thermal correction to Enthalpy=                  0.059029
 Thermal correction to Gibbs Free Energy=         0.011859
 Sum of electronic and zero-point Energies=           -764.405216
 Sum of electronic and thermal Energies=              -764.395701
 Sum of electronic and thermal Enthalpies=            -764.394757
 Sum of electronic and thermal Free Energies=         -764.441927

                     E (Thermal)             CV                S
                      KCal/Mol        Cal/Mol-Kelvin    Cal/Mol-Kelvin
 Total                   36.449             31.555             99.279
 Electronic               0.000              0.000              0.000
 Translational            0.889              2.981             41.192
 Rotational               0.889              2.981             29.524
 Vibrational             34.672             25.594             28.562
 Vibration     1          0.593              1.985              6.381
 Vibration     2          0.596              1.975              4.562
 Vibration     3          0.603              1.951              3.511
 Vibration     4          0.623              1.886              2.494
 Vibration     5          0.638              1.840              2.136
 Vibration     6          0.674              1.727              1.591
 Vibration     7          0.696              1.664              1.389
 Vibration     8          0.730              1.566              1.146
 Vibration     9          0.736              1.550              1.113
 Vibration    10          0.753              1.504              1.024
 Vibration    11          0.841              1.283              0.696
 Vibration    12          0.879              1.198              0.602
 Vibration    13          0.931              1.086              0.496

 Normal termination of Gaussian 16 at Sat May 24 08:05:07 2025.
