 Gaussian 16, Revision C.01,
 Gaussian 16:  ES64L-G16RevC.01  3-Jul-2019

 -----------------------------------------------------------------
 #P M062X/Def2TZVPP Symm(None) scf(xqc) pop(None) freq opt(CalcFC)
 -----------------------------------------------------------------

 ------------------------------
 Gaussian input prepared by ASE
 ------------------------------
 Symbolic Z-matrix:
 Charge =  0 Multiplicity = 1

 SCF Done:  E(RM062X) =  -764.564374363     A.U. after   14 cycles
 SCF Done:  E(RM062X) =  -764.596858009     A.U. after   15 cycles
 SCF Done:  E(RM062X) =  -764.598487921     A.U. after   14 cycles
 SCF Done:  E(RM062X) =  -764.600052117     A.U. after   13 cycles
 SCF Done:  E(RM062X) =  -764.600261304     A.U. after   13 cycles
 SCF Done:  E(RM062X) =  -764.599857338     A.U. after   13 cycles
 SCF Done:  E(RM062X) =  -764.600199989     A.U. after   12 cycles
 SCF Done:  E(RM062X) =  -764.600428821     A.U. after    8 cycles
 SCF Done:  E(RM062X) =  -764.600529147     A.U. after   11 cycles
 SCF Done:  E(RM062X) =  -764.600530969     A.U. after    8 cycles
 SCF Done:  E(RM062X) =  -764.600531422     A.U. after    7 cycles
 Optimization completed.
    -- Stationary point found.
 Normal termination of Gaussian 16 at Sat May 24 05:09:21 2025.

 ---------------------------------------------------------------------
 #P Geom=AllCheck Guess=TCheck SCRF=Check GenChk RM062X/def2TZVPP Freq
 ---------------------------------------------------------------------

 Structure from the checkpoint file:  "/tmp/Gau-47495.chk"
 ------------------------------
 Gaussian input prepared by ASE
 ------------------------------
 Charge =  0 Multiplicity = 1

                          Input orientation:
 ---------------------------------------------------------------------
 Center     Atomic      Atomic             Coordinates (Angstroms)
 Number     Number       Type             X           Y           Z
 ---------------------------------------------------------------------
      1          6           0        0.079966   -0.221327    0.129752
      2          8           0        1.301945    0.025636   -0.369186
      3          6           0        1.366785    2.379740   -0.960939
      4          6           0        1.875463    1.238755   -0.047976
      5          9           0        2.004011    3.502615   -0.662683
      6          9           0        1.668866    1.573808    1.219273
      7          9           0        3.181979    1.102081   -0.248792
      8          9           0        1.600887    2.074381   -2.229288
      9          9           0        0.067131    2.564923   -0.795644
     10          8           0       -0.212742   -1.399680   -0.341374
     11          1           0       -1.086538   -1.632555   -0.010616
 ---------------------------------------------------------------------

 SCF Done:  E(RM062X) =  -764.600531422     A.U. after    1 cycles

 Isotropic polarizability for W=    0.000000       46.52 Bohr**3.
 End of Minotr F.D. properties file   721 does not exist.

                      1                      2                      3
                      A                      A                      A
 Frequencies --     46.6740                93.3721               128.6527
 Red. masses --     14.0748                 8.4851                13.4769
 Frc consts  --      0.0181                 0.0436                 0.1314
 IR Inten    --      0.2864                 1.4142                 0.9565

                      4                      5                      6
                      A                      A                      A
 Frequencies --    212.8177               227.2013               247.1879
 Red. masses --     12.1687                13.6816                14.7829
 Frc consts  --      0.3247                 0.4161                 0.5322
 IR Inten    --      0.2030                 3.3139                 2.9075

                      7                      8                      9
                      A                      A                      A
 Frequencies --    354.0723               375.7418               393.1186
 Red. masses --     16.6453                15.6892                15.3926
 Frc consts  --      1.2295                 1.3051                 1.4016
 IR Inten    --      0.0939                 0.4807                 0.2424

                     10                     11                     12
                      A                      A                      A
 Frequencies --    446.6384               532.8576               559.0962
 Red. masses --     13.3514                13.0651                16.4500
 Frc consts  --      1.5692                 2.1857                 3.0296
 IR Inten    --      0.6177                 5.4664                 7.8852

                     13                     14                     15
                      A                      A                      A
 Frequencies --    625.8852               686.0475               737.0772
 Red. masses --     14.6029                15.7510                 1.1407
 Frc consts  --      3.3704                 4.3678                 0.3651
 IR Inten    --      4.4395                12.9577                92.4092

                     16                     17                     18
                      A                      A                      A
 Frequencies --    759.3735               865.4656              1110.0389
 Red. masses --     13.0726                 9.7022                 3.8258
 Frc consts  --      4.4414                 4.2817                 2.7775
 IR Inten    --     61.1796                74.9087               134.2638

                     19                     20                     21
                      A                      A                      A
 Frequencies --   1160.1506              1236.2932              1287.0178
 Red. masses --      9.3730                 6.3581                 8.9698
 Frc consts  --      7.4329                 5.7256                 8.7539
 IR Inten    --    468.6868               369.9486               145.0347

                     22                     23                     24
                      A                      A                      A
 Frequencies --   1295.5473              1297.4763              1365.1604
 Red. masses --     11.4155                10.9598                 2.5399
 Frc consts  --     11.2889                10.8706                 2.7889
 IR Inten    --    277.2520               430.4580                76.5826

                     25                     26                     27
                      A                      A                      A
 Frequencies --   1409.8436              1439.3964              3871.0627
 Red. masses --      6.5089                12.3987                 1.0665
 Frc consts  --      7.6225                15.1352                 9.4160
 IR Inten    --    195.8982                 3.6829               205.4824

 - Thermochemistry -
 -------------------
 Temperature   298.150 Kelvin.  Pressure   1.00000 Atm.
 Atom     1 has atomic number  6 and mass  12.00000

 Molecular mass:   163.98967 amu.
 Principal axes and moments of inertia in atomic units:
                           1         2         3
     Eigenvalues --   875.549901702.463091915.50447
           X            0.39608   0.77168  -0.49762
           Y            0.89518  -0.20389   0.39632
           Z           -0.20437   0.60244   0.77156
 This molecule is an asymmetric top.
 Rotational symmetry number  1.
 Warning -- assumption of classical behavior for rotation
           may cause significant error
 Rotational temperatures (Kelvin)      0.09893     0.05088     0.04522
 Rotational constants (GHZ):           2.06127     1.06008     0.94218
 Zero-point vibrational energy     136154.6 (Joules/Mol)
                                   32.54172 (Kcal/Mol)
 Warning -- explicit consideration of  12 degrees of freedom as
           vibrations may cause significant error
 Vibrational temperatures:     67.15   134.34   185.10   306.20   326.89
          (Kelvin)            355.65   509.43   540.61   565.61   642.61
                              766.66   804.41   900.51   987.07  1060.49
                             1092.57  1245.21  1597.10  1669.20  1778.75
                             1851.73  1864.00  1866.78  1964.16  2028.45
                             2070.97  5569.60

 Zero-point correction=                           0.051859 (Hartree/Particle)
 Thermal correction to Energy=                    0.060801
 Thermal correction to Enthalpy=                  0.061745
 Thermal correction to Gibbs Free Energy=         0.016801
 Sum of electronic and zero-point Energies=           -764.548673
 Sum of electronic and thermal Energies=              -764.539731
 Sum of electronic and thermal Enthalpies=            -764.538787
 Sum of electronic and thermal Free Energies=         -764.583730

                     E (Thermal)             CV                S
                      KCal/Mol        Cal/Mol-Kelvin    Cal/Mol-Kelvin
 Total                   38.153             30.763             94.592
 Electronic               0.000              0.000              0.000
 Translational            0.889              2.981             41.192
 Rotational               0.889              2.981             29.436
 Vibrational             36.376             24.801             23.964
 Vibration     1          0.595              1.979              4.954
 Vibration     2          0.602              1.954              3.588
 Vibration     3          0.611              1.925              2.966
 Vibration     4          0.644              1.821              2.019
 Vibration     5          0.651              1.800              1.901
 Vibration     6          0.661              1.767              1.751
 Vibration     7          0.730              1.567              1.148
 Vibration     8          0.747              1.522              1.056
 Vibration     9          0.760              1.485              0.988
 Vibration    10          0.806              1.368              0.806
 Vibration    11          0.888              1.177              0.581
 Vibration    12          0.915              1.120              0.526

                           ! Non-Optimized Parameters !
 Normal termination of Gaussian 16 at Sat May 24 05:12:41 2025.
