 Gaussian 16, Revision C.01,
 Gaussian 16:  ES64L-G16RevC.01  3-Jul-2019

 -----------------------------------------------------------------
 #P M062X/Def2TZVPP Symm(None) scf(xqc) pop(None) freq opt(CalcFC)
 -----------------------------------------------------------------

 ------------------------------
 Gaussian input prepared by ASE
 ------------------------------
 Symbolic Z-matrix:
 Charge =  0 Multiplicity = 1

 SCF Done:  E(RM062X) =  -764.270850071     A.U. after   18 cycles
 SCF Done:  E(RM062X) =  -764.351538532     A.U. after   17 cycles
 SCF Done:  E(RM062X) =  -764.417850815     A.U. after   15 cycles
 SCF Done:  E(RM062X) =  -764.419319644     A.U. after   17 cycles
 SCF Done:  E(RM062X) =  -764.432573895     A.U. after   15 cycles
 SCF Done:  E(RM062X) =  -764.435404261     A.U. after   15 cycles
 SCF Done:  E(RM062X) =  -764.434832960     A.U. after   15 cycles
 SCF Done:  E(RM062X) =  -764.447325973     A.U. after   13 cycles
 SCF Done:  E(RM062X) =  -764.451814331     A.U. after   15 cycles
 SCF Done:  E(RM062X) =  -764.453446889     A.U. after   14 cycles
 SCF Done:  E(RM062X) =  -764.463272762     A.U. after   11 cycles
 SCF Done:  E(RM062X) =  -764.463273590     A.U. after    9 cycles
 SCF Done:  E(RM062X) =  -764.463277196     A.U. after   10 cycles
 SCF Done:  E(RM062X) =  -764.463280901     A.U. after   10 cycles
 SCF Done:  E(RM062X) =  -764.463283143     A.U. after   10 cycles
 SCF Done:  E(RM062X) =  -764.463285782     A.U. after   10 cycles
 SCF Done:  E(RM062X) =  -764.463286729     A.U. after    9 cycles
 SCF Done:  E(RM062X) =  -764.463286927     A.U. after    8 cycles
 SCF Done:  E(RM062X) =  -764.463287077     A.U. after    8 cycles
 Optimization completed.
    -- Stationary point found.
 Normal termination of Gaussian 16 at Sat May 24 09:03:54 2025.

 ---------------------------------------------------------------------
 #P Geom=AllCheck Guess=TCheck SCRF=Check GenChk RM062X/def2TZVPP Freq
 ---------------------------------------------------------------------

 Structure from the checkpoint file:  "/tmp/Gau-227467.chk"
 ------------------------------
 Gaussian input prepared by ASE
 ------------------------------
 Charge =  0 Multiplicity = 1

                          Input orientation:
 ---------------------------------------------------------------------
 Center     Atomic      Atomic             Coordinates (Angstroms)
 Number     Number       Type             X           Y           Z
 ---------------------------------------------------------------------
      1          6           0        0.499482    2.003722   -0.257707
      2          8           0        1.034725   -0.318408   -0.766512
      3          6           0       -0.909139    1.730152   -0.792153
      4          6           0       -1.819011    1.152625    0.321062
      5          9           0       -3.033615    0.958941   -0.165377
      6          9           0       -1.344196    0.004854    0.774150
      7          9           0       -1.887975    2.014815    1.328216
      8          9           0       -1.437487    2.904987   -1.166689
      9          9           0       -0.932435    0.917154   -1.850227
     10          8           0        1.362130    1.168971   -0.217059
     11          1           0        1.842091   -0.734249   -0.437997
 ---------------------------------------------------------------------

 SCF Done:  E(RM062X) =  -764.463287077     A.U. after    1 cycles

 Isotropic polarizability for W=    0.000000       53.97 Bohr**3.
 End of Minotr F.D. properties file   721 does not exist.

                      1                      2                      3
                      A                      A                      A
 Frequencies --     37.5579                96.8673               147.1228
 Red. masses --     15.5624                 8.2422                 2.3286
 Frc consts  --      0.0129                 0.0456                 0.0297
 IR Inten    --      0.1841                 0.9412                48.9283

                      4                      5                      6
                      A                      A                      A
 Frequencies --    169.8126               209.3793               216.0128
 Red. masses --      2.2076                 6.4864                14.6354
 Frc consts  --      0.0375                 0.1675                 0.4024
 IR Inten    --     55.8661                27.2977                 1.0844

                      7                      8                      9
                      A                      A                      A
 Frequencies --    264.5307               287.3887               364.7463
 Red. masses --     15.6281                16.0244                17.6678
 Frc consts  --      0.6443                 0.7798                 1.3849
 IR Inten    --     79.2966                21.7398                 2.6624

                     10                     11                     12
                      A                      A                      A
 Frequencies --    390.9804               460.6215               473.3734
 Red. masses --     16.6003                 9.3483                14.7840
 Frc consts  --      1.4951                 1.1686                 1.9519
 IR Inten    --    175.5427                87.8028                11.2526

                     13                     14                     15
                      A                      A                      A
 Frequencies --    515.5782               565.0964               599.0002
 Red. masses --     13.7590                15.3659                17.2062
 Frc consts  --      2.1549                 2.8910                 3.6374
 IR Inten    --      3.9992                 4.7169                 5.7929

                     16                     17                     18
                      A                      A                      A
 Frequencies --    689.1579               736.9221               803.8398
 Red. masses --     14.9774                10.3745                15.1278
 Frc consts  --      4.1911                 3.3194                 5.7592
 IR Inten    --     10.0090                33.8179                 4.4066

                     19                     20                     21
                      A                      A                      A
 Frequencies --   1046.2901              1191.9848              1212.0499
 Red. masses --     13.0634                 1.1991                10.6888
 Frc consts  --      8.4258                 1.0038                 9.2517
 IR Inten    --    112.2187                81.4290               219.6430

                     22                     23                     24
                      A                      A                      A
 Frequencies --   1250.8462              1286.9091              1301.0645
 Red. masses --     12.8215                13.0822                13.0786
 Frc consts  --     11.8194                12.7651                13.0439
 IR Inten    --    184.9836               233.3779               201.6467

                     25                     26                     27
                      A                      A                      A
 Frequencies --   1365.5325              1701.9778              3847.5460
 Red. masses --     12.5580                12.2953                 1.0683
 Frc consts  --     13.7967                20.9845                 9.3179
 IR Inten    --    131.2038               153.5993               133.1417

 - Thermochemistry -
 -------------------
 Temperature   298.150 Kelvin.  Pressure   1.00000 Atm.
 Atom     1 has atomic number  6 and mass  12.00000

 Molecular mass:   163.98967 amu.
 Principal axes and moments of inertia in atomic units:
                           1         2         3
     Eigenvalues --   942.629321543.896311728.27623
           X            0.93170   0.02250   0.36253
           Y           -0.25836   0.74260   0.61790
           Z           -0.25531  -0.66936   0.69769
 This molecule is an asymmetric top.
 Rotational symmetry number  1.
 Warning -- assumption of classical behavior for rotation
           may cause significant error
 Rotational temperatures (Kelvin)      0.09189     0.05610     0.05012
 Rotational constants (GHZ):           1.91458     1.16895     1.04424
 Zero-point vibrational energy     126996.7 (Joules/Mol)
                                   30.35294 (Kcal/Mol)
 Warning -- explicit consideration of  15 degrees of freedom as
           vibrations may cause significant error
 Vibrational temperatures:     54.04   139.37   211.68   244.32   301.25
          (Kelvin)            310.79   380.60   413.49   524.79   562.53
                              662.73   681.08   741.80   813.05   861.83
                              991.54  1060.27  1156.55  1505.38  1715.00
                             1743.87  1799.69  1851.58  1871.94  1964.70
                             2448.77  5535.76

 Zero-point correction=                           0.048370 (Hartree/Particle)
 Thermal correction to Energy=                    0.058169
 Thermal correction to Enthalpy=                  0.059113
 Thermal correction to Gibbs Free Energy=         0.012573
 Sum of electronic and zero-point Energies=           -764.414917
 Sum of electronic and thermal Energies=              -764.405119
 Sum of electronic and thermal Enthalpies=            -764.404174
 Sum of electronic and thermal Free Energies=         -764.450714

                     E (Thermal)             CV                S
                      KCal/Mol        Cal/Mol-Kelvin    Cal/Mol-Kelvin
 Total                   36.501             33.418             97.951
 Electronic               0.000              0.000              0.000
 Translational            0.889              2.981             41.192
 Rotational               0.889              2.981             29.310
 Vibrational             34.724             27.456             27.449
 Vibration     1          0.594              1.982              5.384
 Vibration     2          0.603              1.951              3.516
 Vibration     3          0.617              1.906              2.709
 Vibration     4          0.625              1.880              2.438
 Vibration     5          0.642              1.826              2.049
 Vibration     6          0.645              1.817              1.992
 Vibration     7          0.671              1.738              1.632
 Vibration     8          0.685              1.697              1.489
 Vibration     9          0.738              1.545              1.102
 Vibration    10          0.759              1.489              0.996
 Vibration    11          0.818              1.337              0.764
 Vibration    12          0.830              1.309              0.728
 Vibration    13          0.871              1.215              0.620
 Vibration    14          0.921              1.107              0.514
 Vibration    15          0.957              1.034              0.451

 Optimization completed.
    -- Stationary point found.
 Normal termination of Gaussian 16 at Sat May 24 09:06:31 2025.
