 Gaussian 16, Revision C.01,
 Gaussian 16:  ES64L-G16RevC.01  3-Jul-2019

 -----------------------------------------------------------------
 #P M062X/Def2TZVPP Symm(None) scf(xqc) pop(None) freq opt(CalcFC)
 -----------------------------------------------------------------

 ------------------------------
 Gaussian input prepared by ASE
 ------------------------------
 Symbolic Z-matrix:
 Charge =  0 Multiplicity = 1

 SCF Done:  E(RM062X) =  -764.388252829     A.U. after   19 cycles
 SCF Done:  E(RM062X) =  -764.432506515     A.U. after   16 cycles
 SCF Done:  E(RM062X) =  -764.435320633     A.U. after   17 cycles
 SCF Done:  E(RM062X) =  -764.443095056     A.U. after   17 cycles
 SCF Done:  E(RM062X) =  -764.420323203     A.U. after   16 cycles
 SCF Done:  E(RM062X) =  -764.451177955     A.U. after   15 cycles
 SCF Done:  E(RM062X) =  -764.454266217     A.U. after   14 cycles
 SCF Done:  E(RM062X) =  -764.455287085     A.U. after   14 cycles
 SCF Done:  E(RM062X) =  -764.456285599     A.U. after   14 cycles
 SCF Done:  E(RM062X) =  -764.457145366     A.U. after   15 cycles
 SCF Done:  E(RM062X) =  -764.464432122     A.U. after   14 cycles
 SCF Done:  E(RM062X) =  -764.464525680     A.U. after   12 cycles
 SCF Done:  E(RM062X) =  -764.464628764     A.U. after   13 cycles
 SCF Done:  E(RM062X) =  -764.464692316     A.U. after   12 cycles
 SCF Done:  E(RM062X) =  -764.464775389     A.U. after   13 cycles
 SCF Done:  E(RM062X) =  -764.464841159     A.U. after   12 cycles
 SCF Done:  E(RM062X) =  -764.464871243     A.U. after   12 cycles
 SCF Done:  E(RM062X) =  -764.464874816     A.U. after   10 cycles
 SCF Done:  E(RM062X) =  -764.464875580     A.U. after    9 cycles
 Optimization completed.
    -- Stationary point found.
 Normal termination of Gaussian 16 at Sat May 24 09:04:19 2025.

 ---------------------------------------------------------------------
 #P Geom=AllCheck Guess=TCheck SCRF=Check GenChk RM062X/def2TZVPP Freq
 ---------------------------------------------------------------------

 Structure from the checkpoint file:  "/tmp/Gau-78617.chk"
 ------------------------------
 Gaussian input prepared by ASE
 ------------------------------
 Charge =  0 Multiplicity = 1

                          Input orientation:
 ---------------------------------------------------------------------
 Center     Atomic      Atomic             Coordinates (Angstroms)
 Number     Number       Type             X           Y           Z
 ---------------------------------------------------------------------
      1          6           0        0.398550    2.169244   -0.422007
      2          8           0        0.726357   -0.196775   -0.151855
      3          6           0       -1.044343    1.746413   -0.756445
      4          6           0       -1.902500    2.984774   -1.074424
      5          9           0       -3.142123    2.614162   -1.360322
      6          9           0       -1.927608    3.798671   -0.028045
      7          9           0       -1.396248    3.631236   -2.115394
      8          9           0       -1.055658    0.952342   -1.832302
      9          9           0       -1.597027    1.122287    0.289010
     10          8           0        1.212389    1.319791   -0.148296
     11          1           0        1.570500   -0.598936    0.089723
 ---------------------------------------------------------------------

 SCF Done:  E(RM062X) =  -764.464875580     A.U. after    1 cycles

 Isotropic polarizability for W=    0.000000       53.46 Bohr**3.
 End of Minotr F.D. properties file   721 does not exist.

                      1                      2                      3
                      A                      A                      A
 Frequencies --     59.7823                81.8120               127.7304
 Red. masses --     13.6746                11.9037                 1.1571
 Frc consts  --      0.0288                 0.0469                 0.0111
 IR Inten    --      8.2435                 6.7452                95.1482

                      4                      5                      6
                      A                      A                      A
 Frequencies --    138.4409               220.5822               226.5241
 Red. masses --     11.6004                 9.5902                10.3155
 Frc consts  --      0.1310                 0.2749                 0.3119
 IR Inten    --      0.8318                18.5921                21.4661

                      7                      8                      9
                      A                      A                      A
 Frequencies --    249.6640               293.7234               372.0215
 Red. masses --     17.8109                17.8468                17.8748
 Frc consts  --      0.6541                 0.9072                 1.4576
 IR Inten    --      0.6216                38.6706                44.7266

                     10                     11                     12
                      A                      A                      A
 Frequencies --    402.4631               421.4573               468.8595
 Red. masses --     16.0997                16.7740                 9.3428
 Frc consts  --      1.5365                 1.7555                 1.2101
 IR Inten    --    232.7174                 3.1893                83.1159

                     13                     14                     15
                      A                      A                      A
 Frequencies --    554.4465               560.7045               605.5742
 Red. masses --     13.2979                14.2685                15.0211
 Frc consts  --      2.4085                 2.6430                 3.2455
 IR Inten    --      3.2357                 0.5508                 0.1735

                     16                     17                     18
                      A                      A                      A
 Frequencies --    626.9638               767.0983               824.6103
 Red. masses --     15.7503                13.4770                12.1732
 Frc consts  --      3.6477                 4.6724                 4.8770
 IR Inten    --      0.1842                39.8094                 5.9243

                     19                     20                     21
                      A                      A                      A
 Frequencies --   1071.3414              1215.3734              1228.1397
 Red. masses --     11.9441                 1.3076                 6.7712
 Frc consts  --      8.0772                 1.1380                 6.0174
 IR Inten    --    202.6657               200.3820                86.8546

                     22                     23                     24
                      A                      A                      A
 Frequencies --   1242.6642              1293.0048              1294.1730
 Red. masses --     13.1789                12.7326                12.8002
 Frc consts  --     11.9905                12.5420                12.6314
 IR Inten    --    125.7684               258.3679               269.0655

                     25                     26                     27
                      A                      A                      A
 Frequencies --   1422.6845              1665.7044              3847.3942
 Red. masses --     12.4113                11.9443                 1.0684
 Frc consts  --     14.8008                19.5256                 9.3181
 IR Inten    --     33.9271               121.2525               145.0622

 - Thermochemistry -
 -------------------
 Temperature   298.150 Kelvin.  Pressure   1.00000 Atm.
 Atom     1 has atomic number  6 and mass  12.00000

 Molecular mass:   163.98967 amu.
 Principal axes and moments of inertia in atomic units:
                           1         2         3
     Eigenvalues --   721.288391912.881661990.37066
           X            0.71036   0.65949  -0.24588
           Y           -0.66390   0.74384   0.07706
           Z            0.23372   0.10850   0.96623
 This molecule is an asymmetric top.
 Rotational symmetry number  1.
 Warning -- assumption of classical behavior for rotation
           may cause significant error
 Rotational temperatures (Kelvin)      0.12008     0.04528     0.04352
 Rotational constants (GHZ):           2.50211     0.94347     0.90674
 Zero-point vibrational energy     127300.2 (Joules/Mol)
                                   30.42549 (Kcal/Mol)
 Warning -- explicit consideration of  15 degrees of freedom as
           vibrations may cause significant error
 Vibrational temperatures:     86.01   117.71   183.78   199.19   317.37
          (Kelvin)            325.92   359.21   422.60   535.26   579.05
                              606.38   674.58   797.72   806.73   871.29
                              902.06  1103.68  1186.43  1541.42  1748.65
                             1767.02  1787.92  1860.35  1862.03  2046.93
                             2396.58  5535.54

 Zero-point correction=                           0.048486 (Hartree/Particle)
 Thermal correction to Energy=                    0.058333
 Thermal correction to Enthalpy=                  0.059278
 Thermal correction to Gibbs Free Energy=         0.012719
 Sum of electronic and zero-point Energies=           -764.416389
 Sum of electronic and thermal Energies=              -764.406542
 Sum of electronic and thermal Enthalpies=            -764.405598
 Sum of electronic and thermal Free Energies=         -764.452157

                     E (Thermal)             CV                S
                      KCal/Mol        Cal/Mol-Kelvin    Cal/Mol-Kelvin
 Total                   36.605             33.400             97.991
 Electronic               0.000              0.000              0.000
 Translational            0.889              2.981             41.192
 Rotational               0.889              2.981             29.397
 Vibrational             34.827             27.439             27.401
 Vibration     1          0.597              1.973              4.464
 Vibration     2          0.600              1.962              3.847
 Vibration     3          0.611              1.925              2.980
 Vibration     4          0.614              1.915              2.825
 Vibration     5          0.647              1.810              1.954
 Vibration     6          0.650              1.801              1.906
 Vibration     7          0.662              1.763              1.733
 Vibration     8          0.689              1.685              1.452
 Vibration     9          0.744              1.530              1.071
 Vibration    10          0.768              1.465              0.954
 Vibration    11          0.784              1.424              0.887
 Vibration    12          0.826              1.319              0.741
 Vibration    13          0.910              1.130              0.535
 Vibration    14          0.916              1.116              0.522
 Vibration    15          0.964              1.020              0.440

                           ! Non-Optimized Parameters !
 Normal termination of Gaussian 16 at Sat May 24 09:07:17 2025.
