 Gaussian 16, Revision C.01,
 Gaussian 16:  ES64L-G16RevC.01  3-Jul-2019

 -----------------------------------------------------------------
 #P M062X/Def2TZVPP Symm(None) scf(xqc) pop(None) freq opt(CalcFC)
 -----------------------------------------------------------------

 ------------------------------
 Gaussian input prepared by ASE
 ------------------------------
 Symbolic Z-matrix:
 Charge =  0 Multiplicity = 1

 SCF Done:  E(RM062X) =  -764.455603659     A.U. after   15 cycles
 SCF Done:  E(RM062X) =  -764.462626192     A.U. after   16 cycles
 SCF Done:  E(RM062X) =  -764.463064901     A.U. after   15 cycles
 SCF Done:  E(RM062X) =  -764.463365153     A.U. after   15 cycles
 SCF Done:  E(RM062X) =  -764.463461865     A.U. after   13 cycles
 SCF Done:  E(RM062X) =  -764.463477549     A.U. after   12 cycles
 SCF Done:  E(RM062X) =  -764.463479414     A.U. after   10 cycles
 SCF Done:  E(RM062X) =  -764.463479739     A.U. after    9 cycles
 SCF Done:  E(RM062X) =  -764.463479812     A.U. after    9 cycles
 Optimization completed.
    -- Stationary point found.
 Normal termination of Gaussian 16 at Sat May 24 08:50:03 2025.

 ---------------------------------------------------------------------
 #P Geom=AllCheck Guess=TCheck SCRF=Check GenChk RM062X/def2TZVPP Freq
 ---------------------------------------------------------------------

 Structure from the checkpoint file:  "/tmp/Gau-110688.chk"
 ------------------------------
 Gaussian input prepared by ASE
 ------------------------------
 Charge =  0 Multiplicity = 1

                          Input orientation:
 ---------------------------------------------------------------------
 Center     Atomic      Atomic             Coordinates (Angstroms)
 Number     Number       Type             X           Y           Z
 ---------------------------------------------------------------------
      1          6           0        2.470759    1.754357    0.046068
      2          8           0        1.049151    0.045810   -0.127442
      3          6           0        2.527602    3.289151    0.118299
      4          6           0        3.235910    3.840373   -1.137308
      5          9           0        3.242677    5.164192   -1.112724
      6          9           0        4.483108    3.406975   -1.204456
      7          9           0        2.577901    3.434265   -2.221730
      8          9           0        1.337866    3.916254    0.211675
      9          9           0        3.250312    3.620330    1.198979
     10          8           0        1.257426    1.470491   -0.050902
     11          1           0        0.083685    0.028210   -0.199733
 ---------------------------------------------------------------------

 SCF Done:  E(RM062X) =  -764.463479812     A.U. after    1 cycles

 Isotropic polarizability for W=    0.000000       50.68 Bohr**3.
 End of Minotr F.D. properties file   721 does not exist.

                      1                      2                      3
                      A                      A                      A
 Frequencies --     32.5134                59.0934               160.2283
 Red. masses --      6.4495                16.3400                 3.2307
 Frc consts  --      0.0040                 0.0336                 0.0489
 IR Inten    --     11.6351                 0.9316                61.1595

                      4                      5                      6
                      A                      A                      A
 Frequencies --    192.4194               211.3910               243.6049
 Red. masses --      2.6500                 7.6759                 4.5990
 Frc consts  --      0.0578                 0.2021                 0.1608
 IR Inten    --     49.4858                 6.9717                 9.1640

                      7                      8                      9
                      A                      A                      A
 Frequencies --    263.1459               343.2349               357.9540
 Red. masses --      8.6177                14.9079                17.1674
 Frc consts  --      0.3516                 1.0348                 1.2960
 IR Inten    --      2.5689                 0.1274                 0.1280

                     10                     11                     12
                      A                      A                      A
 Frequencies --    383.8202               426.0069               502.8404
 Red. masses --     15.1478                12.8876                13.6207
 Frc consts  --      1.3148                 1.3780                 2.0291
 IR Inten    --      0.1285                 0.0331                 3.4480

                     13                     14                     15
                      A                      A                      A
 Frequencies --    547.4732               609.5321               647.1043
 Red. masses --     17.6501                16.5575                16.0706
 Frc consts  --      3.1169                 3.6244                 3.9649
 IR Inten    --      8.7170                 0.4849                 8.0707

                     16                     17                     18
                      A                      A                      A
 Frequencies --    735.3773               816.3607               938.7017
 Red. masses --     14.6183                15.8864                10.5779
 Frc consts  --      4.6577                 6.2379                 5.4917
 IR Inten    --    103.6292                34.9176                38.4833

                     19                     20                     21
                      A                      A                      A
 Frequencies --   1063.7296              1209.9457              1246.8481
 Red. masses --     12.6035                11.2692                13.2287
 Frc consts  --      8.4024                 9.7202                12.1169
 IR Inten    --    116.8693               158.1550               205.4382

                     22                     23                     24
                      A                      A                      A
 Frequencies --   1278.1159              1301.6910              1383.3084
 Red. masses --     12.5035                12.9891                 6.2749
 Frc consts  --     12.0344                12.9671                 7.0744
 IR Inten    --    177.4017               247.1267                67.4682

                     25                     26                     27
                      A                      A                      A
 Frequencies --   1398.1394              1519.0332              3803.7060
 Red. masses --      1.9205                 3.0128                 1.0677
 Frc consts  --      2.2119                 4.0960                 9.1017
 IR Inten    --    130.1522                15.2434               114.5189

 - Thermochemistry -
 -------------------
 Temperature   298.150 Kelvin.  Pressure   1.00000 Atm.
 Atom     1 has atomic number  6 and mass  12.00000

 Molecular mass:   163.98967 amu.
 Principal axes and moments of inertia in atomic units:
                           1         2         3
     Eigenvalues --   835.004161922.314982098.30532
           X            0.52788  -0.15050   0.83588
           Y            0.81151   0.37974  -0.44412
           Z           -0.25058   0.91277   0.32259
 This molecule is an asymmetric top.
 Rotational symmetry number  1.
 Warning -- assumption of classical behavior for rotation
           may cause significant error
 Rotational temperatures (Kelvin)      0.10373     0.04506     0.04128
 Rotational constants (GHZ):           2.16136     0.93884     0.86009
 Zero-point vibrational energy     129647.2 (Joules/Mol)
                                   30.98642 (Kcal/Mol)
 Warning -- explicit consideration of  14 degrees of freedom as
           vibrations may cause significant error
 Vibrational temperatures:     46.78    85.02   230.53   276.85   304.14
          (Kelvin)            350.49   378.61   493.84   515.02   552.23
                              612.93   723.48   787.69   876.98   931.04
                             1058.04  1174.56  1350.58  1530.47  1740.84
                             1793.94  1838.92  1872.84  1990.27  2011.61
                             2185.55  5472.68

 Zero-point correction=                           0.049380 (Hartree/Particle)
 Thermal correction to Energy=                    0.058963
 Thermal correction to Enthalpy=                  0.059907
 Thermal correction to Gibbs Free Energy=         0.013242
 Sum of electronic and zero-point Energies=           -764.414100
 Sum of electronic and thermal Energies=              -764.404517
 Sum of electronic and thermal Enthalpies=            -764.403572
 Sum of electronic and thermal Free Energies=         -764.450238

                     E (Thermal)             CV                S
                      KCal/Mol        Cal/Mol-Kelvin    Cal/Mol-Kelvin
 Total                   37.000             32.516             98.215
 Electronic               0.000              0.000              0.000
 Translational            0.889              2.981             41.192
 Rotational               0.889              2.981             29.600
 Vibrational             35.223             26.555             27.423
 Vibration     1          0.594              1.983              5.670
 Vibration     2          0.596              1.974              4.487
 Vibration     3          0.622              1.891              2.547
 Vibration     4          0.634              1.850              2.204
 Vibration     5          0.643              1.823              2.032
 Vibration     6          0.659              1.773              1.776
 Vibration     7          0.670              1.740              1.641
 Vibration     8          0.722              1.589              1.197
 Vibration     9          0.733              1.559              1.131
 Vibration    10          0.753              1.505              1.024
 Vibration    11          0.788              1.414              0.872
 Vibration    12          0.858              1.244              0.651
 Vibration    13          0.903              1.145              0.549
 Vibration    14          0.968              1.012              0.434

 Optimization completed.
    -- Stationary point found.
 Normal termination of Gaussian 16 at Sat May 24 08:53:19 2025.
