 Gaussian 16, Revision C.01,
 Gaussian 16:  ES64L-G16RevC.01  3-Jul-2019

 ----------------------------------------------------------------------
 #P M062X/Def2TZVPP Symm(None) scf(xqc) pop(None) opt(NoFreeze,TS,CalcA
 ll,NoEigentest,MaxCycle=999)
 ----------------------------------------------------------------------

 ------------------------------
 Gaussian input prepared by ASE
 ------------------------------
 Symbolic Z-matrix:
 Charge =  0 Multiplicity = 1

 SCF Done:  E(RM062X) =  -764.495085107     A.U. after   20 cycles
 SCF Done:  E(RM062X) =  -764.504371790     A.U. after   15 cycles
 SCF Done:  E(RM062X) =  -764.512691471     A.U. after   15 cycles
 SCF Done:  E(RM062X) =  -764.517998174     A.U. after   15 cycles
 SCF Done:  E(RM062X) =  -764.520187918     A.U. after   14 cycles
 SCF Done:  E(RM062X) =  -764.520620905     A.U. after   13 cycles
 SCF Done:  E(RM062X) =  -764.520633752     A.U. after   11 cycles

 Isotropic polarizability for W=    0.000000       49.38 Bohr**3.
 End of Minotr F.D. properties file   721 does not exist.

 Optimization completed.
    -- Stationary point found.

                          Input orientation:
 ---------------------------------------------------------------------
 Center     Atomic      Atomic             Coordinates (Angstroms)
 Number     Number       Type             X           Y           Z
 ---------------------------------------------------------------------
      1          6           0        1.432728    0.123009    0.031373
      2          8           0        1.929653   -0.644651    0.855309
      3          6           0       -0.096887    0.015929   -0.012957
      4          6           0       -1.129861    1.169102   -0.023389
      5          9           0       -2.358551    0.690626   -0.114718
      6          9           0       -0.995720    1.820060    1.118192
      7          9           0       -0.887390    1.960686   -1.041374
      8          9           0        1.466671   -0.300400   -1.402930
      9          9           0       -0.611846   -1.118667    0.051001
     10          8           0        1.759789    1.459482   -0.004971
     11          1           0        2.507517    1.555902    0.595573
 ---------------------------------------------------------------------

 ******    1 imaginary frequencies (negative Signs) ******

                      1                      2                      3
                      A                      A                      A
 Frequencies --   -315.3195                48.2995                89.2043
 Red. masses --     13.2149                15.4649                14.9235
 Frc consts  --      0.7741                 0.0213                 0.0700
 IR Inten    --      5.6396                 0.0910                 2.8714

                      4                      5                      6
                      A                      A                      A
 Frequencies --    143.9331               193.8864               232.2588
 Red. masses --     10.8111                16.2854                11.9162
 Frc consts  --      0.1320                 0.3607                 0.3787
 IR Inten    --      2.9569                 2.6273                 4.2805

                      7                      8                      9
                      A                      A                      A
 Frequencies --    278.6452               314.7020               371.6918
 Red. masses --     12.7152                 2.4450                 2.6767
 Frc consts  --      0.5817                 0.1427                 0.2179
 IR Inten    --     10.3236                30.8511                25.2332

                     10                     11                     12
                      A                      A                      A
 Frequencies --    448.4311               480.2013               497.4446
 Red. masses --      5.1935                14.8851                 7.9524
 Frc consts  --      0.6153                 2.0223                 1.1594
 IR Inten    --     11.6565                10.1557                14.8355

                     13                     14                     15
                      A                      A                      A
 Frequencies --    529.7178               595.5912               659.3587
 Red. masses --     16.0395                10.9841                 7.4481
 Frc consts  --      2.6517                 2.2957                 1.9078
 IR Inten    --     15.7344                36.7101                73.6531

                     16                     17                     18
                      A                      A                      A
 Frequencies --    756.0435               776.6583               814.9414
 Red. masses --     14.8433                13.0612                 9.5593
 Frc consts  --      4.9989                 4.6419                 3.7405
 IR Inten    --    110.9528                50.9556                98.2789

                     19                     20                     21
                      A                      A                      A
 Frequencies --   1018.1087              1089.6692              1277.7585
 Red. masses --     12.5805                 4.7603                 8.5353
 Frc consts  --      7.6831                 3.3302                 8.2104
 IR Inten    --    133.4416               218.0763               269.5524

                     22                     23                     24
                      A                      A                      A
 Frequencies --   1298.6091              1312.1041              1341.1791
 Red. masses --      2.9137                11.5540                 3.3477
 Frc consts  --      2.8950                11.7198                 3.5479
 IR Inten    --     54.6704               238.9120               160.0988

                     25                     26                     27
                      A                      A                      A
 Frequencies --   1545.9027              1568.6349              3859.0040
 Red. masses --     10.8570                11.5844                 1.0653
 Frc consts  --     15.2870                16.7945                 9.3469
 IR Inten    --    390.1552               100.2404               123.4819

 - Thermochemistry -
 -------------------
 Temperature   298.150 Kelvin.  Pressure   1.00000 Atm.
 Atom     1 has atomic number  6 and mass  12.00000

 Molecular mass:   163.98967 amu.
 Principal axes and moments of inertia in atomic units:
                           1         2         3
     Eigenvalues --   860.164681681.521421878.56980
           X            0.92076   0.38850   0.03560
           Y           -0.38848   0.92142  -0.00753
           Z           -0.03573  -0.00690   0.99934
 This molecule is an asymmetric top.
 Rotational symmetry number  1.
 Warning -- assumption of classical behavior for rotation
           may cause significant error
 Rotational temperatures (Kelvin)      0.10069     0.05151     0.04611
 Rotational constants (GHZ):           2.09813     1.07328     0.96070
    1 imaginary frequencies ignored.
 Zero-point vibrational energy     128849.6 (Joules/Mol)
                                   30.79581 (Kcal/Mol)
 Warning -- explicit consideration of  13 degrees of freedom as
           vibrations may cause significant error
 Vibrational temperatures:     69.49   128.35   207.09   278.96   334.17
          (Kelvin)            400.91   452.79   534.78   645.19   690.90
                              715.71   762.15   856.92   948.67  1087.78
                             1117.44  1172.52  1464.83  1567.79  1838.41
                             1868.41  1887.83  1929.66  2224.21  2256.92
                             5552.25

 Zero-point correction=                           0.049076 (Hartree/Particle)
 Thermal correction to Energy=                    0.058016
 Thermal correction to Enthalpy=                  0.058960
 Thermal correction to Gibbs Free Energy=         0.014098
 Sum of electronic and zero-point Energies=           -764.471558
 Sum of electronic and thermal Energies=              -764.462618
 Sum of electronic and thermal Enthalpies=            -764.461674
 Sum of electronic and thermal Free Energies=         -764.506536

                     E (Thermal)             CV                S
                      KCal/Mol        Cal/Mol-Kelvin    Cal/Mol-Kelvin
 Total                   36.405             30.774             94.421
 Electronic               0.000              0.000              0.000
 Translational            0.889              2.981             41.192
 Rotational               0.889              2.981             29.387
 Vibrational             34.628             24.812             23.842
 Vibration     1          0.595              1.978              4.886
 Vibration     2          0.602              1.957              3.677
 Vibration     3          0.616              1.909              2.751
 Vibration     4          0.635              1.848              2.190
 Vibration     5          0.653              1.792              1.861
 Vibration     6          0.679              1.713              1.542
 Vibration     7          0.702              1.646              1.337
 Vibration     8          0.743              1.530              1.073
 Vibration     9          0.807              1.364              0.801
 Vibration    10          0.837              1.294              0.710
 Vibration    11          0.853              1.256              0.665
 Vibration    12          0.885              1.184              0.588
 Vibration    13          0.953              1.041              0.457

 Normal termination of Gaussian 16 at Sat May 24 05:40:51 2025.
