 Gaussian 16, Revision C.01,
 Gaussian 16:  ES64L-G16RevC.01  3-Jul-2019

 -----------------------------------------------------------------
 #P M062X/Def2TZVPP Symm(None) scf(xqc) pop(None) freq opt(CalcFC)
 -----------------------------------------------------------------

 ------------------------------
 Gaussian input prepared by ASE
 ------------------------------
 Symbolic Z-matrix:
 Charge =  0 Multiplicity = 1

 SCF Done:  E(RM062X) =  -764.440017352     A.U. after   13 cycles
 SCF Done:  E(RM062X) =  -764.516845322     A.U. after   13 cycles
 SCF Done:  E(RM062X) =  -764.579321929     A.U. after   14 cycles
 SCF Done:  E(RM062X) =  -764.599967060     A.U. after   12 cycles
 SCF Done:  E(RM062X) =  -764.608920571     A.U. after   14 cycles
 SCF Done:  E(RM062X) =  -764.612117675     A.U. after   13 cycles
 SCF Done:  E(RM062X) =  -764.615384694     A.U. after   14 cycles
 SCF Done:  E(RM062X) =  -764.614380409     A.U. after   14 cycles
 SCF Done:  E(RM062X) =  -764.613829805     A.U. after   12 cycles
 SCF Done:  E(RM062X) =  -764.615211685     A.U. after   12 cycles
 SCF Done:  E(RM062X) =  -764.622921293     A.U. after   10 cycles
 SCF Done:  E(RM062X) =  -764.622929444     A.U. after    8 cycles
 SCF Done:  E(RM062X) =  -764.622931304     A.U. after    7 cycles
 SCF Done:  E(RM062X) =  -764.622932755     A.U. after    7 cycles
 SCF Done:  E(RM062X) =  -764.622935851     A.U. after   10 cycles
 SCF Done:  E(RM062X) =  -764.622937475     A.U. after    8 cycles
 SCF Done:  E(RM062X) =  -764.622939152     A.U. after    8 cycles
 SCF Done:  E(RM062X) =  -764.622939299     A.U. after    8 cycles
 SCF Done:  E(RM062X) =  -764.622939330     A.U. after    7 cycles
 Optimization completed.
    -- Stationary point found.
 Normal termination of Gaussian 16 at Sat May 24 08:02:37 2025.

 ---------------------------------------------------------------------
 #P Geom=AllCheck Guess=TCheck SCRF=Check GenChk RM062X/def2TZVPP Freq
 ---------------------------------------------------------------------

 Structure from the checkpoint file:  "/tmp/Gau-217208.chk"
 ------------------------------
 Gaussian input prepared by ASE
 ------------------------------
 Charge =  0 Multiplicity = 1

                          Input orientation:
 ---------------------------------------------------------------------
 Center     Atomic      Atomic             Coordinates (Angstroms)
 Number     Number       Type             X           Y           Z
 ---------------------------------------------------------------------
      1          6           0        1.602275   -0.400804    0.198874
      2          8           0        0.340740   -0.484851   -0.350511
      3          6           0        2.432264   -1.422665    0.083649
      4          6           0       -0.667764   -0.836768    0.497769
      5          9           0       -0.804406    0.028072    1.495593
      6          9           0       -1.782115   -0.860088   -0.204154
      7          9           0       -0.463876   -2.036105    1.028903
      8          9           0        3.674980   -1.398724    0.492524
      9          9           0        2.105208   -2.579098   -0.435547
     10          8           0        1.937081    0.740680    0.830126
     11          1           0        1.854861    1.487062    0.225463
 ---------------------------------------------------------------------

 SCF Done:  E(RM062X) =  -764.622939330     A.U. after    1 cycles

 Isotropic polarizability for W=    0.000000       46.03 Bohr**3.
 End of Minotr F.D. properties file   721 does not exist.

                      1                      2                      3
                      A                      A                      A
 Frequencies --     25.6724                75.9944               123.5427
 Red. masses --     14.0861                14.3273                18.0280
 Frc consts  --      0.0055                 0.0488                 0.1621
 IR Inten    --      0.5445                 0.6549                 0.5097

                      4                      5                      6
                      A                      A                      A
 Frequencies --    195.4401               214.4103               235.9563
 Red. masses --      2.7006                14.4020                 1.5509
 Frc consts  --      0.0608                 0.3901                 0.0509
 IR Inten    --     38.7385                 2.2394               112.9704

                      7                      8                      9
                      A                      A                      A
 Frequencies --    352.1075               372.3079               434.8134
 Red. masses --     11.9739                17.4723                 8.4023
 Frc consts  --      0.8747                 1.4269                 0.9359
 IR Inten    --     11.0679                 0.6120                14.4017

                     10                     11                     12
                      A                      A                      A
 Frequencies --    470.8196               547.8342               562.9069
 Red. masses --     17.1840                16.3877                12.9248
 Frc consts  --      2.2443                 2.8978                 2.4129
 IR Inten    --      0.5061                 3.4095                 5.7935

                     13                     14                     15
                      A                      A                      A
 Frequencies --    622.6302               646.5048               654.7191
 Red. masses --     10.5434                15.8341                15.9324
 Frc consts  --      2.4082                 3.8993                 4.0238
 IR Inten    --      7.4714                17.8581                 7.7910

                     16                     17                     18
                      A                      A                      A
 Frequencies --    728.7695               847.8304               942.2678
 Red. masses --     12.1925                16.1319                13.9010
 Frc consts  --      3.8152                 6.8321                 7.2718
 IR Inten    --      5.9243                 4.8224                23.7445

                     19                     20                     21
                      A                      A                      A
 Frequencies --   1173.4720              1239.6212              1264.8369
 Red. masses --      3.8169                 6.6830                11.7692
 Frc consts  --      3.0968                 6.0506                11.0934
 IR Inten    --    233.0259               587.8269               320.2187

                     22                     23                     24
                      A                      A                      A
 Frequencies --   1306.0723              1336.7702              1346.8698
 Red. masses --      1.9749                12.8283                 8.6150
 Frc consts  --      1.9849                13.5062                 9.2078
 IR Inten    --    100.3822               399.2745               230.7354

                     25                     26                     27
                      A                      A                      A
 Frequencies --   1395.5924              1921.9082              3830.1544
 Red. masses --     12.7315                11.0485                 1.0659
 Frc consts  --     14.6099                24.0447                 9.2129
 IR Inten    --    218.3106                37.5609                98.4837

 - Thermochemistry -
 -------------------
 Temperature   298.150 Kelvin.  Pressure   1.00000 Atm.
 Atom     1 has atomic number  6 and mass  12.00000

 Molecular mass:   163.98967 amu.
 Principal axes and moments of inertia in atomic units:
                           1         2         3
     Eigenvalues --   752.710701952.932282344.26480
           X            0.98481   0.17071   0.03168
           Y           -0.15169   0.93475  -0.32130
           Z           -0.08446   0.31162   0.94645
 This molecule is an asymmetric top.
 Rotational symmetry number  1.
 Warning -- assumption of classical behavior for rotation
           may cause significant error
 Rotational temperatures (Kelvin)      0.11507     0.04435     0.03695
 Rotational constants (GHZ):           2.39766     0.92412     0.76985
 Zero-point vibrational energy     136791.9 (Joules/Mol)
                                   32.69406 (Kcal/Mol)
 Warning -- explicit consideration of  12 degrees of freedom as
           vibrations may cause significant error
 Vibrational temperatures:     36.94   109.34   177.75   281.19   308.49
          (Kelvin)            339.49   506.60   535.67   625.60   677.40
                              788.21   809.90   895.83   930.18   941.99
                             1048.54  1219.84  1355.71  1688.36  1783.54
                             1819.82  1879.15  1923.31  1937.85  2007.95
                             2765.20  5510.74

 Zero-point correction=                           0.052101 (Hartree/Particle)
 Thermal correction to Energy=                    0.061212
 Thermal correction to Enthalpy=                  0.062156
 Thermal correction to Gibbs Free Energy=         0.016164
 Sum of electronic and zero-point Energies=           -764.570838
 Sum of electronic and thermal Energies=              -764.561727
 Sum of electronic and thermal Enthalpies=            -764.560783
 Sum of electronic and thermal Free Energies=         -764.606775

                     E (Thermal)             CV                S
                      KCal/Mol        Cal/Mol-Kelvin    Cal/Mol-Kelvin
 Total                   38.411             31.085             96.798
 Electronic               0.000              0.000              0.000
 Translational            0.889              2.981             41.192
 Rotational               0.889              2.981             29.623
 Vibrational             36.634             25.123             25.983
 Vibration     1          0.593              1.985              6.139
 Vibration     2          0.599              1.965              3.992
 Vibration     3          0.610              1.929              3.044
 Vibration     4          0.636              1.846              2.176
 Vibration     5          0.644              1.819              2.006
 Vibration     6          0.655              1.786              1.833
 Vibration     7          0.729              1.571              1.157
 Vibration     8          0.744              1.529              1.070
 Vibration     9          0.795              1.394              0.843
 Vibration    10          0.828              1.315              0.735
 Vibration    11          0.903              1.144              0.549
 Vibration    12          0.919              1.112              0.518

 Optimization completed.
    -- Stationary point found.
 Normal termination of Gaussian 16 at Sat May 24 08:05:59 2025.
