 Gaussian 16, Revision C.01,
 Gaussian 16:  ES64L-G16RevC.01  3-Jul-2019

 ----------------------------------------------------------------------
 #P M062X/Def2TZVPP Symm(None) scf(xqc) pop(None) opt(NoFreeze,TS,CalcA
 ll,NoEigentest,MaxCycle=999)
 ----------------------------------------------------------------------

 ------------------------------
 Gaussian input prepared by ASE
 ------------------------------
 Symbolic Z-matrix:
 Charge =  0 Multiplicity = 1

 SCF Done:  E(RM062X) =  -764.469996393     A.U. after   17 cycles
 SCF Done:  E(RM062X) =  -764.468627413     A.U. after   18 cycles
 SCF Done:  E(RM062X) =  -764.475861284     A.U. after   17 cycles
 SCF Done:  E(RM062X) =  -764.483683303     A.U. after   18 cycles
 SCF Done:  E(RM062X) =  -764.485973349     A.U. after   18 cycles
 SCF Done:  E(RM062X) =  -764.486295843     A.U. after   16 cycles
 SCF Done:  E(RM062X) =  -764.486334336     A.U. after   12 cycles
 SCF Done:  E(RM062X) =  -764.486334511     A.U. after   10 cycles

 Isotropic polarizability for W=    0.000000       55.81 Bohr**3.
 End of Minotr F.D. properties file   721 does not exist.

 Optimization completed.
    -- Stationary point found.

                          Input orientation:
 ---------------------------------------------------------------------
 Center     Atomic      Atomic             Coordinates (Angstroms)
 Number     Number       Type             X           Y           Z
 ---------------------------------------------------------------------
      1          6           0        2.177422    1.054969   -0.030947
      2          8           0        1.211560    1.654034    0.489058
      3          6           0        1.942457   -0.338273   -0.332319
      4          6           0       -0.212914    0.511778    0.125721
      5          9           0       -0.490921   -0.744140    0.363521
      6          9           0       -0.939626    1.201548    0.980403
      7          9           0       -0.498130    0.883829   -1.087575
      8          9           0        2.830247   -0.876722   -1.182555
      9          9           0        1.922618   -1.108020    0.782117
     10          8           0        3.258077    1.687802   -0.399854
     11          1           0        3.127637    2.643635   -0.321595
 ---------------------------------------------------------------------

 ******    1 imaginary frequencies (negative Signs) ******

                      1                      2                      3
                      A                      A                      A
 Frequencies --   -641.3834                48.5253               104.8084
 Red. masses --     11.2406                13.7705                12.5057
 Frc consts  --      2.7244                 0.0191                 0.0809
 IR Inten    --    137.7796                 3.7314                 2.7356

                      4                      5                      6
                      A                      A                      A
 Frequencies --    170.8072               218.0665               246.5761
 Red. masses --     15.4777                17.5510                 9.7042
 Frc consts  --      0.2661                 0.4917                 0.3476
 IR Inten    --     22.2458                 4.0895                 7.0166

                      7                      8                      9
                      A                      A                      A
 Frequencies --    296.4922               326.6507               355.0943
 Red. masses --     10.5774                13.1553                15.6005
 Frc consts  --      0.5478                 0.8270                 1.1590
 IR Inten    --      2.9371                12.0920                17.1954

                     10                     11                     12
                      A                      A                      A
 Frequencies --    435.8951               524.5230               581.8500
 Red. masses --      8.8626                14.2630                 2.7555
 Frc consts  --      0.9921                 2.3120                 0.5496
 IR Inten    --     16.6602                 6.4672                56.9695

                     13                     14                     15
                      A                      A                      A
 Frequencies --    590.9864               617.1829               661.3239
 Red. masses --     12.4589                10.8074                 2.0518
 Frc consts  --      2.5638                 2.4255                 0.5287
 IR Inten    --      5.8017                89.0954               124.3465

                     16                     17                     18
                      A                      A                      A
 Frequencies --    732.0955               767.7964               830.2386
 Red. masses --     13.8499                10.6922                 5.5465
 Frc consts  --      4.3735                 3.7137                 2.2526
 IR Inten    --    239.4335                29.8521                95.9385

                     19                     20                     21
                      A                      A                      A
 Frequencies --    969.2786              1145.3012              1182.3223
 Red. masses --     15.5290                 9.2980                10.1553
 Frc consts  --      8.5959                 7.1859                 8.3640
 IR Inten    --    651.8827               108.0802               207.8001

                     22                     23                     24
                      A                      A                      A
 Frequencies --   1244.7010              1258.7386              1352.6181
 Red. masses --      2.9073                 3.4228                11.9770
 Frc consts  --      2.6538                 3.1952                12.9107
 IR Inten    --    344.4357               222.5578               349.3431

                     25                     26                     27
                      A                      A                      A
 Frequencies --   1525.8982              1606.7402              3793.1949
 Red. masses --      4.7527                12.5863                 1.0651
 Frc consts  --      6.5200                19.1443                 9.0296
 IR Inten    --    153.5857               199.2660               147.3230

 - Thermochemistry -
 -------------------
 Temperature   298.150 Kelvin.  Pressure   1.00000 Atm.
 Atom     1 has atomic number  6 and mass  12.00000

 Molecular mass:   163.98967 amu.
 Principal axes and moments of inertia in atomic units:
                           1         2         3
     Eigenvalues --   915.503671643.399692015.58155
           X            0.96896   0.13428   0.20757
           Y           -0.13492   0.99079  -0.01113
           Z           -0.20716  -0.01722   0.97816
 This molecule is an asymmetric top.
 Rotational symmetry number  1.
 Warning -- assumption of classical behavior for rotation
           may cause significant error
 Rotational temperatures (Kelvin)      0.09461     0.05270     0.04297
 Rotational constants (GHZ):           1.97131     1.09818     0.89539
    1 imaginary frequencies ignored.
 Zero-point vibrational energy     129123.2 (Joules/Mol)
                                   30.86117 (Kcal/Mol)
 Warning -- explicit consideration of  13 degrees of freedom as
           vibrations may cause significant error
 Vibrational temperatures:     69.82   150.80   245.75   313.75   354.77
          (Kelvin)            426.59   469.98   510.90   627.16   754.67
                              837.15   850.30   887.99   951.50  1053.32
                             1104.69  1194.53  1394.58  1647.83  1701.10
                             1790.85  1811.04  1946.12  2195.43  2311.74
                             5457.56

 Zero-point correction=                           0.049180 (Hartree/Particle)
 Thermal correction to Energy=                    0.057857
 Thermal correction to Enthalpy=                  0.058802
 Thermal correction to Gibbs Free Energy=         0.014566
 Sum of electronic and zero-point Energies=           -764.437154
 Sum of electronic and thermal Energies=              -764.428477
 Sum of electronic and thermal Enthalpies=            -764.427533
 Sum of electronic and thermal Free Energies=         -764.471769

                     E (Thermal)             CV                S
                      KCal/Mol        Cal/Mol-Kelvin    Cal/Mol-Kelvin
 Total                   36.306             30.362             93.102
 Electronic               0.000              0.000              0.000
 Translational            0.889              2.981             41.192
 Rotational               0.889              2.981             29.496
 Vibrational             34.529             24.401             22.414
 Vibration     1          0.595              1.978              4.877
 Vibration     2          0.605              1.945              3.363
 Vibration     3          0.626              1.878              2.427
 Vibration     4          0.646              1.814              1.975
 Vibration     5          0.661              1.768              1.755
 Vibration     6          0.690              1.680              1.437
 Vibration     7          0.710              1.622              1.277
 Vibration     8          0.731              1.565              1.144
 Vibration     9          0.796              1.392              0.840
 Vibration    10          0.879              1.196              0.600
 Vibration    11          0.939              1.071              0.482
 Vibration    12          0.948              1.051              0.465
 Vibration    13          0.977              0.996              0.421

 Normal termination of Gaussian 16 at Sat May 24 08:05:03 2025.
