 Gaussian 16, Revision C.01,
 Gaussian 16:  ES64L-G16RevC.01  3-Jul-2019

 ------------------------------------------
 #P am1 Symm(None) scf(xqc) pop(None) force
 ------------------------------------------

 ------------------------------
 Gaussian input prepared by ASE
 ------------------------------
 Symbolic Z-matrix:
 Charge =  0 Multiplicity = 1

                          Input orientation:
 ---------------------------------------------------------------------
 Center     Atomic      Atomic             Coordinates (Angstroms)
 Number     Number       Type             X           Y           Z
 ---------------------------------------------------------------------
      1          6           0        2.253257    1.057348   -0.218048
      2          8           0        1.595619    1.337245   -1.220657
      3          6           0        1.434551    0.000020    0.211294
      4          6           0        1.888672   -1.015377    1.259813
      5          9           0        2.876538   -1.796972    0.807397
      6          9           0        2.341188   -0.463614    2.354345
      7          9           0        0.928501   -1.844487    1.630573
      8          9           0        0.386323    2.336410   -0.139633
      9          9           0        0.266997   -0.185078   -0.290410
     10          8           0        3.373614    1.605270    0.260318
     11          1           0        3.543676    2.415519   -0.237072
 ---------------------------------------------------------------------

 SCF Done:  E(RAM1) =   3.06637061442     A.U. after   23 cycles
 Normal termination of Gaussian 16 at Sat May 24 07:32:16 2025.
