 Gaussian 16, Revision C.01,
 Gaussian 16:  ES64L-G16RevC.01  3-Jul-2019

 -----------------------------------------------------------------
 #P M062X/Def2TZVPP Symm(None) scf(xqc) pop(None) freq opt(CalcFC)
 -----------------------------------------------------------------

 ------------------------------
 Gaussian input prepared by ASE
 ------------------------------
 Symbolic Z-matrix:
 Charge =  0 Multiplicity = 1

 SCF Done:  E(RM062X) =  -764.404614743     A.U. after   18 cycles
 SCF Done:  E(RM062X) =  -764.436228242     A.U. after   16 cycles
 SCF Done:  E(RM062X) =  -764.417031648     A.U. after   17 cycles
 SCF Done:  E(RM062X) =  -764.454343138     A.U. after   17 cycles
 SCF Done:  E(RM062X) =  -764.442953663     A.U. after   19 cycles
 SCF Done:  E(RM062X) =  -764.458214239     A.U. after   16 cycles
 SCF Done:  E(RM062X) =  -764.460777638     A.U. after   15 cycles
 SCF Done:  E(RM062X) =  -764.461495164     A.U. after   14 cycles
 SCF Done:  E(RM062X) =  -764.462253777     A.U. after   14 cycles
 SCF Done:  E(RM062X) =  -764.462616917     A.U. after   14 cycles
 SCF Done:  E(RM062X) =  -764.463002632     A.U. after   14 cycles
 SCF Done:  E(RM062X) =  -764.463159854     A.U. after   13 cycles
 SCF Done:  E(RM062X) =  -764.463231694     A.U. after   13 cycles
 SCF Done:  E(RM062X) =  -764.463260851     A.U. after   12 cycles
 SCF Done:  E(RM062X) =  -764.463269578     A.U. after   11 cycles
 SCF Done:  E(RM062X) =  -764.463275285     A.U. after   10 cycles
 SCF Done:  E(RM062X) =  -764.463278020     A.U. after   10 cycles
 SCF Done:  E(RM062X) =  -764.463280782     A.U. after   10 cycles
 SCF Done:  E(RM062X) =  -764.463281285     A.U. after    9 cycles
 Optimization completed.
    -- Stationary point found.
 Normal termination of Gaussian 16 at Sat May 24 08:57:06 2025.

 ---------------------------------------------------------------------
 #P Geom=AllCheck Guess=TCheck SCRF=Check GenChk RM062X/def2TZVPP Freq
 ---------------------------------------------------------------------

 Structure from the checkpoint file:  "/tmp/Gau-96039.chk"
 ------------------------------
 Gaussian input prepared by ASE
 ------------------------------
 Charge =  0 Multiplicity = 1

                          Input orientation:
 ---------------------------------------------------------------------
 Center     Atomic      Atomic             Coordinates (Angstroms)
 Number     Number       Type             X           Y           Z
 ---------------------------------------------------------------------
      1          6           0        0.800431    2.011332   -1.174531
      2          8           0        0.803447   -0.140673   -0.031885
      3          6           0        1.555527    1.333204   -2.320934
      4          6           0        0.568636    0.671351   -3.315358
      5          9           0        1.251155    0.123142   -4.306767
      6          9           0       -0.153738   -0.260772   -2.717388
      7          9           0       -0.247641    1.594225   -3.809634
      8          9           0        2.216383    2.287480   -2.993626
      9          9           0        2.448746    0.428733   -1.914811
     10          8           0        0.449783    1.432389   -0.182472
     11          1           0        0.247116   -0.302511    0.740773
 ---------------------------------------------------------------------

 SCF Done:  E(RM062X) =  -764.463281285     A.U. after    1 cycles

 Isotropic polarizability for W=    0.000000       53.97 Bohr**3.
 End of Minotr F.D. properties file   721 does not exist.

                      1                      2                      3
                      A                      A                      A
 Frequencies --     40.3108                95.4026               155.3908
 Red. masses --     15.4056                 8.9881                 9.6840
 Frc consts  --      0.0147                 0.0482                 0.1378
 IR Inten    --      0.1541                 0.6734                 5.4942

                      4                      5                      6
                      A                      A                      A
 Frequencies --    190.3233               211.2718               217.5844
 Red. masses --      2.6667                 2.8389                 3.6063
 Frc consts  --      0.0569                 0.0747                 0.1006
 IR Inten    --     43.3473                50.4565                30.6353

                      7                      8                      9
                      A                      A                      A
 Frequencies --    263.7951               286.5783               364.2360
 Red. masses --     14.5529                15.6659                17.5811
 Frc consts  --      0.5967                 0.7580                 1.3742
 IR Inten    --     83.1291                21.2853                 2.5923

                     10                     11                     12
                      A                      A                      A
 Frequencies --    390.9932               460.3450               473.5897
 Red. masses --     16.6013                 9.3456                14.7904
 Frc consts  --      1.4953                 1.1669                 1.9545
 IR Inten    --    175.0391                88.1047                11.7036

                     13                     14                     15
                      A                      A                      A
 Frequencies --    515.2461               565.0812               599.1235
 Red. masses --     13.7585                15.3376                17.2121
 Frc consts  --      2.1520                 2.8856                 3.6401
 IR Inten    --      4.0927                 4.6889                 5.8942

                     16                     17                     18
                      A                      A                      A
 Frequencies --    688.9093               736.7982               803.7562
 Red. masses --     15.0239                10.3831                15.1145
 Frc consts  --      4.2010                 3.3210                 5.7530
 IR Inten    --     10.0153                33.6173                 4.4080

                     19                     20                     21
                      A                      A                      A
 Frequencies --   1047.0612              1192.0978              1211.5296
 Red. masses --     13.0458                 1.2007                10.5364
 Frc consts  --      8.4268                 1.0053                 9.1119
 IR Inten    --    111.9814                80.9520               218.9527

                     22                     23                     24
                      A                      A                      A
 Frequencies --   1250.7854              1287.3170              1302.4203
 Red. masses --     12.8271                13.0802                13.0780
 Frc consts  --     11.8235                12.7713                13.0705
 IR Inten    --    186.6735               233.3808               199.8929

                     25                     26                     27
                      A                      A                      A
 Frequencies --   1365.5302              1703.5745              3843.6524
 Red. masses --     12.5565                12.3122                 1.0683
 Frc consts  --     13.7950                21.0528                 9.2988
 IR Inten    --    132.6868               154.6348               133.8916

 - Thermochemistry -
 -------------------
 Temperature   298.150 Kelvin.  Pressure   1.00000 Atm.
 Atom     1 has atomic number  6 and mass  12.00000

 Molecular mass:   163.98967 amu.
 Principal axes and moments of inertia in atomic units:
                           1         2         3
     Eigenvalues --   942.801631543.935231728.25695
           X            0.01628   0.76422  -0.64474
           Y           -0.04095   0.64480   0.76325
           Z            0.99903   0.01397   0.04179
 This molecule is an asymmetric top.
 Rotational symmetry number  1.
 Warning -- assumption of classical behavior for rotation
           may cause significant error
 Rotational temperatures (Kelvin)      0.09187     0.05610     0.05012
 Rotational constants (GHZ):           1.91423     1.16892     1.04426
 Zero-point vibrational energy     127179.2 (Joules/Mol)
                                   30.39656 (Kcal/Mol)
 Warning -- explicit consideration of  15 degrees of freedom as
           vibrations may cause significant error
 Vibrational temperatures:     58.00   137.26   223.57   273.83   303.97
          (Kelvin)            313.06   379.54   412.32   524.05   562.55
                              662.33   681.39   741.32   813.03   862.01
                              991.19  1060.09  1156.43  1506.49  1715.16
                             1743.12  1799.60  1852.16  1873.89  1964.69
                             2451.06  5530.16

 Zero-point correction=                           0.048440 (Hartree/Particle)
 Thermal correction to Energy=                    0.058185
 Thermal correction to Enthalpy=                  0.059129
 Thermal correction to Gibbs Free Energy=         0.012800
 Sum of electronic and zero-point Energies=           -764.414841
 Sum of electronic and thermal Energies=              -764.405097
 Sum of electronic and thermal Enthalpies=            -764.404152
 Sum of electronic and thermal Free Energies=         -764.450481

                     E (Thermal)             CV                S
                      KCal/Mol        Cal/Mol-Kelvin    Cal/Mol-Kelvin
 Total                   36.511             33.381             97.507
 Electronic               0.000              0.000              0.000
 Translational            0.889              2.981             41.192
 Rotational               0.889              2.981             29.310
 Vibrational             34.734             27.420             27.005
 Vibration     1          0.594              1.981              5.244
 Vibration     2          0.603              1.952              3.546
 Vibration     3          0.620              1.897              2.605
 Vibration     4          0.634              1.853              2.225
 Vibration     5          0.643              1.824              2.033
 Vibration     6          0.646              1.814              1.979
 Vibration     7          0.670              1.739              1.637
 Vibration     8          0.684              1.699              1.494
 Vibration     9          0.738              1.546              1.104
 Vibration    10          0.759              1.489              0.996
 Vibration    11          0.818              1.338              0.765
 Vibration    12          0.830              1.309              0.728
 Vibration    13          0.870              1.216              0.621
 Vibration    14          0.921              1.107              0.514
 Vibration    15          0.957              1.034              0.451

 Optimization completed.
    -- Stationary point found.
 Normal termination of Gaussian 16 at Sat May 24 09:00:38 2025.
