 Gaussian 16, Revision C.01,
 Gaussian 16:  ES64L-G16RevC.01  3-Jul-2019

 ----------------------------------------------------------------------
 #P M062X/Def2TZVPP Symm(None) scf(xqc) pop(None) opt(NoFreeze,TS,CalcA
 ll,NoEigentest,MaxCycle=999)
 ----------------------------------------------------------------------

 ------------------------------
 Gaussian input prepared by ASE
 ------------------------------
 Symbolic Z-matrix:
 Charge =  0 Multiplicity = 1

 SCF Done:  E(RM062X) =  -764.364985629     A.U. after   22 cycles
 SCF Done:  E(RM062X) =  -764.378259759     A.U. after   21 cycles
 SCF Done:  E(RM062X) =  -764.380188107     A.U. after   17 cycles
 SCF Done:  E(RM062X) =  -764.380390020     A.U. after   17 cycles
 SCF Done:  E(RM062X) =  -764.380392646     A.U. after   13 cycles

 Isotropic polarizability for W=    0.000000       52.41 Bohr**3.
 End of Minotr F.D. properties file   721 does not exist.

 Optimization completed.
    -- Stationary point found.

                          Input orientation:
 ---------------------------------------------------------------------
 Center     Atomic      Atomic             Coordinates (Angstroms)
 Number     Number       Type             X           Y           Z
 ---------------------------------------------------------------------
      1          6           0        1.445448   -0.025703   -0.196674
      2          8           0        0.603089   -0.302144   -1.337120
      3          6           0        1.899175    1.426068   -0.087157
      4          6           0        1.130339    2.475727   -0.920426
      5          9           0        1.538004    3.702585   -0.643154
      6          9           0        1.268560    2.259923   -2.214499
      7          9           0       -0.179735    2.396651   -0.609207
      8          9           0        1.743073    1.784221    1.206325
      9          9           0        3.187394    1.526389   -0.426230
     10          8           0        0.137977   -0.200161    0.268883
     11          1           0       -0.370621    0.636592    0.403912
 ---------------------------------------------------------------------

 ******    1 imaginary frequencies (negative Signs) ******

                      1                      2                      3
                      A                      A                      A
 Frequencies --  -1501.2871                72.8748                91.4606
 Red. masses --      7.2145                 8.5090                17.4698
 Frc consts  --      9.5805                 0.0266                 0.0861
 IR Inten    --   1388.1500                 6.8074                 0.2311

                      4                      5                      6
                      A                      A                      A
 Frequencies --    169.3235               225.7313               256.3869
 Red. masses --     16.3032                14.7986                 9.4669
 Frc consts  --      0.2754                 0.4443                 0.3666
 IR Inten    --      2.1425                 8.8979                15.2656

                      7                      8                      9
                      A                      A                      A
 Frequencies --    275.3189               350.7961               381.6474
 Red. masses --     14.1793                16.4261                13.0477
 Frc consts  --      0.6333                 1.1910                 1.1197
 IR Inten    --      0.8062                 0.6997                 2.6810

                     10                     11                     12
                      A                      A                      A
 Frequencies --    400.2667               502.7792               526.6733
 Red. masses --     16.5052                15.7484                11.0061
 Frc consts  --      1.5580                 2.3455                 1.7987
 IR Inten    --      1.0311                 5.9638                 1.6973

                     13                     14                     15
                      A                      A                      A
 Frequencies --    606.8657               629.6645               665.5868
 Red. masses --     17.2909                 7.1208                14.7667
 Frc consts  --      3.7519                 1.6634                 3.8543
 IR Inten    --      1.4944                39.8877                 4.1885

                     16                     17                     18
                      A                      A                      A
 Frequencies --    779.6542               818.9085               949.9078
 Red. masses --      7.9256                 4.4381                 1.8944
 Frc consts  --      2.8385                 1.7536                 1.0071
 IR Inten    --      9.3861                59.1441                19.6948

                     19                     20                     21
                      A                      A                      A
 Frequencies --   1047.0526              1182.2902              1185.4837
 Red. masses --     11.9285                10.0913                 2.3022
 Frc consts  --      7.7050                 8.3109                 1.9063
 IR Inten    --    125.7935               189.8480               229.4644

                     22                     23                     24
                      A                      A                      A
 Frequencies --   1249.0311              1265.8716              1290.5413
 Red. masses --      8.4093                 2.9630                 5.3152
 Frc consts  --      7.7296                 2.7974                 5.2157
 IR Inten    --    196.0342                23.3338               109.2632

                     25                     26                     27
                      A                      A                      A
 Frequencies --   1306.5473              1380.5236              3482.7720
 Red. masses --     10.5274                12.4014                 1.0650
 Frc consts  --     10.5882                13.9254                 7.6111
 IR Inten    --    154.8037               140.5945               107.1424

 - Thermochemistry -
 -------------------
 Temperature   298.150 Kelvin.  Pressure   1.00000 Atm.
 Atom     1 has atomic number  6 and mass  12.00000

 Molecular mass:   163.98967 amu.
 Principal axes and moments of inertia in atomic units:
                           1         2         3
     Eigenvalues --   977.741471368.595471558.12677
           X            0.25185   0.75681  -0.60317
           Y            0.94893  -0.07074   0.30745
           Z           -0.19001   0.64980   0.73598
 This molecule is an asymmetric top.
 Rotational symmetry number  1.
 Warning -- assumption of classical behavior for rotation
           may cause significant error
 Rotational temperatures (Kelvin)      0.08859     0.06329     0.05559
 Rotational constants (GHZ):           1.84583     1.31868     1.15828
    1 imaginary frequencies ignored.
 Zero-point vibrational energy     126169.9 (Joules/Mol)
                                   30.15533 (Kcal/Mol)
 Warning -- explicit consideration of  12 degrees of freedom as
           vibrations may cause significant error
 Vibrational temperatures:    104.85   131.59   243.62   324.78   368.88
          (Kelvin)            396.12   504.72   549.11   575.89   723.39
                              757.77   873.14   905.95   957.63  1121.75
                             1178.23  1366.71  1506.48  1701.05  1705.65
                             1797.08  1821.31  1856.80  1879.83  1986.27
                             5010.93

 Zero-point correction=                           0.048056 (Hartree/Particle)
 Thermal correction to Energy=                    0.056667
 Thermal correction to Enthalpy=                  0.057611
 Thermal correction to Gibbs Free Energy=         0.013874
 Sum of electronic and zero-point Energies=           -764.332337
 Sum of electronic and thermal Energies=              -764.323726
 Sum of electronic and thermal Enthalpies=            -764.322782
 Sum of electronic and thermal Free Energies=         -764.366519

                     E (Thermal)             CV                S
                      KCal/Mol        Cal/Mol-Kelvin    Cal/Mol-Kelvin
 Total                   35.559             30.159             92.052
 Electronic               0.000              0.000              0.000
 Translational            0.889              2.981             41.192
 Rotational               0.889              2.981             29.124
 Vibrational             33.781             24.197             21.736
 Vibration     1          0.599              1.967              4.074
 Vibration     2          0.602              1.955              3.629
 Vibration     3          0.625              1.880              2.443
 Vibration     4          0.650              1.802              1.913
 Vibration     5          0.666              1.752              1.686
 Vibration     6          0.677              1.719              1.563
 Vibration     7          0.728              1.574              1.163
 Vibration     8          0.751              1.509              1.033
 Vibration     9          0.766              1.470              0.962
 Vibration    10          0.858              1.244              0.651
 Vibration    11          0.882              1.191              0.595
 Vibration    12          0.966              1.017              0.438

 Normal termination of Gaussian 16 at Sat May 24 06:34:26 2025.
