 Gaussian 16, Revision C.01,
 Gaussian 16:  ES64L-G16RevC.01  3-Jul-2019

 -----------------------------------------------------------------
 #P M062X/Def2TZVPP Symm(None) scf(xqc) pop(None) freq opt(CalcFC)
 -----------------------------------------------------------------

 ------------------------------
 Gaussian input prepared by ASE
 ------------------------------
 Symbolic Z-matrix:
 Charge =  0 Multiplicity = 1

 SCF Done:  E(RM062X) =  -764.573995790     A.U. after   13 cycles
 SCF Done:  E(RM062X) =  -764.601020111     A.U. after   14 cycles
 SCF Done:  E(RM062X) =  -764.599581464     A.U. after   13 cycles
 SCF Done:  E(RM062X) =  -764.596310631     A.U. after   15 cycles
 SCF Done:  E(RM062X) =  -764.592905004     A.U. after   15 cycles
 SCF Done:  E(RM062X) =  -764.601309098     A.U. after   12 cycles
 SCF Done:  E(RM062X) =  -764.602101218     A.U. after   13 cycles
 SCF Done:  E(RM062X) =  -764.602130349     A.U. after   11 cycles
 SCF Done:  E(RM062X) =  -764.602135719     A.U. after    8 cycles
 SCF Done:  E(RM062X) =  -764.602136107     A.U. after    8 cycles
 Optimization completed.
    -- Stationary point found.
 Normal termination of Gaussian 16 at Sat May 24 05:07:29 2025.

 ---------------------------------------------------------------------
 #P Geom=AllCheck Guess=TCheck SCRF=Check GenChk RM062X/def2TZVPP Freq
 ---------------------------------------------------------------------

 Structure from the checkpoint file:  "/tmp/Gau-3939.chk"
 ------------------------------
 Gaussian input prepared by ASE
 ------------------------------
 Charge =  0 Multiplicity = 1

                          Input orientation:
 ---------------------------------------------------------------------
 Center     Atomic      Atomic             Coordinates (Angstroms)
 Number     Number       Type             X           Y           Z
 ---------------------------------------------------------------------
      1          6           0        0.086872   -0.072685   -0.059278
      2          8           0        1.409585   -0.004927   -0.294111
      3          6           0        3.467536    1.132858   -0.456355
      4          6           0        1.958789    1.248338   -0.148792
      5          9           0        4.033991    2.323886   -0.328620
      6          9           0        1.414418    2.121211   -0.993059
      7          9           0        1.807499    1.707768    1.090991
      8          9           0        4.041985    0.289647    0.387700
      9          9           0        3.648767    0.700065   -1.694612
     10          8           0       -0.199789   -1.326103   -0.254661
     11          1           0       -1.143936   -1.434833   -0.099066
 ---------------------------------------------------------------------

 SCF Done:  E(RM062X) =  -764.602136107     A.U. after    1 cycles

 Isotropic polarizability for W=    0.000000       46.57 Bohr**3.
 End of Minotr F.D. properties file   721 does not exist.

                      1                      2                      3
                      A                      A                      A
 Frequencies --     61.6512               113.1132               127.7967
 Red. masses --     14.9106                 8.6381                10.5662
 Frc consts  --      0.0334                 0.0651                 0.1017
 IR Inten    --      0.3737                 1.0094                 0.7559

                      4                      5                      6
                      A                      A                      A
 Frequencies --    157.9392               226.4453               277.1159
 Red. masses --     13.9222                18.2637                12.5948
 Frc consts  --      0.2046                 0.5518                 0.5699
 IR Inten    --      0.0711                 3.1138                 5.2256

                      7                      8                      9
                      A                      A                      A
 Frequencies --    344.5396               377.9622               388.3290
 Red. masses --     14.5756                16.1666                16.6657
 Frc consts  --      1.0194                 1.3607                 1.4807
 IR Inten    --      0.4258                 0.0739                 0.1346

                     10                     11                     12
                      A                      A                      A
 Frequencies --    467.9510               532.3771               557.0444
 Red. masses --     10.8639                14.5555                16.6399
 Frc consts  --      1.4016                 2.4306                 3.0421
 IR Inten    --      0.8240                 7.8335                 9.8611

                     13                     14                     15
                      A                      A                      A
 Frequencies --    628.8297               669.9144               740.9428
 Red. masses --     15.0170                12.6057                 1.1547
 Frc consts  --      3.4986                 3.3331                 0.3735
 IR Inten    --      0.3747                 9.5669                83.1592

                     16                     17                     18
                      A                      A                      A
 Frequencies --    768.5694               900.3787              1068.5774
 Red. masses --     15.9911                10.2332                 4.4983
 Frc consts  --      5.5654                 4.8878                 3.0263
 IR Inten    --     52.3744               101.6848               100.3579

                     19                     20                     21
                      A                      A                      A
 Frequencies --   1164.1531              1238.0939              1269.5804
 Red. masses --      9.5853                 3.9361                12.9645
 Frc consts  --      7.6538                 3.5549                12.3119
 IR Inten    --    739.4257               214.1537               110.4166

                     22                     23                     24
                      A                      A                      A
 Frequencies --   1296.6683              1299.4854              1368.7977
 Red. masses --     12.5246                13.2257                 2.1911
 Frc consts  --     12.4071                13.1587                 2.4187
 IR Inten    --    376.1316               389.2429               111.9544

                     25                     26                     27
                      A                      A                      A
 Frequencies --   1395.0650              1474.7255              3867.6098
 Red. masses --     11.2519                10.7288                 1.0665
 Frc consts  --     12.9023                13.7475                 9.3993
 IR Inten    --     98.5672                20.9046               209.6052

 - Thermochemistry -
 -------------------
 Temperature   298.150 Kelvin.  Pressure   1.00000 Atm.
 Atom     1 has atomic number  6 and mass  12.00000

 Molecular mass:   163.98967 amu.
 Principal axes and moments of inertia in atomic units:
                           1         2         3
     Eigenvalues --   781.226711894.603502042.99021
           X            0.87864  -0.44150   0.18183
           Y            0.47208   0.86036  -0.19216
           Z           -0.07160   0.25468   0.96437
 This molecule is an asymmetric top.
 Rotational symmetry number  1.
 Warning -- assumption of classical behavior for rotation
           may cause significant error
 Rotational temperatures (Kelvin)      0.11087     0.04572     0.04240
 Rotational constants (GHZ):           2.31014     0.95257     0.88338
 Zero-point vibrational energy     136276.5 (Joules/Mol)
                                   32.57087 (Kcal/Mol)
 Warning -- explicit consideration of  12 degrees of freedom as
           vibrations may cause significant error
 Vibrational temperatures:     88.70   162.74   183.87   227.24   325.80
          (Kelvin)            398.71   495.72   543.80   558.72   673.28
                              765.97   801.46   904.75   963.86  1066.05
                             1105.80  1295.44  1537.44  1674.96  1781.34
                             1826.64  1865.62  1869.67  1969.39  2007.19
                             2121.80  5564.63

 Zero-point correction=                           0.051905 (Hartree/Particle)
 Thermal correction to Energy=                    0.060823
 Thermal correction to Enthalpy=                  0.061768
 Thermal correction to Gibbs Free Energy=         0.017063
 Sum of electronic and zero-point Energies=           -764.550231
 Sum of electronic and thermal Energies=              -764.541313
 Sum of electronic and thermal Enthalpies=            -764.540369
 Sum of electronic and thermal Free Energies=         -764.585073

                     E (Thermal)             CV                S
                      KCal/Mol        Cal/Mol-Kelvin    Cal/Mol-Kelvin
 Total                   38.167             30.734             94.089
 Electronic               0.000              0.000              0.000
 Translational            0.889              2.981             41.192
 Rotational               0.889              2.981             29.493
 Vibrational             36.390             24.772             23.403
 Vibration     1          0.597              1.973              4.404
 Vibration     2          0.607              1.939              3.215
 Vibration     3          0.611              1.925              2.979
 Vibration     4          0.621              1.894              2.574
 Vibration     5          0.650              1.801              1.907
 Vibration     6          0.678              1.716              1.551
 Vibration     7          0.723              1.586              1.191
 Vibration     8          0.748              1.517              1.047
 Vibration     9          0.757              1.495              1.007
 Vibration    10          0.825              1.321              0.743
 Vibration    11          0.887              1.178              0.582
 Vibration    12          0.913              1.124              0.530

 Optimization completed.
    -- Stationary point found.
 Normal termination of Gaussian 16 at Sat May 24 05:10:42 2025.
