 Gaussian 16, Revision C.01,
 Gaussian 16:  ES64L-G16RevC.01  3-Jul-2019

 -----------------------------------------------------------------
 #P M062X/Def2TZVPP Symm(None) scf(xqc) pop(None) freq opt(CalcFC)
 -----------------------------------------------------------------

 ------------------------------
 Gaussian input prepared by ASE
 ------------------------------
 Symbolic Z-matrix:
 Charge =  0 Multiplicity = 1

 SCF Done:  E(RM062X) =  -764.455571655     A.U. after   15 cycles
 SCF Done:  E(RM062X) =  -764.462614524     A.U. after   16 cycles
 SCF Done:  E(RM062X) =  -764.463054224     A.U. after   15 cycles
 SCF Done:  E(RM062X) =  -764.463353469     A.U. after   15 cycles
 SCF Done:  E(RM062X) =  -764.463461739     A.U. after   14 cycles
 SCF Done:  E(RM062X) =  -764.463477492     A.U. after   12 cycles
 SCF Done:  E(RM062X) =  -764.463479458     A.U. after    9 cycles
 SCF Done:  E(RM062X) =  -764.463479790     A.U. after    9 cycles
 SCF Done:  E(RM062X) =  -764.463479859     A.U. after    9 cycles
 SCF Done:  E(RM062X) =  -764.463479866     A.U. after    8 cycles
 Optimization completed.
    -- Stationary point found.
 Normal termination of Gaussian 16 at Sat May 24 08:50:31 2025.

 ---------------------------------------------------------------------
 #P Geom=AllCheck Guess=TCheck SCRF=Check GenChk RM062X/def2TZVPP Freq
 ---------------------------------------------------------------------

 Structure from the checkpoint file:  "/tmp/Gau-269988.chk"
 ------------------------------
 Gaussian input prepared by ASE
 ------------------------------
 Charge =  0 Multiplicity = 1

                          Input orientation:
 ---------------------------------------------------------------------
 Center     Atomic      Atomic             Coordinates (Angstroms)
 Number     Number       Type             X           Y           Z
 ---------------------------------------------------------------------
      1          6           0        2.471060    1.754667   -0.044008
      2          8           0        1.049044    0.046450    0.129541
      3          6           0        2.528090    3.289452   -0.116921
      4          6           0        3.235715    3.841295    1.138797
      5          9           0        3.242623    5.165102    1.113514
      6          9           0        2.577083    3.435842    2.223079
      7          9           0        4.482839    3.407805    1.206859
      8          9           0        3.251470    3.620078   -1.197325
      9          9           0        1.338419    3.916523   -0.211311
     10          8           0        1.257622    1.471065    0.052529
     11          1           0        0.083586    0.029078    0.201989
 ---------------------------------------------------------------------

 SCF Done:  E(RM062X) =  -764.463479866     A.U. after    1 cycles

 Isotropic polarizability for W=    0.000000       50.68 Bohr**3.
 End of Minotr F.D. properties file   721 does not exist.

                      1                      2                      3
                      A                      A                      A
 Frequencies --     32.6330                59.1241               160.3052
 Red. masses --      6.4582                16.3356                 3.2399
 Frc consts  --      0.0041                 0.0336                 0.0491
 IR Inten    --     11.5980                 0.9341                61.0068

                      4                      5                      6
                      A                      A                      A
 Frequencies --    192.4817               211.4081               243.6382
 Red. masses --      2.6486                 7.6543                 4.5930
 Frc consts  --      0.0578                 0.2016                 0.1606
 IR Inten    --     49.5797                 7.0235                 9.2037

                      7                      8                      9
                      A                      A                      A
 Frequencies --    263.1444               343.2241               357.9596
 Red. masses --      8.6005                14.9081                17.1677
 Frc consts  --      0.3509                 1.0347                 1.2961
 IR Inten    --      2.5689                 0.1274                 0.1280

                     10                     11                     12
                      A                      A                      A
 Frequencies --    383.8190               426.0189               502.8373
 Red. masses --     15.1472                12.8894                13.6192
 Frc consts  --      1.3147                 1.3783                 2.0289
 IR Inten    --      0.1282                 0.0330                 3.4469

                     13                     14                     15
                      A                      A                      A
 Frequencies --    547.4713               609.5345               647.1028
 Red. masses --     17.6502                16.5575                16.0713
 Frc consts  --      3.1169                 3.6244                 3.9650
 IR Inten    --      8.7161                 0.4845                 8.0696

                     16                     17                     18
                      A                      A                      A
 Frequencies --    735.3737               816.3542               938.6936
 Red. masses --     14.6180                15.8863                10.5782
 Frc consts  --      4.6575                 6.2378                 5.4917
 IR Inten    --    103.6284                34.9053                38.4923

                     19                     20                     21
                      A                      A                      A
 Frequencies --   1063.7205              1209.9325              1246.8470
 Red. masses --     12.6039                11.2703                13.2285
 Frc consts  --      8.4025                 9.7209                12.1167
 IR Inten    --    116.8492               158.1859               205.2901

                     22                     23                     24
                      A                      A                      A
 Frequencies --   1278.1252              1301.6719              1383.2872
 Red. masses --     12.5039                12.9889                 6.2627
 Frc consts  --     12.0349                12.9666                 7.0605
 IR Inten    --    177.5786               247.1087                67.3252

                     25                     26                     27
                      A                      A                      A
 Frequencies --   1398.1098              1519.0033              3803.7138
 Red. masses --      1.9219                 3.0120                 1.0677
 Frc consts  --      2.2134                 4.0947                 9.1017
 IR Inten    --    130.2417                15.2556               114.5191

 - Thermochemistry -
 -------------------
 Temperature   298.150 Kelvin.  Pressure   1.00000 Atm.
 Atom     1 has atomic number  6 and mass  12.00000

 Molecular mass:   163.98967 amu.
 Principal axes and moments of inertia in atomic units:
                           1         2         3
     Eigenvalues --   834.984741922.342952098.31244
           X            0.52784   0.14987   0.83602
           Y            0.81158  -0.37927  -0.44441
           Z            0.25047   0.91307  -0.32182
 This molecule is an asymmetric top.
 Rotational symmetry number  1.
 Warning -- assumption of classical behavior for rotation
           may cause significant error
 Rotational temperatures (Kelvin)      0.10373     0.04506     0.04128
 Rotational constants (GHZ):           2.16141     0.93882     0.86009
 Zero-point vibrational energy     129648.5 (Joules/Mol)
                                   30.98673 (Kcal/Mol)
 Warning -- explicit consideration of  14 degrees of freedom as
           vibrations may cause significant error
 Vibrational temperatures:     46.95    85.07   230.64   276.94   304.17
          (Kelvin)            350.54   378.61   493.82   515.02   552.23
                              612.95   723.47   787.69   876.98   931.04
                             1058.04  1174.55  1350.57  1530.46  1740.82
                             1793.93  1838.94  1872.82  1990.24  2011.57
                             2185.51  5472.70

 Zero-point correction=                           0.049381 (Hartree/Particle)
 Thermal correction to Energy=                    0.058963
 Thermal correction to Enthalpy=                  0.059907
 Thermal correction to Gibbs Free Energy=         0.013247
 Sum of electronic and zero-point Energies=           -764.414099
 Sum of electronic and thermal Energies=              -764.404517
 Sum of electronic and thermal Enthalpies=            -764.403573
 Sum of electronic and thermal Free Energies=         -764.450233

                     E (Thermal)             CV                S
                      KCal/Mol        Cal/Mol-Kelvin    Cal/Mol-Kelvin
 Total                   37.000             32.516             98.205
 Electronic               0.000              0.000              0.000
 Translational            0.889              2.981             41.192
 Rotational               0.889              2.981             29.600
 Vibrational             35.222             26.555             27.413
 Vibration     1          0.594              1.983              5.663
 Vibration     2          0.596              1.974              4.486
 Vibration     3          0.622              1.891              2.546
 Vibration     4          0.634              1.850              2.204
 Vibration     5          0.643              1.823              2.031
 Vibration     6          0.659              1.773              1.776
 Vibration     7          0.670              1.740              1.641
 Vibration     8          0.722              1.589              1.197
 Vibration     9          0.733              1.559              1.131
 Vibration    10          0.753              1.505              1.024
 Vibration    11          0.788              1.414              0.872
 Vibration    12          0.858              1.244              0.651
 Vibration    13          0.903              1.145              0.549
 Vibration    14          0.969              1.012              0.434

 Optimization completed.
    -- Stationary point found.
 Normal termination of Gaussian 16 at Sat May 24 08:53:47 2025.
