 Gaussian 16, Revision C.01,
 Gaussian 16:  ES64L-G16RevC.01  3-Jul-2019

 ----------------------------------------------------------------------
 #P M062X/Def2TZVPP Symm(None) scf(xqc) pop(None) opt(NoFreeze,TS,CalcA
 ll,NoEigentest,MaxCycle=999)
 ----------------------------------------------------------------------

 ------------------------------
 Gaussian input prepared by ASE
 ------------------------------
 Symbolic Z-matrix:
 Charge =  0 Multiplicity = 1

 SCF Done:  E(RM062X) =  -764.453740360     A.U. after   16 cycles
 SCF Done:  E(RM062X) =  -764.462355148     A.U. after   15 cycles
 SCF Done:  E(RM062X) =  -764.463370514     A.U. after   14 cycles
 SCF Done:  E(RM062X) =  -764.463440204     A.U. after   13 cycles
 SCF Done:  E(RM062X) =  -764.463440723     A.U. after    9 cycles

 Isotropic polarizability for W=    0.000000       51.69 Bohr**3.
 End of Minotr F.D. properties file   721 does not exist.

 Optimization completed.
    -- Stationary point found.

                          Input orientation:
 ---------------------------------------------------------------------
 Center     Atomic      Atomic             Coordinates (Angstroms)
 Number     Number       Type             X           Y           Z
 ---------------------------------------------------------------------
      1          6           0        1.533209   -0.035373   -0.022076
      2          8           0        2.071742   -1.037721    0.331625
      3          6           0        0.021567   -0.003006   -0.003159
      4          6           0       -1.245253    1.529464    0.437078
      5          9           0       -1.824580    2.636849   -0.014057
      6          9           0       -2.220047    0.687834    0.632342
      7          9           0       -0.553965    1.896124    1.480321
      8          9           0       -0.364624    1.383788   -0.956645
      9          9           0       -0.477360   -0.959289   -0.732150
     10          8           0        2.188609    1.090666   -0.301298
     11          1           0        1.594286    1.762755   -0.653893
 ---------------------------------------------------------------------

 ******    1 imaginary frequencies (negative Signs) ******

                      1                      2                      3
                      A                      A                      A
 Frequencies --   -644.5946                52.9881                70.9520
 Red. masses --     14.7057                 9.7119                16.0040
 Frc consts  --      3.6001                 0.0161                 0.0475
 IR Inten    --     57.9397                 4.3944                 3.1106

                      4                      5                      6
                      A                      A                      A
 Frequencies --     75.3614               184.1740               245.0802
 Red. masses --     14.6822                17.2812                11.6827
 Frc consts  --      0.0491                 0.3454                 0.4134
 IR Inten    --      1.5518                58.8358                 9.2652

                      7                      8                      9
                      A                      A                      A
 Frequencies --    295.4421               347.8185               361.2221
 Red. masses --     15.9050                14.6339                12.8961
 Frc consts  --      0.8180                 1.0431                 0.9914
 IR Inten    --     25.4715                16.8631                 2.7516

                     10                     11                     12
                      A                      A                      A
 Frequencies --    397.9392               423.8451               518.5891
 Red. masses --      9.7866                15.2014                 1.3896
 Frc consts  --      0.9131                 1.6090                 0.2202
 IR Inten    --     20.6229                85.0233                37.5886

                     13                     14                     15
                      A                      A                      A
 Frequencies --    557.8724               609.0114               624.5639
 Red. masses --      5.2893                12.6668                 9.1771
 Frc consts  --      0.9699                 2.7680                 2.1092
 IR Inten    --    209.2299                 4.5010                10.7923

                     16                     17                     18
                      A                      A                      A
 Frequencies --    656.6755               735.7321               782.3433
 Red. masses --     12.1858                14.2508                10.2938
 Frc consts  --      3.0960                 4.5449                 3.7121
 IR Inten    --     61.8148               312.4505                19.6017

                     19                     20                     21
                      A                      A                      A
 Frequencies --    936.7219               967.3998              1182.5454
 Red. masses --     14.2692                13.2053                 4.1158
 Frc consts  --      7.3768                 7.2813                 3.3911
 IR Inten    --    336.6303               204.0634               262.5998

                     22                     23                     24
                      A                      A                      A
 Frequencies --   1223.0964              1293.7371              1382.1168
 Red. masses --      2.6424                 4.1390                12.9717
 Frc consts  --      2.3290                 4.0817                14.5995
 IR Inten    --    162.1272               301.6102               391.7093

                     25                     26                     27
                      A                      A                      A
 Frequencies --   1405.8491              1892.5067              3849.8801
 Red. masses --      4.7848                11.2868                 1.0655
 Frc consts  --      5.5718                23.8175                 9.3046
 IR Inten    --    208.6740               343.8408                93.3690

 - Thermochemistry -
 -------------------
 Temperature   298.150 Kelvin.  Pressure   1.00000 Atm.
 Atom     1 has atomic number  6 and mass  12.00000

 Molecular mass:   163.98967 amu.
 Principal axes and moments of inertia in atomic units:
                           1         2         3
     Eigenvalues --   790.843441871.294872135.40704
           X            0.83528   0.54948   0.01978
           Y           -0.53475   0.82021  -0.20323
           Z           -0.12790   0.15917   0.97893
 This molecule is an asymmetric top.
 Rotational symmetry number  1.
 Warning -- assumption of classical behavior for rotation
           may cause significant error
 Rotational temperatures (Kelvin)      0.10952     0.04629     0.04056
 Rotational constants (GHZ):           2.28205     0.96443     0.84515
    1 imaginary frequencies ignored.
 Zero-point vibrational energy     126047.3 (Joules/Mol)
                                   30.12603 (Kcal/Mol)
 Warning -- explicit consideration of  13 degrees of freedom as
           vibrations may cause significant error
 Vibrational temperatures:     76.24   102.08   108.43   264.99   352.62
          (Kelvin)            425.08   500.43   519.72   572.55   609.82
                              746.13   802.65   876.23   898.61   944.81
                             1058.55  1125.62  1347.73  1391.87  1701.42
                             1759.76  1861.40  1988.56  2022.70  2722.90
                             5539.12

 Zero-point correction=                           0.048009 (Hartree/Particle)
 Thermal correction to Energy=                    0.057222
 Thermal correction to Enthalpy=                  0.058166
 Thermal correction to Gibbs Free Energy=         0.012356
 Sum of electronic and zero-point Energies=           -764.415432
 Sum of electronic and thermal Energies=              -764.406219
 Sum of electronic and thermal Enthalpies=            -764.405274
 Sum of electronic and thermal Free Energies=         -764.451084

                     E (Thermal)             CV                S
                      KCal/Mol        Cal/Mol-Kelvin    Cal/Mol-Kelvin
 Total                   35.907             31.550             96.415
 Electronic               0.000              0.000              0.000
 Translational            0.889              2.981             41.192
 Rotational               0.889              2.981             29.537
 Vibrational             34.130             25.589             25.686
 Vibration     1          0.596              1.976              4.703
 Vibration     2          0.598              1.968              4.127
 Vibration     3          0.599              1.965              4.008
 Vibration     4          0.631              1.861              2.286
 Vibration     5          0.660              1.771              1.766
 Vibration     6          0.690              1.682              1.443
 Vibration     7          0.725              1.580              1.176
 Vibration     8          0.735              1.552              1.117
 Vibration     9          0.764              1.475              0.970
 Vibration    10          0.786              1.418              0.879
 Vibration    11          0.874              1.209              0.613
 Vibration    12          0.913              1.122              0.528
 Vibration    13          0.968              1.013              0.434

 Normal termination of Gaussian 16 at Sat May 24 05:24:06 2025.
