 Gaussian 16, Revision C.01,
 Gaussian 16:  ES64L-G16RevC.01  3-Jul-2019

 -----------------------------------------------------------------
 #P M062X/Def2TZVPP Symm(None) scf(xqc) pop(None) freq opt(CalcFC)
 -----------------------------------------------------------------

 ------------------------------
 Gaussian input prepared by ASE
 ------------------------------
 Symbolic Z-matrix:
 Charge =  0 Multiplicity = 1

 SCF Done:  E(RM062X) =  -764.453883042     A.U. after   15 cycles
 SCF Done:  E(RM062X) =  -764.465586298     A.U. after   15 cycles
 SCF Done:  E(RM062X) =  -764.457927987     A.U. after   14 cycles
 SCF Done:  E(RM062X) =  -764.465798901     A.U. after   15 cycles
 SCF Done:  E(RM062X) =  -764.466348318     A.U. after   13 cycles
 SCF Done:  E(RM062X) =  -764.466395751     A.U. after   14 cycles
 SCF Done:  E(RM062X) =  -764.466402168     A.U. after   12 cycles
 SCF Done:  E(RM062X) =  -764.466408489     A.U. after   12 cycles
 SCF Done:  E(RM062X) =  -764.466408642     A.U. after    9 cycles
 Optimization completed.
    -- Stationary point found.
 Normal termination of Gaussian 16 at Sat May 24 08:49:44 2025.

 ---------------------------------------------------------------------
 #P Geom=AllCheck Guess=TCheck SCRF=Check GenChk RM062X/def2TZVPP Freq
 ---------------------------------------------------------------------

 Structure from the checkpoint file:  "/tmp/Gau-110687.chk"
 ------------------------------
 Gaussian input prepared by ASE
 ------------------------------
 Charge =  0 Multiplicity = 1

                          Input orientation:
 ---------------------------------------------------------------------
 Center     Atomic      Atomic             Coordinates (Angstroms)
 Number     Number       Type             X           Y           Z
 ---------------------------------------------------------------------
      1          6           0        0.625558    2.097237    0.870611
      2          8           0        0.957461    0.099130   -0.093360
      3          6           0        0.979841    3.585297    0.741552
      4          6           0        1.807479    4.031240    1.965683
      5          9           0        2.165126    5.298473    1.838076
      6          9           0        1.106722    3.892587    3.079607
      7          9           0        2.902489    3.279161    2.048637
      8          9           0        1.677002    3.915059   -0.358975
      9          9           0       -0.170723    4.276221    0.727978
     10          8           0        1.195039    1.505637   -0.072143
     11          1           0        0.385678   -0.003043    0.690369
 ---------------------------------------------------------------------

 SCF Done:  E(RM062X) =  -764.466408642     A.U. after    1 cycles

 Isotropic polarizability for W=    0.000000       49.87 Bohr**3.
 End of Minotr F.D. properties file   721 does not exist.

                      1                      2                      3
                      A                      A                      A
 Frequencies --     39.4569                58.9028               164.4337
 Red. masses --     15.5674                15.3685                 5.8280
 Frc consts  --      0.0143                 0.0314                 0.0928
 IR Inten    --      0.3443                 0.1690                 3.7938

                      4                      5                      6
                      A                      A                      A
 Frequencies --    203.9345               223.3098               259.2268
 Red. masses --      8.6939                 8.2297                13.3606
 Frc consts  --      0.2130                 0.2418                 0.5290
 IR Inten    --      1.2419                 3.6236                 0.7134

                      7                      8                      9
                      A                      A                      A
 Frequencies --    343.5714               358.7896               383.1337
 Red. masses --     14.5681                15.4841                 9.2419
 Frc consts  --      1.0132                 1.1744                 0.7993
 IR Inten    --      1.1842                 0.4765                11.2874

                     10                     11                     12
                      A                      A                      A
 Frequencies --    409.0852               431.5668               503.6962
 Red. masses --      1.9831                 3.4554                12.9655
 Frc consts  --      0.1955                 0.3792                 1.9381
 IR Inten    --     62.6058                34.3338                10.6067

                     13                     14                     15
                      A                      A                      A
 Frequencies --    549.0841               609.4887               649.9664
 Red. masses --     16.9682                16.5735                15.0066
 Frc consts  --      3.0141                 3.6274                 3.7352
 IR Inten    --      4.3726                 2.8938                11.8025

                     16                     17                     18
                      A                      A                      A
 Frequencies --    750.9476               842.0003               960.7825
 Red. masses --     14.1127                13.4905                11.1684
 Frc consts  --      4.6890                 5.6351                 6.0742
 IR Inten    --     53.1334                25.9733                44.9026

                     19                     20                     21
                      A                      A                      A
 Frequencies --   1070.1176              1227.8711              1246.1413
 Red. masses --     12.7310                11.9390                13.0959
 Frc consts  --      8.5896                10.6053                11.9817
 IR Inten    --    140.2583               225.3331               147.3878

                     22                     23                     24
                      A                      A                      A
 Frequencies --   1281.6308              1301.4978              1386.3948
 Red. masses --     12.8654                12.9086                11.7085
 Frc consts  --     12.4509                12.8830                13.2594
 IR Inten    --    234.8348               190.2749               145.6516

                     25                     26                     27
                      A                      A                      A
 Frequencies --   1467.5095              1520.7212              3676.8351
 Red. masses --      1.7356                 2.9862                 1.0662
 Frc consts  --      2.2022                 4.0688                 8.4928
 IR Inten    --     26.2243                43.2934                63.3110

 - Thermochemistry -
 -------------------
 Temperature   298.150 Kelvin.  Pressure   1.00000 Atm.
 Atom     1 has atomic number  6 and mass  12.00000

 Molecular mass:   163.98967 amu.
 Principal axes and moments of inertia in atomic units:
                           1         2         3
     Eigenvalues --   834.245981923.243662095.77363
           X            0.19236   0.53874   0.82022
           Y            0.84684  -0.51346   0.13865
           Z            0.49584   0.66792  -0.55500
 This molecule is an asymmetric top.
 Rotational symmetry number  1.
 Warning -- assumption of classical behavior for rotation
           may cause significant error
 Rotational temperatures (Kelvin)      0.10382     0.04504     0.04133
 Rotational constants (GHZ):           2.16332     0.93838     0.86113
 Zero-point vibrational energy     131111.3 (Joules/Mol)
                                   31.33635 (Kcal/Mol)
 Warning -- explicit consideration of  14 degrees of freedom as
           vibrations may cause significant error
 Vibrational temperatures:     56.77    84.75   236.58   293.42   321.29
          (Kelvin)            372.97   494.32   516.22   551.24   588.58
                              620.93   724.71   790.01   876.92   935.16
                             1080.45  1211.45  1382.35  1539.66  1766.63
                             1792.92  1843.98  1872.57  1994.71  2111.42
                             2187.98  5290.15

 Zero-point correction=                           0.049938 (Hartree/Particle)
 Thermal correction to Energy=                    0.059245
 Thermal correction to Enthalpy=                  0.060189
 Thermal correction to Gibbs Free Energy=         0.014256
 Sum of electronic and zero-point Energies=           -764.416471
 Sum of electronic and thermal Energies=              -764.407163
 Sum of electronic and thermal Enthalpies=            -764.406219
 Sum of electronic and thermal Free Energies=         -764.452153

                     E (Thermal)             CV                S
                      KCal/Mol        Cal/Mol-Kelvin    Cal/Mol-Kelvin
 Total                   37.177             31.997             96.676
 Electronic               0.000              0.000              0.000
 Translational            0.889              2.981             41.192
 Rotational               0.889              2.981             29.599
 Vibrational             35.399             26.036             25.885
 Vibration     1          0.594              1.981              5.286
 Vibration     2          0.596              1.974              4.494
 Vibration     3          0.623              1.886              2.498
 Vibration     4          0.640              1.834              2.097
 Vibration     5          0.649              1.806              1.932
 Vibration     6          0.668              1.747              1.667
 Vibration     7          0.722              1.588              1.196
 Vibration     8          0.734              1.557              1.127
 Vibration     9          0.752              1.506              1.027
 Vibration    10          0.773              1.450              0.930
 Vibration    11          0.793              1.401              0.854
 Vibration    12          0.859              1.242              0.649
 Vibration    13          0.904              1.142              0.546
 Vibration    14          0.968              1.012              0.434

                           ! Non-Optimized Parameters !
 Normal termination of Gaussian 16 at Sat May 24 08:52:48 2025.
