 Gaussian 16, Revision C.01,
 Gaussian 16:  ES64L-G16RevC.01  3-Jul-2019

 -----------------------------------------------------------------
 #P M062X/Def2TZVPP Symm(None) scf(xqc) pop(None) freq opt(CalcFC)
 -----------------------------------------------------------------

 ------------------------------
 Gaussian input prepared by ASE
 ------------------------------
 Symbolic Z-matrix:
 Charge =  0 Multiplicity = 1

 SCF Done:  E(RM062X) =  -764.644340727     A.U. after   13 cycles
 SCF Done:  E(RM062X) =  -764.659166140     A.U. after   15 cycles
 SCF Done:  E(RM062X) =  -764.421032176     A.U. after   15 cycles
 SCF Done:  E(RM062X) =  -764.658746341     A.U. after   14 cycles
 SCF Done:  E(RM062X) =  -764.660551723     A.U. after   11 cycles
 SCF Done:  E(RM062X) =  -764.631673056     A.U. after   14 cycles
 SCF Done:  E(RM062X) =  -764.661409488     A.U. after   13 cycles
 SCF Done:  E(RM062X) =  -764.661301633     A.U. after   12 cycles
 SCF Done:  E(RM062X) =  -764.661677846     A.U. after   10 cycles
 SCF Done:  E(RM062X) =  -764.661874802     A.U. after   10 cycles
 SCF Done:  E(RM062X) =  -764.664355296     A.U. after   12 cycles
 SCF Done:  E(RM062X) =  -764.664391626     A.U. after   12 cycles
 SCF Done:  E(RM062X) =  -764.664464150     A.U. after   12 cycles
 SCF Done:  E(RM062X) =  -764.664513410     A.U. after   11 cycles
 SCF Done:  E(RM062X) =  -764.664557867     A.U. after   13 cycles
 SCF Done:  E(RM062X) =  -764.664561588     A.U. after   12 cycles
 SCF Done:  E(RM062X) =  -764.664562825     A.U. after   10 cycles
 SCF Done:  E(RM062X) =  -764.664562827     A.U. after    8 cycles
 SCF Done:  E(RM062X) =  -764.664562849     A.U. after    8 cycles
 Optimization completed.
    -- Stationary point found.
 Normal termination of Gaussian 16 at Fri May 23 23:39:42 2025.

 ---------------------------------------------------------------------
 #P Geom=AllCheck Guess=TCheck SCRF=Check GenChk RM062X/def2TZVPP Freq
 ---------------------------------------------------------------------

 Structure from the checkpoint file:  "/tmp/Gau-114399.chk"
 ------------------------------
 Gaussian input prepared by ASE
 ------------------------------
 Charge =  0 Multiplicity = 1

                          Input orientation:
 ---------------------------------------------------------------------
 Center     Atomic      Atomic             Coordinates (Angstroms)
 Number     Number       Type             X           Y           Z
 ---------------------------------------------------------------------
      1          6           0        1.578086    0.095342   -0.310241
      2          8           0        2.007723   -0.735711   -1.037299
      3          6           0        0.055943    0.187903   -0.035447
      4          6           0       -0.706479    0.815970   -1.219466
      5          9           0       -1.982361    0.973616   -0.904433
      6          9           0       -0.178567    2.010096   -1.485486
      7          9           0       -0.615201    0.054429   -2.292738
      8          9           0       -0.438955   -1.024864    0.200788
      9          9           0       -0.176319    0.970667    1.045702
     10          8           0        2.320550    1.010926    0.303366
     11          1           0        1.787327    1.569387    0.882072
 ---------------------------------------------------------------------

 SCF Done:  E(RM062X) =  -764.664562849     A.U. after    1 cycles

 Isotropic polarizability for W=    0.000000       43.65 Bohr**3.
 End of Minotr F.D. properties file   721 does not exist.

                      1                      2                      3
                      A                      A                      A
 Frequencies --     29.5759                64.5154               142.9010
 Red. masses --      9.3597                14.9460                16.6657
 Frc consts  --      0.0048                 0.0367                 0.2005
 IR Inten    --      4.2247                 0.8288                 2.3012

                      4                      5                      6
                      A                      A                      A
 Frequencies --    213.8294               265.4158               293.0542
 Red. masses --     16.9225                13.3857                17.4065
 Frc consts  --      0.4559                 0.5556                 0.8808
 IR Inten    --      3.8912                 5.9578                 5.9370

                      7                      8                      9
                      A                      A                      A
 Frequencies --    360.1894               375.9827               395.0027
 Red. masses --     16.7649                 9.3634                16.2283
 Frc consts  --      1.2815                 0.7799                 1.4918
 IR Inten    --      0.4509                 6.8039                 2.2789

                     10                     11                     12
                      A                      A                      A
 Frequencies --    516.2190               526.0874               549.0642
 Red. masses --      7.7679                 1.4235                 7.3993
 Frc consts  --      1.2196                 0.2321                 1.3143
 IR Inten    --     23.0423                91.4205                19.9034

                     13                     14                     15
                      A                      A                      A
 Frequencies --    593.3002               625.0711               710.2016
 Red. masses --      8.2820                14.2979                 9.1532
 Frc consts  --      1.7176                 3.2914                 2.7201
 IR Inten    --      4.3706                 2.7363                33.6229

                     16                     17                     18
                      A                      A                      A
 Frequencies --    781.1749               798.3845              1055.6098
 Red. masses --     12.1366                13.0448                13.3078
 Frc consts  --      4.3636                 4.8990                 8.7370
 IR Inten    --      1.5250                15.1141               146.1235

                     19                     20                     21
                      A                      A                      A
 Frequencies --   1177.0630              1247.1042              1266.7152
 Red. masses --      4.9205                 2.1755                11.7013
 Frc consts  --      4.0166                 1.9935                11.0622
 IR Inten    --     94.6276               128.4012               297.7972

                     22                     23                     24
                      A                      A                      A
 Frequencies --   1280.4258              1310.1382              1376.3945
 Red. masses --      5.6381                13.1239                 6.7875
 Frc consts  --      5.4462                13.2723                 7.5761
 IR Inten    --     68.2905               263.6614               325.7653

                     25                     26                     27
                      A                      A                      A
 Frequencies --   1413.2694              1942.5121              3836.3542
 Red. masses --      6.3463                11.4951                 1.0657
 Frc consts  --      7.4683                25.5559                 9.2412
 IR Inten    --     91.0493               292.7270               138.6657

 - Thermochemistry -
 -------------------
 Temperature   298.150 Kelvin.  Pressure   1.00000 Atm.
 Atom     1 has atomic number  6 and mass  12.00000

 Molecular mass:   163.98967 amu.
 Principal axes and moments of inertia in atomic units:
                           1         2         3
     Eigenvalues --   948.951701534.503681591.43170
           X            0.90703  -0.31825   0.27569
           Y           -0.20920   0.22760   0.95102
           Z            0.36541   0.92028  -0.13987
 This molecule is an asymmetric top.
 Rotational symmetry number  1.
 Warning -- assumption of classical behavior for rotation
           may cause significant error
 Rotational temperatures (Kelvin)      0.09127     0.05644     0.05443
 Rotational constants (GHZ):           1.90183     1.17611     1.13404
 Zero-point vibrational energy     138441.2 (Joules/Mol)
                                   33.08823 (Kcal/Mol)
 Warning -- explicit consideration of  13 degrees of freedom as
           vibrations may cause significant error
 Vibrational temperatures:     42.55    92.82   205.60   307.65   381.87
          (Kelvin)            421.64   518.23   540.96   568.32   742.72
                              756.92   789.98   853.63   899.34  1021.82
                             1123.94  1148.70  1518.79  1693.53  1794.30
                             1822.52  1842.25  1885.00  1980.32  2033.38
                             2794.84  5519.66

 Zero-point correction=                           0.052729 (Hartree/Particle)
 Thermal correction to Energy=                    0.061636
 Thermal correction to Enthalpy=                  0.062580
 Thermal correction to Gibbs Free Energy=         0.017326
 Sum of electronic and zero-point Energies=           -764.611833
 Sum of electronic and thermal Energies=              -764.602927
 Sum of electronic and thermal Enthalpies=            -764.601983
 Sum of electronic and thermal Free Energies=         -764.647237

                     E (Thermal)             CV                S
                      KCal/Mol        Cal/Mol-Kelvin    Cal/Mol-Kelvin
 Total                   38.677             30.759             95.245
 Electronic               0.000              0.000              0.000
 Translational            0.889              2.981             41.192
 Rotational               0.889              2.981             29.229
 Vibrational             36.900             24.797             24.824
 Vibration     1          0.593              1.984              5.858
 Vibration     2          0.597              1.971              4.314
 Vibration     3          0.616              1.910              2.765
 Vibration     4          0.644              1.820              2.011
 Vibration     5          0.671              1.736              1.626
 Vibration     6          0.688              1.687              1.456
 Vibration     7          0.735              1.554              1.121
 Vibration     8          0.747              1.521              1.055
 Vibration     9          0.762              1.481              0.981
 Vibration    10          0.871              1.214              0.619
 Vibration    11          0.881              1.192              0.596
 Vibration    12          0.904              1.142              0.546
 Vibration    13          0.951              1.046              0.461

 Optimization completed.
    -- Stationary point found.
 Normal termination of Gaussian 16 at Fri May 23 23:43:09 2025.
