 Gaussian 16, Revision C.01,
 Gaussian 16:  ES64L-G16RevC.01  3-Jul-2019

 -----------------------------------------------------------------
 #P M062X/Def2TZVPP Symm(None) scf(xqc) pop(None) freq opt(CalcFC)
 -----------------------------------------------------------------

 ------------------------------
 Gaussian input prepared by ASE
 ------------------------------
 Symbolic Z-matrix:
 Charge =  0 Multiplicity = 1

 SCF Done:  E(RM062X) =  -764.362318031     A.U. after   18 cycles
 SCF Done:  E(RM062X) =  -764.415197417     A.U. after   18 cycles
 SCF Done:  E(RM062X) =  -764.438452994     A.U. after   16 cycles
 SCF Done:  E(RM062X) =  -764.435381711     A.U. after   15 cycles
 SCF Done:  E(RM062X) =  -764.439553112     A.U. after   14 cycles
 SCF Done:  E(RM062X) =  -764.448910721     A.U. after   15 cycles
 SCF Done:  E(RM062X) =  -764.448953705     A.U. after   17 cycles
 SCF Done:  E(RM062X) =  -764.455735247     A.U. after   14 cycles
 SCF Done:  E(RM062X) =  -764.420595421     A.U. after   18 cycles
 SCF Done:  E(RM062X) =  -764.457840972     A.U. after   15 cycles
 SCF Done:  E(RM062X) =  -764.463207989     A.U. after   10 cycles
 SCF Done:  E(RM062X) =  -764.463219120     A.U. after   11 cycles
 SCF Done:  E(RM062X) =  -764.463222447     A.U. after   10 cycles
 SCF Done:  E(RM062X) =  -764.463224381     A.U. after    9 cycles
 SCF Done:  E(RM062X) =  -764.463225791     A.U. after   10 cycles
 SCF Done:  E(RM062X) =  -764.463226362     A.U. after    9 cycles
 SCF Done:  E(RM062X) =  -764.463226912     A.U. after    9 cycles
 SCF Done:  E(RM062X) =  -764.463227200     A.U. after    9 cycles
 SCF Done:  E(RM062X) =  -764.463227286     A.U. after    7 cycles
 Optimization completed.
    -- Stationary point found.
 Normal termination of Gaussian 16 at Sat May 24 09:06:08 2025.

 ---------------------------------------------------------------------
 #P Geom=AllCheck Guess=TCheck SCRF=Check GenChk RM062X/def2TZVPP Freq
 ---------------------------------------------------------------------

 Structure from the checkpoint file:  "/tmp/Gau-227469.chk"
 ------------------------------
 Gaussian input prepared by ASE
 ------------------------------
 Charge =  0 Multiplicity = 1

                          Input orientation:
 ---------------------------------------------------------------------
 Center     Atomic      Atomic             Coordinates (Angstroms)
 Number     Number       Type             X           Y           Z
 ---------------------------------------------------------------------
      1          6           0        2.130895    1.989504   -0.515696
      2          8           0        0.922073    0.042638    0.199153
      3          6           0        2.986465    0.980062   -1.297645
      4          6           0        2.188424    0.239629   -2.432065
      5          9           0        2.868196    0.291362   -3.567824
      6          9           0        1.979192   -1.024089   -2.130846
      7          9           0        1.018171    0.848720   -2.623918
      8          9           0        3.982589    1.664352   -1.870964
      9          9           0        3.527853    0.093235   -0.457944
     10          8           0        1.213562    1.626537    0.171292
     11          1           0        0.008981    0.079032    0.512072
 ---------------------------------------------------------------------

 SCF Done:  E(RM062X) =  -764.463227286     A.U. after    1 cycles

 Isotropic polarizability for W=    0.000000       53.12 Bohr**3.
 End of Minotr F.D. properties file   721 does not exist.

                      1                      2                      3
                      A                      A                      A
 Frequencies --     47.1432                99.7014               157.0291
 Red. masses --     10.4841                 8.6699                 1.8836
 Frc consts  --      0.0137                 0.0508                 0.0274
 IR Inten    --      3.1554                 0.6155                58.8849

                      4                      5                      6
                      A                      A                      A
 Frequencies --    175.5959               205.8219               261.1951
 Red. masses --      2.4115                12.0260                17.4598
 Frc consts  --      0.0438                 0.3002                 0.7018
 IR Inten    --     54.8325                13.8006                 9.2865

                      7                      8                      9
                      A                      A                      A
 Frequencies --    269.7556               324.4352               370.6940
 Red. masses --     13.7433                17.0157                18.1112
 Frc consts  --      0.5892                 1.0552                 1.4663
 IR Inten    --     55.6239                34.2879                18.0043

                     10                     11                     12
                      A                      A                      A
 Frequencies --    387.6457               431.2745               489.4075
 Red. masses --     16.0475                 9.9050                14.3216
 Frc consts  --      1.4208                 1.0855                 2.0211
 IR Inten    --    159.5666                79.3865                 4.0930

                     13                     14                     15
                      A                      A                      A
 Frequencies --    509.7133               565.7168               599.2998
 Red. masses --     13.5059                14.7130                17.2148
 Frc consts  --      2.0674                 2.7743                 3.6428
 IR Inten    --      2.9713                 5.0605                 4.7720

                     16                     17                     18
                      A                      A                      A
 Frequencies --    688.4518               726.1112               799.4077
 Red. masses --     15.9610                 9.5229                15.1977
 Frc consts  --      4.4572                 2.9582                 5.7222
 IR Inten    --     16.0866                24.2312                 5.1775

                     19                     20                     21
                      A                      A                      A
 Frequencies --   1055.1427              1177.3601              1203.5147
 Red. masses --     12.9987                 1.1949                12.6058
 Frc consts  --      8.5265                 0.9759                10.7578
 IR Inten    --    115.7742                62.2972               264.9188

                     22                     23                     24
                      A                      A                      A
 Frequencies --   1251.5792              1271.8365              1304.4142
 Red. masses --     12.9098                12.9309                13.0748
 Frc consts  --     11.9148                12.3237                13.1074
 IR Inten    --    224.2741               114.1672               222.5914

                     25                     26                     27
                      A                      A                      A
 Frequencies --   1342.7071              1690.8909              3846.3912
 Red. masses --     12.5001                12.6569                 1.0683
 Frc consts  --     13.2778                21.3210                 9.3118
 IR Inten    --    140.1558               148.6385               141.4234

 - Thermochemistry -
 -------------------
 Temperature   298.150 Kelvin.  Pressure   1.00000 Atm.
 Atom     1 has atomic number  6 and mass  12.00000

 Molecular mass:   163.98967 amu.
 Principal axes and moments of inertia in atomic units:
                           1         2         3
     Eigenvalues --  1000.228851373.830891653.68769
           X           -0.39695   0.82016  -0.41203
           Y            0.18953   0.51248   0.83752
           Z            0.89806   0.25436  -0.35887
 This molecule is an asymmetric top.
 Rotational symmetry number  1.
 Warning -- assumption of classical behavior for rotation
           may cause significant error
 Rotational temperatures (Kelvin)      0.08659     0.06305     0.05238
 Rotational constants (GHZ):           1.80433     1.31366     1.09134
 Zero-point vibrational energy     127116.6 (Joules/Mol)
                                   30.38160 (Kcal/Mol)
 Warning -- explicit consideration of  15 degrees of freedom as
           vibrations may cause significant error
 Vibrational temperatures:     67.83   143.45   225.93   252.64   296.13
          (Kelvin)            375.80   388.12   466.79   533.35   557.74
                              620.51   704.15   733.36   813.94   862.26
                              990.53  1044.71  1150.17  1518.12  1693.96
                             1731.59  1800.74  1829.89  1876.76  1931.86
                             2432.81  5534.10

 Zero-point correction=                           0.048416 (Hartree/Particle)
 Thermal correction to Energy=                    0.058070
 Thermal correction to Enthalpy=                  0.059014
 Thermal correction to Gibbs Free Energy=         0.013077
 Sum of electronic and zero-point Energies=           -764.414811
 Sum of electronic and thermal Energies=              -764.405157
 Sum of electronic and thermal Enthalpies=            -764.404213
 Sum of electronic and thermal Free Energies=         -764.450150

                     E (Thermal)             CV                S
                      KCal/Mol        Cal/Mol-Kelvin    Cal/Mol-Kelvin
 Total                   36.440             33.334             96.683
 Electronic               0.000              0.000              0.000
 Translational            0.889              2.981             41.192
 Rotational               0.889              2.981             29.209
 Vibrational             34.662             27.373             26.281
 Vibration     1          0.595              1.979              4.934
 Vibration     2          0.604              1.949              3.460
 Vibration     3          0.621              1.895              2.585
 Vibration     4          0.628              1.872              2.375
 Vibration     5          0.640              1.832              2.080
 Vibration     6          0.669              1.744              1.654
 Vibration     7          0.674              1.729              1.598
 Vibration     8          0.709              1.627              1.288
 Vibration     9          0.743              1.532              1.077
 Vibration    10          0.756              1.497              1.009
 Vibration    11          0.792              1.402              0.854
 Vibration    12          0.845              1.274              0.685
 Vibration    13          0.865              1.228              0.634
 Vibration    14          0.922              1.105              0.513
 Vibration    15          0.957              1.033              0.451

 Optimization completed.
    -- Stationary point found.
 Normal termination of Gaussian 16 at Sat May 24 09:08:50 2025.
