 Gaussian 16, Revision C.01,
 Gaussian 16:  ES64L-G16RevC.01  3-Jul-2019

 -----------------------------------------------------------------
 #P M062X/Def2TZVPP Symm(None) scf(xqc) pop(None) freq opt(CalcFC)
 -----------------------------------------------------------------

 ------------------------------
 Gaussian input prepared by ASE
 ------------------------------
 Symbolic Z-matrix:
 Charge =  0 Multiplicity = 1

 SCF Done:  E(RM062X) =  -764.483968696     A.U. after   15 cycles
 SCF Done:  E(RM062X) =  -764.489823149     A.U. after   15 cycles
 SCF Done:  E(RM062X) =  -764.490621112     A.U. after   16 cycles
 SCF Done:  E(RM062X) =  -764.490982583     A.U. after   14 cycles
 SCF Done:  E(RM062X) =  -764.491194151     A.U. after   13 cycles
 SCF Done:  E(RM062X) =  -764.491222586     A.U. after   12 cycles
 SCF Done:  E(RM062X) =  -764.491225813     A.U. after   12 cycles
 SCF Done:  E(RM062X) =  -764.491243160     A.U. after   11 cycles
 SCF Done:  E(RM062X) =  -764.491245766     A.U. after   11 cycles
 SCF Done:  E(RM062X) =  -764.491245867     A.U. after    8 cycles
 Optimization completed.
    -- Stationary point found.
 Normal termination of Gaussian 16 at Sat May 24 06:38:28 2025.

 ---------------------------------------------------------------------
 #P Geom=AllCheck Guess=TCheck SCRF=Check GenChk RM062X/def2TZVPP Freq
 ---------------------------------------------------------------------

 Structure from the checkpoint file:  "/tmp/Gau-135558.chk"
 ------------------------------
 Gaussian input prepared by ASE
 ------------------------------
 Charge =  0 Multiplicity = 1

                          Input orientation:
 ---------------------------------------------------------------------
 Center     Atomic      Atomic             Coordinates (Angstroms)
 Number     Number       Type             X           Y           Z
 ---------------------------------------------------------------------
      1          6           0        1.393815    0.025851   -0.113005
      2          8           0        0.138889    0.073682    0.373656
      3          6           0        2.010643   -1.151277   -0.202581
      4          6           0        1.414138   -2.523284   -0.030423
      5          9           0        1.876893   -3.323277   -0.991031
      6          9           0        1.779290   -3.056179    1.138702
      7          9           0        0.091697   -2.523103   -0.091054
      8          9           0       -0.678361    0.580595   -0.685916
      9          9           0        3.314722   -1.194217   -0.437948
     10          8           0        1.999295    1.178119   -0.405364
     11          1           0        1.491897    1.909667   -0.035358
 ---------------------------------------------------------------------

 SCF Done:  E(RM062X) =  -764.491245867     A.U. after    1 cycles

 Isotropic polarizability for W=    0.000000       51.22 Bohr**3.
 End of Minotr F.D. properties file   721 does not exist.

                      1                      2                      3
                      A                      A                      A
 Frequencies --     23.1917                81.1493               103.6113
 Red. masses --     18.5876                16.2906                14.9519
 Frc consts  --      0.0059                 0.0632                 0.0946
 IR Inten    --      0.1807                 1.6952                 1.3391

                      4                      5                      6
                      A                      A                      A
 Frequencies --    193.8938               215.5373               258.6825
 Red. masses --     13.8641                 2.7866                 1.7460
 Frc consts  --      0.3071                 0.0763                 0.0688
 IR Inten    --      0.1159                26.4038                72.8559

                      7                      8                      9
                      A                      A                      A
 Frequencies --    271.3152               327.2373               368.2785
 Red. masses --      9.5330                10.1522                13.3727
 Frc consts  --      0.4135                 0.6405                 1.0686
 IR Inten    --      9.8685                 3.3462                 0.7067

                     10                     11                     12
                      A                      A                      A
 Frequencies --    376.0203               496.5238               512.6717
 Red. masses --     12.0417                16.4616                13.2714
 Frc consts  --      1.0031                 2.3911                 2.0552
 IR Inten    --      0.8908                 1.8249                 5.2767

                     13                     14                     15
                      A                      A                      A
 Frequencies --    594.6083               612.6626               683.8287
 Red. masses --      8.9621                13.5192                10.4825
 Frc consts  --      1.8669                 2.9898                 2.8881
 IR Inten    --     21.0937                 2.1601                22.5572

                     16                     17                     18
                      A                      A                      A
 Frequencies --    751.6529               818.9839               899.4402
 Red. masses --     14.5276                11.8747                15.5661
 Frc consts  --      4.8359                 4.6927                 7.4195
 IR Inten    --     50.5528                34.3631               102.9879

                     19                     20                     21
                      A                      A                      A
 Frequencies --   1048.5692              1189.9663              1225.7368
 Red. masses --      8.8811                 2.9602                12.9023
 Frc consts  --      5.7532                 2.4697                11.4212
 IR Inten    --    243.2000                20.5942               295.7976

                     22                     23                     24
                      A                      A                      A
 Frequencies --   1278.9686              1308.0923              1377.1685
 Red. masses --     12.7693                 2.2541                 8.4863
 Frc consts  --     12.3066                 2.2725                 9.4829
 IR Inten    --    320.4499                83.8880               217.6463

                     25                     26                     27
                      A                      A                      A
 Frequencies --   1417.7924              1843.7890              3851.3611
 Red. masses --     10.7697                 9.6848                 1.0657
 Frc consts  --     12.7549                19.3983                 9.3136
 IR Inten    --    267.4234                87.8994               167.9973

 - Thermochemistry -
 -------------------
 Temperature   298.150 Kelvin.  Pressure   1.00000 Atm.
 Atom     1 has atomic number  6 and mass  12.00000

 Molecular mass:   163.98967 amu.
 Principal axes and moments of inertia in atomic units:
                           1         2         3
     Eigenvalues --   913.527971755.801402280.15175
           X           -0.32412   0.94431   0.05680
           Y            0.94300   0.31771   0.09907
           Z           -0.07551  -0.08568   0.99346
 This molecule is an asymmetric top.
 Rotational symmetry number  1.
 Warning -- assumption of classical behavior for rotation
           may cause significant error
 Rotational temperatures (Kelvin)      0.09481     0.04933     0.03799
 Rotational constants (GHZ):           1.97557     1.02787     0.79150
 Zero-point vibrational energy     132371.2 (Joules/Mol)
                                   31.63747 (Kcal/Mol)
 Warning -- explicit consideration of  14 degrees of freedom as
           vibrations may cause significant error
 Vibrational temperatures:     33.37   116.76   149.07   278.97   310.11
          (Kelvin)            372.19   390.36   470.82   529.87   541.01
                              714.39   737.62   855.51   881.48   983.88
                             1081.46  1178.34  1294.09  1508.66  1712.10
                             1763.56  1840.15  1882.05  1981.44  2039.89
                             2652.80  5541.25

 Zero-point correction=                           0.050418 (Hartree/Particle)
 Thermal correction to Energy=                    0.059942
 Thermal correction to Enthalpy=                  0.060887
 Thermal correction to Gibbs Free Energy=         0.014007
 Sum of electronic and zero-point Energies=           -764.440828
 Sum of electronic and thermal Energies=              -764.431303
 Sum of electronic and thermal Enthalpies=            -764.430359
 Sum of electronic and thermal Free Energies=         -764.477239

                     E (Thermal)             CV                S
                      KCal/Mol        Cal/Mol-Kelvin    Cal/Mol-Kelvin
 Total                   37.614             32.183             98.666
 Electronic               0.000              0.000              0.000
 Translational            0.889              2.981             41.192
 Rotational               0.889              2.981             29.682
 Vibrational             35.837             26.221             27.792
 Vibration     1          0.593              1.985              6.340
 Vibration     2          0.600              1.962              3.863
 Vibration     3          0.605              1.946              3.385
 Vibration     4          0.635              1.848              2.190
 Vibration     5          0.645              1.817              1.996
 Vibration     6          0.667              1.748              1.671
 Vibration     7          0.675              1.726              1.588
 Vibration     8          0.711              1.621              1.274
 Vibration     9          0.741              1.537              1.087
 Vibration    10          0.747              1.521              1.055
 Vibration    11          0.852              1.258              0.667
 Vibration    12          0.868              1.222              0.627
 Vibration    13          0.952              1.043              0.459
 Vibration    14          0.972              1.005              0.428

 Optimization completed.
    -- Stationary point found.
 Normal termination of Gaussian 16 at Sat May 24 06:41:41 2025.
