 Gaussian 16, Revision C.01,
 Gaussian 16:  ES64L-G16RevC.01  3-Jul-2019

 ----------------------------------------------------------------------
 #P M062X/Def2TZVPP Symm(None) scf(xqc) pop(None) opt(NoFreeze,TS,CalcA
 ll,NoEigentest,MaxCycle=999)
 ----------------------------------------------------------------------

 ------------------------------
 Gaussian input prepared by ASE
 ------------------------------
 Symbolic Z-matrix:
 Charge =  0 Multiplicity = 1

 SCF Done:  E(RM062X) =  -764.416484201     A.U. after   22 cycles
 SCF Done:  E(RM062X) =  -764.443103907     A.U. after   20 cycles
 SCF Done:  E(RM062X) =  -764.451080093     A.U. after   18 cycles
 SCF Done:  E(RM062X) =  -764.451746121     A.U. after   17 cycles
 SCF Done:  E(RM062X) =  -764.451770082     A.U. after   16 cycles
 SCF Done:  E(RM062X) =  -764.451770169     A.U. after   11 cycles

 Isotropic polarizability for W=    0.000000       59.18 Bohr**3.
 End of Minotr F.D. properties file   721 does not exist.

 Optimization completed.
    -- Stationary point found.

                          Input orientation:
 ---------------------------------------------------------------------
 Center     Atomic      Atomic             Coordinates (Angstroms)
 Number     Number       Type             X           Y           Z
 ---------------------------------------------------------------------
      1          6           0        2.132834    0.993660   -0.443482
      2          8           0        1.546777    1.686469   -1.267464
      3          6           0        1.428053   -0.097136    0.108601
      4          6           0        1.909588   -0.948931    1.284948
      5          9           0        3.043434   -1.553454    0.950190
      6          9           0        2.119656   -0.189853    2.342827
      7          9           0        1.002826   -1.865333    1.574490
      8          9           0        0.545179    2.403827    0.235502
      9          9           0        0.314119   -0.443106   -0.401177
     10          8           0        3.311769    1.271443    0.119936
     11          1           0        3.534699    2.188697   -0.086452
 ---------------------------------------------------------------------

 ******    1 imaginary frequencies (negative Signs) ******

                      1                      2                      3
                      A                      A                      A
 Frequencies --   -475.5777                39.1052                66.8033
 Red. masses --     15.3679                17.3295                14.6535
 Frc consts  --      2.0479                 0.0156                 0.0385
 IR Inten    --    304.3693                 2.2454                 7.4749

                      4                      5                      6
                      A                      A                      A
 Frequencies --     94.3008               157.2362               220.1063
 Red. masses --     10.3681                10.7210                11.3805
 Frc consts  --      0.0543                 0.1562                 0.3248
 IR Inten    --      6.4476                 1.1989                 4.0780

                      7                      8                      9
                      A                      A                      A
 Frequencies --    256.3964               297.0428               355.9178
 Red. masses --      9.5133                10.0289                 1.2819
 Frc consts  --      0.3685                 0.5214                 0.0957
 IR Inten    --     74.4243                 8.0645                80.5839

                     10                     11                     12
                      A                      A                      A
 Frequencies --    375.5811               386.4519               482.7868
 Red. masses --     15.3639                15.2692                12.9196
 Frc consts  --      1.2769                 1.3436                 1.7742
 IR Inten    --     10.2138                 9.0917                40.5668

                     13                     14                     15
                      A                      A                      A
 Frequencies --    506.6363               578.9022               612.0937
 Red. masses --     10.3478                12.3124                12.9105
 Frc consts  --      1.5649                 2.4311                 2.8499
 IR Inten    --     15.2267                 8.5664                 5.1109

                     16                     17                     18
                      A                      A                      A
 Frequencies --    694.2358               749.0937               804.6776
 Red. masses --      7.6081                11.6396                11.7493
 Frc consts  --      2.1604                 3.8482                 4.4823
 IR Inten    --     50.2347                 4.0173                 9.8884

                     19                     20                     21
                      A                      A                      A
 Frequencies --   1102.1074              1192.9428              1262.4932
 Red. masses --     13.7664                 1.9410                13.1650
 Frc consts  --      9.8519                 1.6275                12.3631
 IR Inten    --    182.9653               263.0367               249.9056

                     22                     23                     24
                      A                      A                      A
 Frequencies --   1299.8277              1323.5817              1453.3097
 Red. masses --     13.1748                 3.8296                 9.6477
 Frc consts  --     13.1149                 3.9528                12.0058
 IR Inten    --    220.6991               167.6918               490.2163

                     25                     26                     27
                      A                      A                      A
 Frequencies --   1529.8656              1653.7351              3826.4013
 Red. masses --      7.0606                12.9354                 1.0650
 Frc consts  --      9.7364                20.8431                 9.1872
 IR Inten    --    179.9988                97.1675               162.1854

 - Thermochemistry -
 -------------------
 Temperature   298.150 Kelvin.  Pressure   1.00000 Atm.
 Atom     1 has atomic number  6 and mass  12.00000

 Molecular mass:   163.98967 amu.
 Principal axes and moments of inertia in atomic units:
                           1         2         3
     Eigenvalues --   883.976811797.389662035.77023
           X           -0.14024   0.95535  -0.26008
           Y            0.84175   0.25335   0.47673
           Z           -0.52134   0.15206   0.83969
 This molecule is an asymmetric top.
 Rotational symmetry number  1.
 Warning -- assumption of classical behavior for rotation
           may cause significant error
 Rotational temperatures (Kelvin)      0.09798     0.04819     0.04255
 Rotational constants (GHZ):           2.04162     1.00409     0.88652
    1 imaginary frequencies ignored.
 Zero-point vibrational energy     127531.7 (Joules/Mol)
                                   30.48080 (Kcal/Mol)
 Warning -- explicit consideration of  14 degrees of freedom as
           vibrations may cause significant error
 Vibrational temperatures:     56.26    96.12   135.68   226.23   316.68
          (Kelvin)            368.90   427.38   512.09   540.38   556.02
                              694.62   728.94   832.91   880.67   998.85
                             1077.78  1157.75  1585.69  1716.38  1816.45
                             1870.16  1904.34  2090.99  2201.14  2379.36
                             5505.34

 Zero-point correction=                           0.048574 (Hartree/Particle)
 Thermal correction to Energy=                    0.058042
 Thermal correction to Enthalpy=                  0.058986
 Thermal correction to Gibbs Free Energy=         0.012427
 Sum of electronic and zero-point Energies=           -764.403196
 Sum of electronic and thermal Energies=              -764.393729
 Sum of electronic and thermal Enthalpies=            -764.392784
 Sum of electronic and thermal Free Energies=         -764.439343

                     E (Thermal)             CV                S
                      KCal/Mol        Cal/Mol-Kelvin    Cal/Mol-Kelvin
 Total                   36.422             31.554             97.991
 Electronic               0.000              0.000              0.000
 Translational            0.889              2.981             41.192
 Rotational               0.889              2.981             29.560
 Vibrational             34.644             25.593             27.239
 Vibration     1          0.594              1.981              5.304
 Vibration     2          0.598              1.970              4.245
 Vibration     3          0.603              1.953              3.569
 Vibration     4          0.621              1.895              2.583
 Vibration     5          0.647              1.810              1.958
 Vibration     6          0.666              1.752              1.686
 Vibration     7          0.691              1.679              1.434
 Vibration     8          0.731              1.563              1.140
 Vibration     9          0.746              1.522              1.057
 Vibration    10          0.755              1.499              1.014
 Vibration    11          0.839              1.288              0.703
 Vibration    12          0.862              1.235              0.642
 Vibration    13          0.935              1.077              0.487
 Vibration    14          0.971              1.006              0.429

 Normal termination of Gaussian 16 at Sat May 24 07:51:54 2025.
