 Gaussian 16, Revision C.01,
 Gaussian 16:  ES64L-G16RevC.01  3-Jul-2019

 -----------------------------------------------------------------
 #P M062X/Def2TZVPP Symm(None) scf(xqc) pop(None) freq opt(CalcFC)
 -----------------------------------------------------------------

 ------------------------------
 Gaussian input prepared by ASE
 ------------------------------
 Symbolic Z-matrix:
 Charge =  0 Multiplicity = 1

 SCF Done:  E(RM062X) =  -764.453831171     A.U. after   15 cycles
 SCF Done:  E(RM062X) =  -764.465554141     A.U. after   15 cycles
 SCF Done:  E(RM062X) =  -764.458186250     A.U. after   14 cycles
 SCF Done:  E(RM062X) =  -764.465787396     A.U. after   15 cycles
 SCF Done:  E(RM062X) =  -764.466346673     A.U. after   13 cycles
 SCF Done:  E(RM062X) =  -764.466390019     A.U. after   14 cycles
 SCF Done:  E(RM062X) =  -764.466401684     A.U. after   13 cycles
 SCF Done:  E(RM062X) =  -764.466408452     A.U. after   12 cycles
 SCF Done:  E(RM062X) =  -764.466408604     A.U. after    9 cycles
 SCF Done:  E(RM062X) =  -764.466408632     A.U. after    8 cycles
 Optimization completed.
    -- Stationary point found.
 Normal termination of Gaussian 16 at Sat May 24 08:50:05 2025.

 ---------------------------------------------------------------------
 #P Geom=AllCheck Guess=TCheck SCRF=Check GenChk RM062X/def2TZVPP Freq
 ---------------------------------------------------------------------

 Structure from the checkpoint file:  "/tmp/Gau-129542.chk"
 ------------------------------
 Gaussian input prepared by ASE
 ------------------------------
 Charge =  0 Multiplicity = 1

                          Input orientation:
 ---------------------------------------------------------------------
 Center     Atomic      Atomic             Coordinates (Angstroms)
 Number     Number       Type             X           Y           Z
 ---------------------------------------------------------------------
      1          6           0        0.627755    2.097209   -0.871815
      2          8           0        0.958543    0.099325    0.092952
      3          6           0        0.981407    3.585416   -0.742482
      4          6           0        1.808882    4.032108   -1.966461
      5          9           0        2.165818    5.299513   -1.838565
      6          9           0        2.904332    3.280675   -2.049501
      7          9           0        1.108283    3.893298   -3.080464
      8          9           0       -0.169542    4.275714   -0.728789
      9          9           0        1.678359    3.915312    0.358139
     10          8           0        1.195974    1.505885    0.071861
     11          1           0        0.387958   -0.003032   -0.691629
 ---------------------------------------------------------------------

 SCF Done:  E(RM062X) =  -764.466408632     A.U. after    1 cycles

 Isotropic polarizability for W=    0.000000       49.87 Bohr**3.
 End of Minotr F.D. properties file   721 does not exist.

                      1                      2                      3
                      A                      A                      A
 Frequencies --     39.1246                58.9101               164.2698
 Red. masses --     15.5419                15.3582                 5.8056
 Frc consts  --      0.0140                 0.0314                 0.0923
 IR Inten    --      0.3533                 0.1706                 3.8149

                      4                      5                      6
                      A                      A                      A
 Frequencies --    203.9027               223.2610               259.2316
 Red. masses --      8.6603                 8.2301                13.3608
 Frc consts  --      0.2121                 0.2417                 0.5290
 IR Inten    --      1.2474                 3.6468                 0.7114

                      7                      8                      9
                      A                      A                      A
 Frequencies --    343.5115               358.7945               383.0943
 Red. masses --     14.5633                15.4661                 9.1196
 Frc consts  --      1.0125                 1.1731                 0.7886
 IR Inten    --      1.1920                 0.4842                11.5093

                     10                     11                     12
                      A                      A                      A
 Frequencies --    408.6895               431.4172               503.7055
 Red. masses --      1.9692                 3.5324                12.9736
 Frc consts  --      0.1938                 0.3874                 1.9394
 IR Inten    --     63.0674                33.5861                10.5920

                     13                     14                     15
                      A                      A                      A
 Frequencies --    549.0797               609.4930               649.9482
 Red. masses --     16.9674                16.5738                15.0054
 Frc consts  --      3.0139                 3.6275                 3.7347
 IR Inten    --      4.3730                 2.8923                11.8050

                     16                     17                     18
                      A                      A                      A
 Frequencies --    750.9521               841.9705               960.7610
 Red. masses --     14.1141                13.4934                11.1663
 Frc consts  --      4.6895                 5.6359                 6.0728
 IR Inten    --     53.1751                25.9998                44.8580

                     19                     20                     21
                      A                      A                      A
 Frequencies --   1070.1441              1227.8612              1246.0705
 Red. masses --     12.7327                11.9389                13.0962
 Frc consts  --      8.5912                10.6050                11.9807
 IR Inten    --    140.3386               225.2954               147.4003

                     22                     23                     24
                      A                      A                      A
 Frequencies --   1281.6242              1301.5037              1386.4336
 Red. masses --     12.8655                12.9089                11.7100
 Frc consts  --     12.4508                12.8834                13.2619
 IR Inten    --    234.8431               190.3580               145.4950

                     25                     26                     27
                      A                      A                      A
 Frequencies --   1467.5415              1520.7509              3676.8491
 Red. masses --      1.7352                 2.9869                 1.0662
 Frc consts  --      2.2019                 4.0700                 8.4929
 IR Inten    --     26.2432                43.3018                63.3122

 - Thermochemistry -
 -------------------
 Temperature   298.150 Kelvin.  Pressure   1.00000 Atm.
 Atom     1 has atomic number  6 and mass  12.00000

 Molecular mass:   163.98967 amu.
 Principal axes and moments of inertia in atomic units:
                           1         2         3
     Eigenvalues --   834.072011923.775062096.12648
           X            0.19246  -0.53873   0.82020
           Y            0.84679   0.51355   0.13861
           Z           -0.49589   0.66786   0.55503
 This molecule is an asymmetric top.
 Rotational symmetry number  1.
 Warning -- assumption of classical behavior for rotation
           may cause significant error
 Rotational temperatures (Kelvin)      0.10384     0.04502     0.04132
 Rotational constants (GHZ):           2.16377     0.93812     0.86099
 Zero-point vibrational energy     131104.1 (Joules/Mol)
                                   31.33463 (Kcal/Mol)
 Warning -- explicit consideration of  14 degrees of freedom as
           vibrations may cause significant error
 Vibrational temperatures:     56.29    84.76   236.35   293.37   321.22
          (Kelvin)            372.98   494.24   516.23   551.19   588.01
                              620.71   724.72   790.00   876.92   935.13
                             1080.45  1211.41  1382.32  1539.70  1766.62
                             1792.82  1843.97  1872.57  1994.77  2111.46
                             2188.02  5290.17

 Zero-point correction=                           0.049935 (Hartree/Particle)
 Thermal correction to Energy=                    0.059244
 Thermal correction to Enthalpy=                  0.060188
 Thermal correction to Gibbs Free Energy=         0.014244
 Sum of electronic and zero-point Energies=           -764.416474
 Sum of electronic and thermal Energies=              -764.407164
 Sum of electronic and thermal Enthalpies=            -764.406220
 Sum of electronic and thermal Free Energies=         -764.452164

                     E (Thermal)             CV                S
                      KCal/Mol        Cal/Mol-Kelvin    Cal/Mol-Kelvin
 Total                   37.176             31.999             96.697
 Electronic               0.000              0.000              0.000
 Translational            0.889              2.981             41.192
 Rotational               0.889              2.981             29.599
 Vibrational             35.399             26.038             25.906
 Vibration     1          0.594              1.981              5.303
 Vibration     2          0.596              1.974              4.493
 Vibration     3          0.623              1.886              2.500
 Vibration     4          0.640              1.834              2.098
 Vibration     5          0.649              1.806              1.932
 Vibration     6          0.668              1.747              1.667
 Vibration     7          0.722              1.588              1.196
 Vibration     8          0.734              1.557              1.127
 Vibration     9          0.752              1.506              1.027
 Vibration    10          0.773              1.451              0.931
 Vibration    11          0.792              1.402              0.854
 Vibration    12          0.859              1.242              0.649
 Vibration    13          0.904              1.142              0.546
 Vibration    14          0.968              1.012              0.434

 Optimization completed.
    -- Stationary point found.
 Normal termination of Gaussian 16 at Sat May 24 08:53:11 2025.
