 Gaussian 16, Revision C.01,
 Gaussian 16:  ES64L-G16RevC.01  3-Jul-2019

 -----------------------------------------------------------------
 #P M062X/Def2TZVPP Symm(None) scf(xqc) pop(None) freq opt(CalcFC)
 -----------------------------------------------------------------

 ------------------------------
 Gaussian input prepared by ASE
 ------------------------------
 Symbolic Z-matrix:
 Charge =  0 Multiplicity = 1

 SCF Done:  E(RM062X) =  -764.357892068     A.U. after   18 cycles
 SCF Done:  E(RM062X) =  -764.419858192     A.U. after   18 cycles
 SCF Done:  E(RM062X) =  -764.422338943     A.U. after   16 cycles
 SCF Done:  E(RM062X) =  -764.428449488     A.U. after   15 cycles
 SCF Done:  E(RM062X) =  -764.441301621     A.U. after   15 cycles
 SCF Done:  E(RM062X) =  -764.439362954     A.U. after   15 cycles
 SCF Done:  E(RM062X) =  -764.449570447     A.U. after   16 cycles
 SCF Done:  E(RM062X) =  -764.426594898     A.U. after   19 cycles
 SCF Done:  E(RM062X) =  -764.454825565     A.U. after   15 cycles
 SCF Done:  E(RM062X) =  -764.456192847     A.U. after   14 cycles
 SCF Done:  E(RM062X) =  -764.463200940     A.U. after    8 cycles
 SCF Done:  E(RM062X) =  -764.463202814     A.U. after    9 cycles
 SCF Done:  E(RM062X) =  -764.463206641     A.U. after    9 cycles
 SCF Done:  E(RM062X) =  -764.463213040     A.U. after   11 cycles
 SCF Done:  E(RM062X) =  -764.463217196     A.U. after   10 cycles
 SCF Done:  E(RM062X) =  -764.463219657     A.U. after   10 cycles
 SCF Done:  E(RM062X) =  -764.463223675     A.U. after    9 cycles
 SCF Done:  E(RM062X) =  -764.463225671     A.U. after   10 cycles
 SCF Done:  E(RM062X) =  -764.463225971     A.U. after    8 cycles
 Optimization completed.
    -- Stationary point found.
 Normal termination of Gaussian 16 at Sat May 24 09:07:28 2025.

 ---------------------------------------------------------------------
 #P Geom=AllCheck Guess=TCheck SCRF=Check GenChk RM062X/def2TZVPP Freq
 ---------------------------------------------------------------------

 Structure from the checkpoint file:  "/tmp/Gau-227470.chk"
 ------------------------------
 Gaussian input prepared by ASE
 ------------------------------
 Charge =  0 Multiplicity = 1

                          Input orientation:
 ---------------------------------------------------------------------
 Center     Atomic      Atomic             Coordinates (Angstroms)
 Number     Number       Type             X           Y           Z
 ---------------------------------------------------------------------
      1          6           0        1.240009    2.138486    1.031504
      2          8           0        0.419678    0.075899    0.116994
      3          6           0        1.417192    1.316362    2.317942
      4          6           0        2.491421    0.176285    2.180783
      5          9           0        3.339945    0.232989    3.196399
      6          9           0        1.933553   -1.015435    2.172070
      7          9           0        3.184094    0.349262    1.054974
      8          9           0        1.825745    2.157940    3.273991
      9          9           0        0.243277    0.803544    2.696804
     10          8           0        0.791233    1.641109    0.033271
     11          1           0        0.423304   -0.113991   -0.830054
 ---------------------------------------------------------------------

 SCF Done:  E(RM062X) =  -764.463225971     A.U. after    1 cycles

 Isotropic polarizability for W=    0.000000       53.13 Bohr**3.
 End of Minotr F.D. properties file   721 does not exist.

                      1                      2                      3
                      A                      A                      A
 Frequencies --     49.0761                98.4626               159.7497
 Red. masses --     11.0049                 8.2170                 2.8158
 Frc consts  --      0.0156                 0.0469                 0.0423
 IR Inten    --      2.7965                 0.7960                34.0668

                      4                      5                      6
                      A                      A                      A
 Frequencies --    179.0204               203.8487               260.6468
 Red. masses --      1.6912                12.3469                17.1632
 Frc consts  --      0.0319                 0.3023                 0.6870
 IR Inten    --     80.4683                13.5440                13.7544

                      7                      8                      9
                      A                      A                      A
 Frequencies --    269.2390               324.2508               370.6289
 Red. masses --     14.0398                16.9657                18.0941
 Frc consts  --      0.5996                 1.0510                 1.4644
 IR Inten    --     52.8531                33.7029                18.2023

                     10                     11                     12
                      A                      A                      A
 Frequencies --    387.2449               430.9850               489.4919
 Red. masses --     16.0401                 9.9292                14.3459
 Frc consts  --      1.4172                 1.0867                 2.0252
 IR Inten    --    158.3151                79.3903                 4.0828

                     13                     14                     15
                      A                      A                      A
 Frequencies --    509.1744               565.4941               599.3115
 Red. masses --     13.5329                14.7268                17.2157
 Frc consts  --      2.0672                 2.7747                 3.6432
 IR Inten    --      2.9259                 5.0462                 4.8014

                     16                     17                     18
                      A                      A                      A
 Frequencies --    688.5198               726.0784               799.4728
 Red. masses --     15.9638                 9.5408                15.2136
 Frc consts  --      4.4588                 2.9635                 5.7291
 IR Inten    --     16.1205                24.1827                 5.1705

                     19                     20                     21
                      A                      A                      A
 Frequencies --   1054.4266              1178.1355              1203.3996
 Red. masses --     12.9980                 1.1949                12.5106
 Frc consts  --      8.5145                 0.9772                10.6745
 IR Inten    --    115.4112                61.9207               266.0045

                     22                     23                     24
                      A                      A                      A
 Frequencies --   1251.8527              1271.9664              1303.7513
 Red. masses --     12.9082                12.9329                13.0766
 Frc consts  --     11.9185                12.3282                13.0959
 IR Inten    --    224.2388               114.6349               221.4530

                     25                     26                     27
                      A                      A                      A
 Frequencies --   1343.0371              1690.6377              3844.2932
 Red. masses --     12.4897                12.6554                 1.0683
 Frc consts  --     13.2733                21.3122                 9.3016
 IR Inten    --    140.3828               148.9228               141.1257

 - Thermochemistry -
 -------------------
 Temperature   298.150 Kelvin.  Pressure   1.00000 Atm.
 Atom     1 has atomic number  6 and mass  12.00000

 Molecular mass:   163.98967 amu.
 Principal axes and moments of inertia in atomic units:
                           1         2         3
     Eigenvalues --  1000.276601373.452171653.42168
           X            0.64761  -0.34011   0.68185
           Y           -0.21681   0.77561   0.59281
           Z            0.73047   0.53174  -0.42856
 This molecule is an asymmetric top.
 Rotational symmetry number  1.
 Warning -- assumption of classical behavior for rotation
           may cause significant error
 Rotational temperatures (Kelvin)      0.08659     0.06306     0.05238
 Rotational constants (GHZ):           1.80424     1.31402     1.09152
 Zero-point vibrational energy     127116.4 (Joules/Mol)
                                   30.38154 (Kcal/Mol)
 Warning -- explicit consideration of  15 degrees of freedom as
           vibrations may cause significant error
 Vibrational temperatures:     70.61   141.67   229.84   257.57   293.29
          (Kelvin)            375.01   387.37   466.52   533.25   557.16
                              620.09   704.27   732.59   813.62   862.28
                              990.63  1044.66  1150.26  1517.08  1695.07
                             1731.42  1801.14  1830.08  1875.81  1932.33
                             2432.45  5531.08

 Zero-point correction=                           0.048416 (Hartree/Particle)
 Thermal correction to Energy=                    0.058064
 Thermal correction to Enthalpy=                  0.059008
 Thermal correction to Gibbs Free Energy=         0.013116
 Sum of electronic and zero-point Energies=           -764.414810
 Sum of electronic and thermal Energies=              -764.405162
 Sum of electronic and thermal Enthalpies=            -764.404218
 Sum of electronic and thermal Free Energies=         -764.450110

                     E (Thermal)             CV                S
                      KCal/Mol        Cal/Mol-Kelvin    Cal/Mol-Kelvin
 Total                   36.436             33.335             96.589
 Electronic               0.000              0.000              0.000
 Translational            0.889              2.981             41.192
 Rotational               0.889              2.981             29.209
 Vibrational             34.658             27.373             26.187
 Vibration     1          0.595              1.978              4.854
 Vibration     2          0.604              1.950              3.485
 Vibration     3          0.622              1.892              2.553
 Vibration     4          0.629              1.868              2.339
 Vibration     5          0.640              1.834              2.098
 Vibration     6          0.669              1.745              1.657
 Vibration     7          0.674              1.730              1.601
 Vibration     8          0.709              1.627              1.289
 Vibration     9          0.743              1.533              1.077
 Vibration    10          0.756              1.497              1.011
 Vibration    11          0.792              1.403              0.855
 Vibration    12          0.845              1.273              0.685
 Vibration    13          0.864              1.230              0.636
 Vibration    14          0.921              1.106              0.513
 Vibration    15          0.957              1.033              0.451

 Optimization completed.
    -- Stationary point found.
 Normal termination of Gaussian 16 at Sat May 24 09:10:11 2025.
