 Gaussian 16, Revision C.01,
 Gaussian 16:  ES64L-G16RevC.01  3-Jul-2019

 ----------------------------------------------------------------------
 #P M062X/Def2TZVPP Symm(None) scf(xqc) pop(None) opt(NoFreeze,TS,CalcA
 ll,NoEigentest,MaxCycle=999)
 ----------------------------------------------------------------------

 ------------------------------
 Gaussian input prepared by ASE
 ------------------------------
 Symbolic Z-matrix:
 Charge =  0 Multiplicity = 1

 SCF Done:  E(RM062X) =  -764.475090999     A.U. after   14 cycles
 SCF Done:  E(RM062X) =  -764.490353470     A.U. after   15 cycles
 SCF Done:  E(RM062X) =  -764.492339161     A.U. after   13 cycles
 SCF Done:  E(RM062X) =  -764.492410169     A.U. after   11 cycles

 Isotropic polarizability for W=    0.000000       49.13 Bohr**3.
 End of Minotr F.D. properties file   721 does not exist.

 Optimization completed.
    -- Stationary point found.

                          Input orientation:
 ---------------------------------------------------------------------
 Center     Atomic      Atomic             Coordinates (Angstroms)
 Number     Number       Type             X           Y           Z
 ---------------------------------------------------------------------
      1          6           0        1.749288   -0.065397   -0.138294
      2          8           0        1.856833   -1.315166   -0.060934
      3          6           0        0.047691   -0.011833   -0.072373
      4          6           0        0.263493   -1.529862    0.017896
      5          9           0       -1.649853   -0.727730    0.043928
      6          9           0       -0.009041   -2.264676   -1.005542
      7          9           0        0.078639   -2.124130    1.146750
      8          9           0       -0.177439    0.709398    1.014845
      9          9           0       -0.269239    0.563473   -1.221893
     10          8           0        2.807638    0.658090   -0.227232
     11          1           0        2.572763    1.595120   -0.279327
 ---------------------------------------------------------------------

 ******    1 imaginary frequencies (negative Signs) ******

                      1                      2                      3
                      A                      A                      A
 Frequencies --   -631.9602               110.3105               136.3220
 Red. masses --     12.3751                 9.0073                18.1526
 Frc consts  --      2.9119                 0.0646                 0.1988
 IR Inten    --     23.3590                 0.9317                 1.9284

                      4                      5                      6
                      A                      A                      A
 Frequencies --    154.3426               204.8669               315.6125
 Red. masses --      8.9831                17.2864                18.1339
 Frc consts  --      0.1261                 0.4275                 1.0643
 IR Inten    --     12.2000                10.0329                 7.5622

                      7                      8                      9
                      A                      A                      A
 Frequencies --    348.7857               370.2934               386.1064
 Red. masses --     16.7220                17.5387                13.2592
 Frc consts  --      1.1986                 1.4169                 1.1646
 IR Inten    --      0.0260               241.3686                13.0974

                     10                     11                     12
                      A                      A                      A
 Frequencies --    406.5755               483.4498               499.3256
 Red. masses --     14.8565                13.2085                12.4788
 Frc consts  --      1.4469                 1.8189                 1.8331
 IR Inten    --     12.4112                95.5617                15.7376

                     13                     14                     15
                      A                      A                      A
 Frequencies --    520.0146               623.2940               671.4798
 Red. masses --     16.0978                 1.2376                14.7385
 Frc consts  --      2.5648                 0.2833                 3.9154
 IR Inten    --      0.7701               107.8196               583.1930

                     16                     17                     18
                      A                      A                      A
 Frequencies --    693.9182               727.5385               752.8647
 Red. masses --     12.0902                 6.3674                 9.4376
 Frc consts  --      3.4301                 1.9858                 3.1517
 IR Inten    --      1.5405                 0.3875                 7.8569

                     19                     20                     21
                      A                      A                      A
 Frequencies --    820.3269              1206.2144              1231.7325
 Red. masses --     14.8564                 2.1892                 2.7674
 Frc consts  --      5.8903                 1.8766                 2.4737
 IR Inten    --    449.4557                92.0816               422.5797

                     22                     23                     24
                      A                      A                      A
 Frequencies --   1319.2390              1430.9855              1458.2662
 Red. masses --     13.2534                13.1332                10.1646
 Frc consts  --     13.5901                15.8450                12.7354
 IR Inten    --    313.1683               171.2196               152.7437

                     25                     26                     27
                      A                      A                      A
 Frequencies --   1516.1944              1692.8965              3807.0054
 Red. masses --      9.0176                 8.4299                 1.0666
 Frc consts  --     12.2138                14.2342                 9.1082
 IR Inten    --     17.5554               220.6868               235.9393

 - Thermochemistry -
 -------------------
 Temperature   298.150 Kelvin.  Pressure   1.00000 Atm.
 Atom     1 has atomic number  6 and mass  12.00000

 Molecular mass:   163.98967 amu.
 Principal axes and moments of inertia in atomic units:
                           1         2         3
     Eigenvalues --   992.409531334.314991669.13960
           X            0.84947  -0.52608   0.04037
           Y            0.52317   0.84975   0.06490
           Z           -0.06845  -0.03401   0.99707
 This molecule is an asymmetric top.
 Rotational symmetry number  1.
 Warning -- assumption of classical behavior for rotation
           may cause significant error
 Rotational temperatures (Kelvin)      0.08728     0.06491     0.05189
 Rotational constants (GHZ):           1.81854     1.35256     1.08124
    1 imaginary frequencies ignored.
 Zero-point vibrational energy     130919.1 (Joules/Mol)
                                   31.29041 (Kcal/Mol)
 Warning -- explicit consideration of  12 degrees of freedom as
           vibrations may cause significant error
 Vibrational temperatures:    158.71   196.14   222.06   294.76   454.10
          (Kelvin)            501.82   532.77   555.52   584.97   695.58
                              718.42   748.19   896.78   966.11   998.39
                             1046.77  1083.20  1180.27  1735.47  1772.19
                             1898.09  2058.87  2098.12  2181.47  2435.70
                             5477.43

 Zero-point correction=                           0.049864 (Hartree/Particle)
 Thermal correction to Energy=                    0.058384
 Thermal correction to Enthalpy=                  0.059329
 Thermal correction to Gibbs Free Energy=         0.016264
 Sum of electronic and zero-point Energies=           -764.442546
 Sum of electronic and thermal Energies=              -764.434026
 Sum of electronic and thermal Enthalpies=            -764.433081
 Sum of electronic and thermal Free Energies=         -764.476146

                     E (Thermal)             CV                S
                      KCal/Mol        Cal/Mol-Kelvin    Cal/Mol-Kelvin
 Total                   36.637             30.655             90.637
 Electronic               0.000              0.000              0.000
 Translational            0.889              2.981             41.192
 Rotational               0.889              2.981             29.182
 Vibrational             34.859             24.694             20.263
 Vibration     1          0.606              1.941              3.263
 Vibration     2          0.614              1.917              2.855
 Vibration     3          0.620              1.898              2.618
 Vibration     4          0.640              1.833              2.089
 Vibration     5          0.703              1.644              1.333
 Vibration     6          0.726              1.578              1.172
 Vibration     7          0.742              1.533              1.079
 Vibration     8          0.755              1.500              1.015
 Vibration     9          0.771              1.456              0.939
 Vibration    10          0.840              1.287              0.701
 Vibration    11          0.855              1.252              0.660
 Vibration    12          0.875              1.206              0.610

 Normal termination of Gaussian 16 at Sat May 24 04:58:26 2025.
