 Gaussian 16, Revision C.01,
 Gaussian 16:  ES64L-G16RevC.01  3-Jul-2019

 ----------------------------------------------------------------------
 #P M062X/Def2TZVPP Symm(None) scf(xqc) pop(None) opt(NoFreeze,TS,CalcA
 ll,NoEigentest,MaxCycle=999)
 ----------------------------------------------------------------------

 ------------------------------
 Gaussian input prepared by ASE
 ------------------------------
 Symbolic Z-matrix:
 Charge =  0 Multiplicity = 1

 SCF Done:  E(RM062X) =  -764.382284796     A.U. after   20 cycles
 SCF Done:  E(RM062X) =  -764.382284853     A.U. after   12 cycles

 Isotropic polarizability for W=    0.000000       52.04 Bohr**3.
 End of Minotr F.D. properties file   721 does not exist.

 Optimization completed.
    -- Stationary point found.

                          Input orientation:
 ---------------------------------------------------------------------
 Center     Atomic      Atomic             Coordinates (Angstroms)
 Number     Number       Type             X           Y           Z
 ---------------------------------------------------------------------
      1          6           0        1.392546   -0.000065   -0.000073
      2          8           0        0.972455   -0.425546   -1.311750
      3          6           0        1.922591    1.419378    0.000359
      4          6           0        3.315968    1.539905   -0.639183
      5          9           0        3.692876    2.810566   -0.661197
      6          9           0        4.198939    0.843109    0.057791
      7          9           0        3.289584    1.080168   -1.884738
      8          9           0        1.082770    2.267994   -0.669308
      9          9           0        1.982092    1.870567    1.261357
     10          8           0       -0.000120    0.000177   -0.000628
     11          1           0       -0.385745    0.891383   -0.196770
 ---------------------------------------------------------------------

 ******    1 imaginary frequencies (negative Signs) ******

                      1                      2                      3
                      A                      A                      A
 Frequencies --  -1500.7798                42.7702                81.3292
 Red. masses --      7.5478                15.4715                10.7374
 Frc consts  --     10.0162                 0.0167                 0.0418
 IR Inten    --   1316.1653                 1.4240                 2.8913

                      4                      5                      6
                      A                      A                      A
 Frequencies --    159.7685               216.4529               249.6359
 Red. masses --     11.2527                17.7651                15.5539
 Frc consts  --      0.1692                 0.4904                 0.5711
 IR Inten    --      5.0990                 3.3310                 3.0619

                      7                      8                      9
                      A                      A                      A
 Frequencies --    305.5021               347.1030               360.4365
 Red. masses --     10.5390                11.3124                17.9966
 Frc consts  --      0.5795                 0.8030                 1.3775
 IR Inten    --     21.3120                 3.5170                 0.5468

                     10                     11                     12
                      A                      A                      A
 Frequencies --    400.9988               483.9398               544.0125
 Red. masses --     12.9844                15.3751                15.7315
 Frc consts  --      1.2302                 2.1215                 2.7431
 IR Inten    --      4.8689                 5.3560                 5.9357

                     13                     14                     15
                      A                      A                      A
 Frequencies --    595.3608               636.8938               717.2407
 Red. masses --     16.1995                15.8797                 6.0488
 Frc consts  --      3.3831                 3.7951                 1.8334
 IR Inten    --      1.0526                 3.6190                40.3974

                     16                     17                     18
                      A                      A                      A
 Frequencies --    791.9748               844.3272               964.5514
 Red. masses --      8.0546                 5.4958                 1.6684
 Frc consts  --      2.9766                 2.3084                 0.9145
 IR Inten    --     19.1316                43.6142                43.2902

                     19                     20                     21
                      A                      A                      A
 Frequencies --   1065.1165              1108.3820              1222.2213
 Red. masses --     13.1085                 9.1635                11.3835
 Frc consts  --      8.7619                 6.6327                10.0190
 IR Inten    --    165.6610               176.3018               136.9165

                     22                     23                     24
                      A                      A                      A
 Frequencies --   1238.2892              1269.9398              1286.9641
 Red. masses --      1.4871                 6.2746                11.6739
 Frc consts  --      1.3435                 5.9622                11.3920
 IR Inten    --     94.1708               186.2260               195.2834

                     25                     26                     27
                      A                      A                      A
 Frequencies --   1303.3609              1411.6923              3449.0283
 Red. masses --      7.3365                12.4374                 1.0643
 Frc consts  --      7.3429                14.6036                 7.4597
 IR Inten    --    168.6678                73.6958                80.6327

 - Thermochemistry -
 -------------------
 Temperature   298.150 Kelvin.  Pressure   1.00000 Atm.
 Atom     1 has atomic number  6 and mass  12.00000

 Molecular mass:   163.98967 amu.
 Principal axes and moments of inertia in atomic units:
                           1         2         3
     Eigenvalues --   848.064771564.061781769.21674
           X            0.88723  -0.26978   0.37421
           Y            0.45612   0.63445  -0.62404
           Z           -0.06906   0.72435   0.68596
 This molecule is an asymmetric top.
 Rotational symmetry number  1.
 Warning -- assumption of classical behavior for rotation
           may cause significant error
 Rotational temperatures (Kelvin)      0.10213     0.05538     0.04896
 Rotational constants (GHZ):           2.12807     1.15388     1.02008
    1 imaginary frequencies ignored.
 Zero-point vibrational energy     126189.8 (Joules/Mol)
                                   30.16009 (Kcal/Mol)
 Warning -- explicit consideration of  12 degrees of freedom as
           vibrations may cause significant error
 Vibrational temperatures:     61.54   117.01   229.87   311.43   359.17
          (Kelvin)            439.55   499.40   518.59   576.95   696.28
                              782.71   856.59   916.35  1031.95  1139.48
                             1214.80  1387.77  1532.47  1594.71  1758.50
                             1781.62  1827.16  1851.65  1875.25  2031.11
                             4962.38

 Zero-point correction=                           0.048063 (Hartree/Particle)
 Thermal correction to Energy=                    0.056755
 Thermal correction to Enthalpy=                  0.057699
 Thermal correction to Gibbs Free Energy=         0.013259
 Sum of electronic and zero-point Energies=           -764.334222
 Sum of electronic and thermal Energies=              -764.325530
 Sum of electronic and thermal Enthalpies=            -764.324585
 Sum of electronic and thermal Free Energies=         -764.369026

                     E (Thermal)             CV                S
                      KCal/Mol        Cal/Mol-Kelvin    Cal/Mol-Kelvin
 Total                   35.614             30.056             93.533
 Electronic               0.000              0.000              0.000
 Translational            0.889              2.981             41.192
 Rotational               0.889              2.981             29.241
 Vibrational             33.837             24.095             23.100
 Vibration     1          0.595              1.980              5.126
 Vibration     2          0.600              1.962              3.859
 Vibration     3          0.622              1.892              2.553
 Vibration     4          0.645              1.816              1.989
 Vibration     5          0.662              1.763              1.733
 Vibration     6          0.696              1.663              1.387
 Vibration     7          0.725              1.581              1.179
 Vibration     8          0.735              1.554              1.120
 Vibration     9          0.767              1.468              0.959
 Vibration    10          0.840              1.286              0.700
 Vibration    11          0.899              1.153              0.557
 Vibration    12          0.953              1.042              0.458

 Normal termination of Gaussian 16 at Sat May 24 06:19:55 2025.
