 Gaussian 16, Revision C.01,
 Gaussian 16:  ES64L-G16RevC.01  3-Jul-2019

 -----------------------------------------------------------------
 #P M062X/Def2TZVPP Symm(None) scf(xqc) pop(None) freq opt(CalcFC)
 -----------------------------------------------------------------

 ------------------------------
 Gaussian input prepared by ASE
 ------------------------------
 Symbolic Z-matrix:
 Charge =  0 Multiplicity = 1

 SCF Done:  E(RM062X) =  -764.576670807     A.U. after   13 cycles
 SCF Done:  E(RM062X) =  -764.599631808     A.U. after   14 cycles
 SCF Done:  E(RM062X) =  -764.600433402     A.U. after   12 cycles
 SCF Done:  E(RM062X) =  -764.600450017     A.U. after   11 cycles
 SCF Done:  E(RM062X) =  -764.600533592     A.U. after   10 cycles
 SCF Done:  E(RM062X) =  -764.600534068     A.U. after    8 cycles
 SCF Done:  E(RM062X) =  -764.600534089     A.U. after    7 cycles
 Optimization completed.
    -- Stationary point found.
 Normal termination of Gaussian 16 at Sat May 24 05:06:04 2025.

 ---------------------------------------------------------------------
 #P Geom=AllCheck Guess=TCheck SCRF=Check GenChk RM062X/def2TZVPP Freq
 ---------------------------------------------------------------------

 Structure from the checkpoint file:  "/tmp/Gau-106955.chk"
 ------------------------------
 Gaussian input prepared by ASE
 ------------------------------
 Charge =  0 Multiplicity = 1

                          Input orientation:
 ---------------------------------------------------------------------
 Center     Atomic      Atomic             Coordinates (Angstroms)
 Number     Number       Type             X           Y           Z
 ---------------------------------------------------------------------
      1          6           0        0.044067   -0.062939    0.155975
      2          8           0        1.385409   -0.030768    0.106354
      3          6           0        2.101176    1.886412    1.414920
      4          6           0        1.979231    1.212163    0.027471
      5          9           0        2.749873    3.035400    1.292675
      6          9           0        3.206435    1.013024   -0.442043
      7          9           0        1.332294    2.028216   -0.795068
      8          9           0        0.904116    2.120177    1.927650
      9          9           0        2.775543    1.095478    2.237403
     10          8           0       -0.230401   -1.333126    0.243216
     11          1           0       -1.188761   -1.418253    0.279405
 ---------------------------------------------------------------------

 SCF Done:  E(RM062X) =  -764.600534090     A.U. after    1 cycles

 Isotropic polarizability for W=    0.000000       46.52 Bohr**3.
 End of Minotr F.D. properties file   721 does not exist.

                      1                      2                      3
                      A                      A                      A
 Frequencies --     49.2274                93.5280               127.3211
 Red. masses --     13.8273                 8.5061                13.5555
 Frc consts  --      0.0197                 0.0438                 0.1295
 IR Inten    --      0.3066                 1.4202                 0.9358

                      4                      5                      6
                      A                      A                      A
 Frequencies --    212.0630               226.5600               247.4906
 Red. masses --     12.2454                13.5391                14.8221
 Frc consts  --      0.3245                 0.4095                 0.5349
 IR Inten    --      0.2158                 3.2666                 2.9749

                      7                      8                      9
                      A                      A                      A
 Frequencies --    353.9253               375.6427               392.8328
 Red. masses --     16.6401                15.6897                15.4282
 Frc consts  --      1.2281                 1.3044                 1.4027
 IR Inten    --      0.0927                 0.4742                 0.2536

                     10                     11                     12
                      A                      A                      A
 Frequencies --    446.7785               532.8294               559.3977
 Red. masses --     13.3379                13.0997                16.4431
 Frc consts  --      1.5686                 2.1912                 3.0316
 IR Inten    --      0.6173                 5.3852                 7.9761

                     13                     14                     15
                      A                      A                      A
 Frequencies --    625.9994               686.0867               735.4012
 Red. masses --     14.6344                15.7147                 1.1408
 Frc consts  --      3.3789                 4.3583                 0.3635
 IR Inten    --      4.3895                13.0968                91.7223

                     16                     17                     18
                      A                      A                      A
 Frequencies --    759.3707               865.4551              1110.8526
 Red. masses --     13.1888                 9.7406                 3.8616
 Frc consts  --      4.4809                 4.2986                 2.8076
 IR Inten    --     61.7353                74.7139               132.0575

                     19                     20                     21
                      A                      A                      A
 Frequencies --   1160.8470              1235.9085              1286.8489
 Red. masses --      9.1572                 6.4025                 8.8479
 Frc consts  --      7.2705                 5.7620                 8.6327
 IR Inten    --    469.8442               371.2418               148.5580

                     22                     23                     24
                      A                      A                      A
 Frequencies --   1295.2463              1297.4797              1365.0537
 Red. masses --     11.7581                10.9606                 2.5581
 Frc consts  --     11.6223                10.8714                 2.8085
 IR Inten    --    281.7762               424.0180                72.4374

                     25                     26                     27
                      A                      A                      A
 Frequencies --   1409.3843              1439.5528              3870.5827
 Red. masses --      6.2817                12.3879                 1.0665
 Frc consts  --      7.3517                15.1253                 9.4139
 IR Inten    --    197.5730                 3.8318               205.8040

 - Thermochemistry -
 -------------------
 Temperature   298.150 Kelvin.  Pressure   1.00000 Atm.
 Atom     1 has atomic number  6 and mass  12.00000

 Molecular mass:   163.98967 amu.
 Principal axes and moments of inertia in atomic units:
                           1         2         3
     Eigenvalues --   875.338041703.358151916.14696
           X            0.59534  -0.40672   0.69293
           Y            0.73923  -0.06065  -0.67072
           Z            0.31482   0.91154   0.26455
 This molecule is an asymmetric top.
 Rotational symmetry number  1.
 Warning -- assumption of classical behavior for rotation
           may cause significant error
 Rotational temperatures (Kelvin)      0.09895     0.05085     0.04520
 Rotational constants (GHZ):           2.06176     1.05952     0.94186
 Zero-point vibrational energy     136145.0 (Joules/Mol)
                                   32.53944 (Kcal/Mol)
 Warning -- explicit consideration of  12 degrees of freedom as
           vibrations may cause significant error
 Vibrational temperatures:     70.83   134.57   183.19   305.11   325.97
          (Kelvin)            356.08   509.22   540.47   565.20   642.81
                              766.62   804.85   900.67   987.13  1058.08
                             1092.57  1245.20  1598.27  1670.20  1778.20
                             1851.49  1863.57  1866.78  1964.01  2027.79
                             2071.20  5568.91

 Zero-point correction=                           0.051855 (Hartree/Particle)
 Thermal correction to Energy=                    0.060796
 Thermal correction to Enthalpy=                  0.061740
 Thermal correction to Gibbs Free Energy=         0.016833
 Sum of electronic and zero-point Energies=           -764.548679
 Sum of electronic and thermal Energies=              -764.539738
 Sum of electronic and thermal Enthalpies=            -764.538794
 Sum of electronic and thermal Free Energies=         -764.583701

                     E (Thermal)             CV                S
                      KCal/Mol        Cal/Mol-Kelvin    Cal/Mol-Kelvin
 Total                   38.150             30.767             94.516
 Electronic               0.000              0.000              0.000
 Translational            0.889              2.981             41.192
 Rotational               0.889              2.981             29.437
 Vibrational             36.373             24.806             23.887
 Vibration     1          0.595              1.978              4.848
 Vibration     2          0.603              1.954              3.585
 Vibration     3          0.611              1.926              2.986
 Vibration     4          0.643              1.822              2.026
 Vibration     5          0.650              1.801              1.906
 Vibration     6          0.661              1.767              1.748
 Vibration     7          0.730              1.567              1.149
 Vibration     8          0.746              1.522              1.057
 Vibration     9          0.760              1.485              0.989
 Vibration    10          0.806              1.368              0.806
 Vibration    11          0.888              1.177              0.581
 Vibration    12          0.915              1.119              0.525

 Optimization completed.
    -- Stationary point found.
 Normal termination of Gaussian 16 at Sat May 24 05:10:09 2025.
