 Gaussian 16, Revision C.01,
 Gaussian 16:  ES64L-G16RevC.01  3-Jul-2019

 -----------------------------------------------------------------
 #P M062X/Def2TZVPP Symm(None) scf(xqc) pop(None) freq opt(CalcFC)
 -----------------------------------------------------------------

 ------------------------------
 Gaussian input prepared by ASE
 ------------------------------
 Symbolic Z-matrix:
 Charge =  0 Multiplicity = 1

 SCF Done:  E(RM062X) =  -764.394893668     A.U. after   19 cycles
 SCF Done:  E(RM062X) =  -764.424060482     A.U. after   17 cycles
 SCF Done:  E(RM062X) =  -764.448889452     A.U. after   17 cycles
 SCF Done:  E(RM062X) =  -764.459205468     A.U. after   17 cycles
 SCF Done:  E(RM062X) =  -764.461125275     A.U. after   15 cycles
 SCF Done:  E(RM062X) =  -764.461817918     A.U. after   14 cycles
 SCF Done:  E(RM062X) =  -764.462359111     A.U. after   16 cycles
 SCF Done:  E(RM062X) =  -764.462829499     A.U. after   14 cycles
 SCF Done:  E(RM062X) =  -764.463071733     A.U. after   12 cycles
 SCF Done:  E(RM062X) =  -764.463179549     A.U. after   12 cycles
 SCF Done:  E(RM062X) =  -764.464661227     A.U. after   12 cycles
 SCF Done:  E(RM062X) =  -764.464731861     A.U. after   12 cycles
 SCF Done:  E(RM062X) =  -764.464820321     A.U. after   13 cycles
 SCF Done:  E(RM062X) =  -764.464857374     A.U. after   12 cycles
 SCF Done:  E(RM062X) =  -764.464869068     A.U. after   12 cycles
 SCF Done:  E(RM062X) =  -764.464873769     A.U. after   10 cycles
 SCF Done:  E(RM062X) =  -764.464874225     A.U. after    9 cycles
 SCF Done:  E(RM062X) =  -764.464874573     A.U. after    9 cycles
 SCF Done:  E(RM062X) =  -764.464874588     A.U. after    8 cycles
 Optimization completed.
    -- Stationary point found.
 Normal termination of Gaussian 16 at Sat May 24 09:00:56 2025.

 ---------------------------------------------------------------------
 #P Geom=AllCheck Guess=TCheck SCRF=Check GenChk RM062X/def2TZVPP Freq
 ---------------------------------------------------------------------

 Structure from the checkpoint file:  "/tmp/Gau-80811.chk"
 ------------------------------
 Gaussian input prepared by ASE
 ------------------------------
 Charge =  0 Multiplicity = 1

                          Input orientation:
 ---------------------------------------------------------------------
 Center     Atomic      Atomic             Coordinates (Angstroms)
 Number     Number       Type             X           Y           Z
 ---------------------------------------------------------------------
      1          6           0        1.110666    2.096092    1.031110
      2          8           0        0.431509   -0.066031    0.227553
      3          6           0        1.592994    1.288137    2.250741
      4          6           0        2.226603    2.226023    3.294729
      5          9           0        2.639822    1.524999    4.340466
      6          9           0        3.264015    2.858599    2.764149
      7          9           0        1.334786    3.119064    3.701013
      8          9           0        0.560469    0.667065    2.830384
      9          9           0        2.521683    0.400921    1.879046
     10          8           0        0.586847    1.516012    0.110708
     11          1           0       -0.006633   -0.210772   -0.620832
 ---------------------------------------------------------------------

 SCF Done:  E(RM062X) =  -764.464874588     A.U. after    1 cycles

 Isotropic polarizability for W=    0.000000       53.47 Bohr**3.
 End of Minotr F.D. properties file   721 does not exist.

                      1                      2                      3
                      A                      A                      A
 Frequencies --     61.1924                82.1217               131.0212
 Red. masses --     15.3867                13.3395                 1.1338
 Frc consts  --      0.0339                 0.0530                 0.0115
 IR Inten    --      5.6982                 5.5202                98.8551

                      4                      5                      6
                      A                      A                      A
 Frequencies --    139.7509               221.1542               227.7638
 Red. masses --     11.7078                 9.4805                10.3917
 Frc consts  --      0.1347                 0.2732                 0.3176
 IR Inten    --      0.7361                18.6143                21.6773

                      7                      8                      9
                      A                      A                      A
 Frequencies --    250.6726               294.6395               372.0463
 Red. masses --     17.8837                17.8594                17.8671
 Frc consts  --      0.6621                 0.9135                 1.4571
 IR Inten    --      0.3567                38.8435                45.8522

                     10                     11                     12
                      A                      A                      A
 Frequencies --    402.1808               421.3611               468.0168
 Red. masses --     16.1010                16.7775                 9.3175
 Frc consts  --      1.5344                 1.7550                 1.2025
 IR Inten    --    235.2019                 3.1609                79.8463

                     13                     14                     15
                      A                      A                      A
 Frequencies --    554.3617               560.4064               605.8055
 Red. masses --     13.3180                14.2803                15.0093
 Frc consts  --      2.4114                 2.6424                 3.2455
 IR Inten    --      3.3846                 0.5701                 0.1770

                     16                     17                     18
                      A                      A                      A
 Frequencies --    626.8671               766.9433               824.5182
 Red. masses --     15.7693                13.4705                12.1693
 Frc consts  --      3.6510                 4.6683                 4.8744
 IR Inten    --      0.1780                40.0044                 5.9115

                     19                     20                     21
                      A                      A                      A
 Frequencies --   1071.2640              1213.9583              1227.8827
 Red. masses --     11.9584                 1.2799                 7.6105
 Frc consts  --      8.0857                 1.1113                 6.7605
 IR Inten    --    202.9947               190.5652                96.3196

                     22                     23                     24
                      A                      A                      A
 Frequencies --   1243.2150              1293.3769              1294.0011
 Red. masses --     13.1725                12.8571                12.7065
 Frc consts  --     11.9953                12.6720                12.5356
 IR Inten    --    124.6790               279.3201               250.0985

                     25                     26                     27
                      A                      A                      A
 Frequencies --   1423.9461              1666.4409              3847.7665
 Red. masses --     12.4144                11.9652                 1.0684
 Frc consts  --     14.8308                19.5771                 9.3199
 IR Inten    --     33.6896               122.7739               145.0610

 - Thermochemistry -
 -------------------
 Temperature   298.150 Kelvin.  Pressure   1.00000 Atm.
 Atom     1 has atomic number  6 and mass  12.00000

 Molecular mass:   163.98967 amu.
 Principal axes and moments of inertia in atomic units:
                           1         2         3
     Eigenvalues --   721.295321912.755531990.22469
           X            0.43988  -0.09259   0.89327
           Y            0.43276   0.89342  -0.12051
           Z            0.78691  -0.43958  -0.43307
 This molecule is an asymmetric top.
 Rotational symmetry number  1.
 Warning -- assumption of classical behavior for rotation
           may cause significant error
 Rotational temperatures (Kelvin)      0.12008     0.04528     0.04352
 Rotational constants (GHZ):           2.50208     0.94353     0.90680
 Zero-point vibrational energy     127358.5 (Joules/Mol)
                                   30.43941 (Kcal/Mol)
 Warning -- explicit consideration of  15 degrees of freedom as
           vibrations may cause significant error
 Vibrational temperatures:     88.04   118.15   188.51   201.07   318.19
          (Kelvin)            327.70   360.66   423.92   535.29   578.65
                              606.24   673.37   797.60   806.30   871.62
                              901.92  1103.46  1186.30  1541.31  1746.62
                             1766.65  1788.71  1860.88  1861.78  2048.74
                             2397.64  5536.08

 Zero-point correction=                           0.048508 (Hartree/Particle)
 Thermal correction to Energy=                    0.058340
 Thermal correction to Enthalpy=                  0.059284
 Thermal correction to Gibbs Free Energy=         0.012793
 Sum of electronic and zero-point Energies=           -764.416366
 Sum of electronic and thermal Energies=              -764.406535
 Sum of electronic and thermal Enthalpies=            -764.405591
 Sum of electronic and thermal Free Energies=         -764.452081

                     E (Thermal)             CV                S
                      KCal/Mol        Cal/Mol-Kelvin    Cal/Mol-Kelvin
 Total                   36.609             33.393             97.848
 Electronic               0.000              0.000              0.000
 Translational            0.889              2.981             41.192
 Rotational               0.889              2.981             29.397
 Vibrational             34.831             27.431             27.258
 Vibration     1          0.597              1.973              4.418
 Vibration     2          0.600              1.961              3.840
 Vibration     3          0.612              1.922              2.931
 Vibration     4          0.615              1.914              2.807
 Vibration     5          0.648              1.809              1.950
 Vibration     6          0.651              1.799              1.897
 Vibration     7          0.663              1.762              1.726
 Vibration     8          0.689              1.684              1.447
 Vibration     9          0.744              1.530              1.071
 Vibration    10          0.768              1.465              0.955
 Vibration    11          0.784              1.424              0.887
 Vibration    12          0.825              1.321              0.743
 Vibration    13          0.910              1.130              0.535
 Vibration    14          0.916              1.117              0.523
 Vibration    15          0.964              1.019              0.440

 Optimization completed.
    -- Stationary point found.
 Normal termination of Gaussian 16 at Sat May 24 09:04:04 2025.
