 Gaussian 16, Revision C.01,
 Gaussian 16:  ES64L-G16RevC.01  3-Jul-2019

 -----------------------------------------------------------------
 #P M062X/Def2TZVPP Symm(None) scf(xqc) pop(None) freq opt(CalcFC)
 -----------------------------------------------------------------

 ------------------------------
 Gaussian input prepared by ASE
 ------------------------------
 Symbolic Z-matrix:
 Charge =  0 Multiplicity = 1

 SCF Done:  E(RM062X) =  -764.398157294     A.U. after   18 cycles
 SCF Done:  E(RM062X) =  -764.435719788     A.U. after   14 cycles
 SCF Done:  E(RM062X) =  -764.444100411     A.U. after   14 cycles
 SCF Done:  E(RM062X) =  -764.454962939     A.U. after   15 cycles
 SCF Done:  E(RM062X) =  -764.459021536     A.U. after   15 cycles
 SCF Done:  E(RM062X) =  -764.460269364     A.U. after   14 cycles
 SCF Done:  E(RM062X) =  -764.460710138     A.U. after   14 cycles
 SCF Done:  E(RM062X) =  -764.461058313     A.U. after   14 cycles
 SCF Done:  E(RM062X) =  -764.461436464     A.U. after   14 cycles
 SCF Done:  E(RM062X) =  -764.461981582     A.U. after   14 cycles
 SCF Done:  E(RM062X) =  -764.463009082     A.U. after   12 cycles
 SCF Done:  E(RM062X) =  -764.463073436     A.U. after   11 cycles
 SCF Done:  E(RM062X) =  -764.463162783     A.U. after   13 cycles
 SCF Done:  E(RM062X) =  -764.463230215     A.U. after   13 cycles
 SCF Done:  E(RM062X) =  -764.463270472     A.U. after   11 cycles
 SCF Done:  E(RM062X) =  -764.463285419     A.U. after   10 cycles
 SCF Done:  E(RM062X) =  -764.463288641     A.U. after    9 cycles
 SCF Done:  E(RM062X) =  -764.463289353     A.U. after    9 cycles
 SCF Done:  E(RM062X) =  -764.463289383     A.U. after    7 cycles
 Optimization completed.
    -- Stationary point found.
 Normal termination of Gaussian 16 at Sat May 24 09:02:51 2025.

 ---------------------------------------------------------------------
 #P Geom=AllCheck Guess=TCheck SCRF=Check GenChk RM062X/def2TZVPP Freq
 ---------------------------------------------------------------------

 Structure from the checkpoint file:  "/tmp/Gau-96038.chk"
 ------------------------------
 Gaussian input prepared by ASE
 ------------------------------
 Charge =  0 Multiplicity = 1

                          Input orientation:
 ---------------------------------------------------------------------
 Center     Atomic      Atomic             Coordinates (Angstroms)
 Number     Number       Type             X           Y           Z
 ---------------------------------------------------------------------
      1          6           0        0.427651    2.041052    0.864106
      2          8           0        0.576941   -0.095300   -0.297476
      3          6           0       -1.087354    1.828852    0.927696
      4          6           0       -1.474786    0.991361    2.172370
      5          9           0       -2.789358    0.851250    2.211659
      6          9           0       -0.911257   -0.204166    2.133913
      7          9           0       -1.072884    1.618928    3.270979
      8          9           0       -1.661574    3.033454    1.065485
      9          9           0       -1.595513    1.258346   -0.166541
     10          8           0        1.182598    1.253060    0.362197
     11          1           0        1.423562   -0.541894   -0.425844
 ---------------------------------------------------------------------

 SCF Done:  E(RM062X) =  -764.463289383     A.U. after    1 cycles

 Isotropic polarizability for W=    0.000000       53.99 Bohr**3.
 End of Minotr F.D. properties file   721 does not exist.

                      1                      2                      3
                      A                      A                      A
 Frequencies --     40.9577                97.6414               153.0115
 Red. masses --     15.4939                 8.5051                 4.5436
 Frc consts  --      0.0153                 0.0478                 0.0627
 IR Inten    --      0.1738                 0.8692                20.3486

                      4                      5                      6
                      A                      A                      A
 Frequencies --    178.1764               207.5331               215.7342
 Red. masses --      1.7001                 4.5471                12.6821
 Frc consts  --      0.0318                 0.1154                 0.3478
 IR Inten    --     72.5646                37.0550                 2.2578

                      7                      8                      9
                      A                      A                      A
 Frequencies --    263.8824               286.8686               364.6664
 Red. masses --     15.3264                15.9925                17.6349
 Frc consts  --      0.6288                 0.7754                 1.3817
 IR Inten    --     80.9720                21.1433                 2.5347

                     10                     11                     12
                      A                      A                      A
 Frequencies --    390.9694               460.7876               473.7154
 Red. masses --     16.6205                 9.3701                14.7693
 Frc consts  --      1.4969                 1.1722                 1.9527
 IR Inten    --    174.3697                88.7297                11.1797

                     13                     14                     15
                      A                      A                      A
 Frequencies --    515.6710               565.1511               599.1241
 Red. masses --     13.7776                15.3438                17.2114
 Frc consts  --      2.1586                 2.8874                 3.6400
 IR Inten    --      4.0649                 4.7203                 5.8202

                     16                     17                     18
                      A                      A                      A
 Frequencies --    689.0744               737.0224               803.9203
 Red. masses --     15.0195                10.3699                15.1129
 Frc consts  --      4.2018                 3.3189                 5.7547
 IR Inten    --     10.0930                33.7241                 4.3453

                     19                     20                     21
                      A                      A                      A
 Frequencies --   1046.7693              1192.5794              1211.6805
 Red. masses --     13.0525                 1.2017                10.4803
 Frc consts  --      8.4265                 1.0069                 9.0657
 IR Inten    --    112.1963                81.3161               218.7459

                     22                     23                     24
                      A                      A                      A
 Frequencies --   1251.2180              1286.2925              1301.6048
 Red. masses --     12.8097                13.0813                13.0761
 Frc consts  --     11.8156                12.7521                13.0523
 IR Inten    --    184.8834               234.7646               198.6152

                     25                     26                     27
                      A                      A                      A
 Frequencies --   1365.5887              1703.3353              3846.1724
 Red. masses --     12.5535                12.3014                 1.0683
 Frc consts  --     13.7929                21.0284                 9.3111
 IR Inten    --    133.1367               153.6401               133.9313

 - Thermochemistry -
 -------------------
 Temperature   298.150 Kelvin.  Pressure   1.00000 Atm.
 Atom     1 has atomic number  6 and mass  12.00000

 Molecular mass:   163.98967 amu.
 Principal axes and moments of inertia in atomic units:
                           1         2         3
     Eigenvalues --   942.672311543.662371728.01996
           X            0.72350  -0.22193   0.65368
           Y           -0.15949   0.86756   0.47107
           Z           -0.67165  -0.44508   0.59228
 This molecule is an asymmetric top.
 Rotational symmetry number  1.
 Warning -- assumption of classical behavior for rotation
           may cause significant error
 Rotational temperatures (Kelvin)      0.09188     0.05611     0.05012
 Rotational constants (GHZ):           1.91449     1.16913     1.04440
 Zero-point vibrational energy     127098.1 (Joules/Mol)
                                   30.37718 (Kcal/Mol)
 Warning -- explicit consideration of  15 degrees of freedom as
           vibrations may cause significant error
 Vibrational temperatures:     58.93   140.48   220.15   256.36   298.59
          (Kelvin)            310.39   379.67   412.74   524.67   562.52
                              662.97   681.57   741.94   813.13   862.01
                              991.42  1060.41  1156.66  1506.07  1715.86
                             1743.34  1800.22  1850.69  1872.72  1964.78
                             2450.72  5533.78

 Zero-point correction=                           0.048409 (Hartree/Particle)
 Thermal correction to Energy=                    0.058179
 Thermal correction to Enthalpy=                  0.059123
 Thermal correction to Gibbs Free Energy=         0.012739
 Sum of electronic and zero-point Energies=           -764.414880
 Sum of electronic and thermal Energies=              -764.405111
 Sum of electronic and thermal Enthalpies=            -764.404167
 Sum of electronic and thermal Free Energies=         -764.450550

                     E (Thermal)             CV                S
                      KCal/Mol        Cal/Mol-Kelvin    Cal/Mol-Kelvin
 Total                   36.508             33.402             97.623
 Electronic               0.000              0.000              0.000
 Translational            0.889              2.981             41.192
 Rotational               0.889              2.981             29.310
 Vibrational             34.730             27.440             27.121
 Vibration     1          0.594              1.981              5.212
 Vibration     2          0.603              1.951              3.501
 Vibration     3          0.619              1.899              2.634
 Vibration     4          0.629              1.869              2.347
 Vibration     5          0.641              1.829              2.065
 Vibration     6          0.645              1.817              1.995
 Vibration     7          0.670              1.739              1.636
 Vibration     8          0.684              1.698              1.492
 Vibration     9          0.738              1.545              1.102
 Vibration    10          0.759              1.489              0.996
 Vibration    11          0.819              1.337              0.764
 Vibration    12          0.831              1.308              0.727
 Vibration    13          0.871              1.215              0.620
 Vibration    14          0.921              1.107              0.514
 Vibration    15          0.957              1.034              0.451

 Optimization completed.
    -- Stationary point found.
 Normal termination of Gaussian 16 at Sat May 24 09:06:25 2025.
