 Gaussian 16, Revision C.01,
 Gaussian 16:  ES64L-G16RevC.01  3-Jul-2019

 ----------------------------------------------------------------------
 #P M062X/Def2TZVPP Symm(None) scf(xqc) pop(None) opt(NoFreeze,TS,CalcA
 ll,NoEigentest,MaxCycle=999)
 ----------------------------------------------------------------------

 ------------------------------
 Gaussian input prepared by ASE
 ------------------------------
 Symbolic Z-matrix:
 Charge =  0 Multiplicity = 1

 SCF Done:  E(RM062X) =  -764.510267660     A.U. after   18 cycles
 SCF Done:  E(RM062X) =  -764.517201309     A.U. after   13 cycles
 SCF Done:  E(RM062X) =  -764.523016453     A.U. after   15 cycles
 SCF Done:  E(RM062X) =  -764.527329252     A.U. after   15 cycles
 SCF Done:  E(RM062X) =  -764.528857234     A.U. after   14 cycles
 SCF Done:  E(RM062X) =  -764.529090877     A.U. after   13 cycles
 SCF Done:  E(RM062X) =  -764.529099434     A.U. after   11 cycles

 Isotropic polarizability for W=    0.000000       51.13 Bohr**3.
 End of Minotr F.D. properties file   721 does not exist.

 Optimization completed.
    -- Stationary point found.

                          Input orientation:
 ---------------------------------------------------------------------
 Center     Atomic      Atomic             Coordinates (Angstroms)
 Number     Number       Type             X           Y           Z
 ---------------------------------------------------------------------
      1          6           0        1.355031    0.103028    0.016235
      2          8           0        1.989757   -0.640492    0.770463
      3          6           0       -0.184365   -0.086420   -0.097966
      4          6           0        1.568879   -0.368838   -1.619908
      5          9           0        1.264578   -1.647619   -1.800777
      6          9           0        0.897093    0.352854   -2.518729
      7          9           0        2.856022   -0.194890   -1.820808
      8          9           0       -0.687262   -1.232422    0.051427
      9          9           0       -0.974570    0.708580   -0.683098
     10          8           0        1.562474    1.484033   -0.020641
     11          1           0        2.346528    1.616641    0.524792
 ---------------------------------------------------------------------

 ******    1 imaginary frequencies (negative Signs) ******

                      1                      2                      3
                      A                      A                      A
 Frequencies --   -302.0877                47.8291               109.5081
 Red. masses --      8.5947                18.1478                14.8091
 Frc consts  --      0.4621                 0.0245                 0.1046
 IR Inten    --     90.0078                 0.2198                 1.8539

                      4                      5                      6
                      A                      A                      A
 Frequencies --    157.3235               200.9427               213.8630
 Red. masses --     12.3308                14.8445                14.9384
 Frc consts  --      0.1798                 0.3532                 0.4026
 IR Inten    --      3.1584                 0.5866                 1.5947

                      7                      8                      9
                      A                      A                      A
 Frequencies --    267.1613               284.8368               332.9528
 Red. masses --      3.2036                 2.6936                13.8612
 Frc consts  --      0.1347                 0.1288                 0.9054
 IR Inten    --     16.8424                42.2432                10.3430

                     10                     11                     12
                      A                      A                      A
 Frequencies --    363.7980               475.9912               515.6688
 Red. masses --      3.4181                14.3945                 9.5295
 Frc consts  --      0.2665                 1.9215                 1.4930
 IR Inten    --     16.1100                 4.7780                18.9956

                     13                     14                     15
                      A                      A                      A
 Frequencies --    550.1132               589.1218               631.2308
 Red. masses --      7.1486                15.6773                 9.2978
 Frc consts  --      1.2746                 3.2058                 2.1828
 IR Inten    --     54.7613                 3.8256                42.6702

                     16                     17                     18
                      A                      A                      A
 Frequencies --    676.4724               753.9301               762.9084
 Red. masses --     12.0317                15.5641                 9.6981
 Frc consts  --      3.2440                 5.2124                 3.3257
 IR Inten    --      0.5355                25.2453                 8.1451

                     19                     20                     21
                      A                      A                      A
 Frequencies --   1026.8726              1094.9267              1247.7053
 Red. masses --      5.7580                13.7253                12.9364
 Frc consts  --      3.5773                 9.6949                11.8655
 IR Inten    --    287.1259               395.2469               182.2481

                     22                     23                     24
                      A                      A                      A
 Frequencies --   1284.8906              1309.5424              1440.9203
 Red. masses --      2.4411                 3.5920                11.4681
 Frc consts  --      2.3745                 3.6294                14.0288
 IR Inten    --     42.2519               197.7874               272.0053

                     25                     26                     27
                      A                      A                      A
 Frequencies --   1481.6213              1585.9310              3852.9619
 Red. masses --     12.2592                 8.2135                 1.0654
 Frc consts  --     15.8558                12.1716                 9.3186
 IR Inten    --    272.9024               472.0671               130.8293

 - Thermochemistry -
 -------------------
 Temperature   298.150 Kelvin.  Pressure   1.00000 Atm.
 Atom     1 has atomic number  6 and mass  12.00000

 Molecular mass:   163.98967 amu.
 Principal axes and moments of inertia in atomic units:
                           1         2         3
     Eigenvalues --  1032.164941415.509951523.27909
           X            0.86727   0.46921  -0.16638
           Y           -0.04625   0.40868   0.91150
           Z           -0.49569   0.78283  -0.37614
 This molecule is an asymmetric top.
 Rotational symmetry number  1.
 Warning -- assumption of classical behavior for rotation
           may cause significant error
 Rotational temperatures (Kelvin)      0.08391     0.06119     0.05686
 Rotational constants (GHZ):           1.74850     1.27498     1.18477
    1 imaginary frequencies ignored.
 Zero-point vibrational energy     127157.2 (Joules/Mol)
                                   30.39130 (Kcal/Mol)
 Warning -- explicit consideration of  13 degrees of freedom as
           vibrations may cause significant error
 Vibrational temperatures:     68.82   157.56   226.35   289.11   307.70
          (Kelvin)            384.39   409.82   479.04   523.42   684.85
                              741.93   791.49   847.61   908.20   973.29
                             1084.74  1097.66  1477.44  1575.36  1795.17
                             1848.67  1884.14  2073.16  2131.72  2281.80
                             5543.55

 Zero-point correction=                           0.048432 (Hartree/Particle)
 Thermal correction to Energy=                    0.057548
 Thermal correction to Enthalpy=                  0.058492
 Thermal correction to Gibbs Free Energy=         0.013545
 Sum of electronic and zero-point Energies=           -764.480668
 Sum of electronic and thermal Energies=              -764.471551
 Sum of electronic and thermal Enthalpies=            -764.470607
 Sum of electronic and thermal Free Energies=         -764.515554

                     E (Thermal)             CV                S
                      KCal/Mol        Cal/Mol-Kelvin    Cal/Mol-Kelvin
 Total                   36.112             31.359             94.599
 Electronic               0.000              0.000              0.000
 Translational            0.889              2.981             41.192
 Rotational               0.889              2.981             29.188
 Vibrational             34.335             25.397             24.219
 Vibration     1          0.595              1.978              4.905
 Vibration     2          0.606              1.942              3.278
 Vibration     3          0.621              1.894              2.582
 Vibration     4          0.638              1.839              2.124
 Vibration     5          0.644              1.820              2.010
 Vibration     6          0.672              1.733              1.615
 Vibration     7          0.683              1.702              1.504
 Vibration     8          0.715              1.610              1.246
 Vibration     9          0.737              1.547              1.106
 Vibration    10          0.833              1.303              0.721
 Vibration    11          0.871              1.215              0.620
 Vibration    12          0.905              1.139              0.544
 Vibration    13          0.946              1.055              0.469

 Normal termination of Gaussian 16 at Sat May 24 05:32:10 2025.
