 Gaussian 16, Revision C.01,
 Gaussian 16:  ES64L-G16RevC.01  3-Jul-2019

 ----------------------------------------------------------------------
 #P M062X/Def2TZVPP Symm(None) scf(xqc) pop(None) opt(NoFreeze,TS,CalcA
 ll,NoEigentest,MaxCycle=999)
 ----------------------------------------------------------------------

 ------------------------------
 Gaussian input prepared by ASE
 ------------------------------
 Symbolic Z-matrix:
 Charge =  0 Multiplicity = 1

 SCF Done:  E(RM062X) =  -764.473461829     A.U. after   16 cycles
 SCF Done:  E(RM062X) =  -764.468873608     A.U. after   17 cycles
 SCF Done:  E(RM062X) =  -764.481561845     A.U. after   18 cycles
 SCF Done:  E(RM062X) =  -764.485499042     A.U. after   16 cycles
 SCF Done:  E(RM062X) =  -764.486269736     A.U. after   16 cycles
 SCF Done:  E(RM062X) =  -764.486333463     A.U. after   13 cycles
 SCF Done:  E(RM062X) =  -764.486334197     A.U. after    9 cycles

 Isotropic polarizability for W=    0.000000       55.81 Bohr**3.
 End of Minotr F.D. properties file   721 does not exist.

 Optimization completed.
    -- Stationary point found.

                          Input orientation:
 ---------------------------------------------------------------------
 Center     Atomic      Atomic             Coordinates (Angstroms)
 Number     Number       Type             X           Y           Z
 ---------------------------------------------------------------------
      1          6           0        2.176879    1.056197   -0.034621
      2          8           0        1.212490    1.653631    0.489981
      3          6           0        1.942528   -0.337217   -0.335661
      4          6           0       -0.211949    0.509540    0.132449
      5          9           0       -0.487117   -0.746903    0.370791
      6          9           0       -0.935803    1.197808    0.990761
      7          9           0       -0.503133    0.881840   -1.079355
      8          9           0        2.827236   -0.873983   -1.190162
      9          9           0        1.928756   -1.107578    0.778445
     10          8           0        3.254989    1.690749   -0.407996
     11          1           0        3.123551    2.646357   -0.328658
 ---------------------------------------------------------------------

 ******    1 imaginary frequencies (negative Signs) ******

                      1                      2                      3
                      A                      A                      A
 Frequencies --   -641.4097                48.4554               104.8101
 Red. masses --     11.2402                13.7742                12.5020
 Frc consts  --      2.7246                 0.0191                 0.0809
 IR Inten    --    137.8180                 3.7296                 2.7417

                      4                      5                      6
                      A                      A                      A
 Frequencies --    170.7741               218.1077               246.5595
 Red. masses --     15.4764                17.5497                 9.7066
 Frc consts  --      0.2659                 0.4919                 0.3477
 IR Inten    --     22.2460                 4.0993                 7.0133

                      7                      8                      9
                      A                      A                      A
 Frequencies --    296.4856               326.6394               355.1058
 Red. masses --     10.5773                13.1543                15.6046
 Frc consts  --      0.5478                 0.8269                 1.1594
 IR Inten    --      2.9389                12.1212                17.1735

                     10                     11                     12
                      A                      A                      A
 Frequencies --    435.8849               524.5154               581.8958
 Red. masses --      8.8705                14.2634                 2.7590
 Frc consts  --      0.9930                 2.3120                 0.5504
 IR Inten    --     16.6548                 6.4681                56.9032

                     13                     14                     15
                      A                      A                      A
 Frequencies --    590.9927               617.1833               661.3259
 Red. masses --     12.4226                10.8074                 2.0505
 Frc consts  --      2.5564                 2.4255                 0.5284
 IR Inten    --      5.8446                89.1382               124.3032

                     16                     17                     18
                      A                      A                      A
 Frequencies --    732.0949               767.8097               830.2390
 Red. masses --     13.8503                10.6905                 5.5457
 Frc consts  --      4.3737                 3.7132                 2.2523
 IR Inten    --    239.5310                29.8535                95.9417

                     19                     20                     21
                      A                      A                      A
 Frequencies --    969.2274              1145.2747              1182.3126
 Red. masses --     15.5297                 9.3019                10.1603
 Frc consts  --      8.5954                 7.1886                 8.3680
 IR Inten    --    651.8470               108.0857               207.7405

                     22                     23                     24
                      A                      A                      A
 Frequencies --   1244.6838              1258.7334              1352.6297
 Red. masses --      2.9045                 3.4253                11.9787
 Frc consts  --      2.6511                 3.1976                12.9127
 IR Inten    --    344.1608               222.7718               349.3459

                     25                     26                     27
                      A                      A                      A
 Frequencies --   1525.8986              1606.7776              3793.1611
 Red. masses --      4.7530                12.5865                 1.0651
 Frc consts  --      6.5203                19.1455                 9.0294
 IR Inten    --    153.5884               199.2803               147.3307

 - Thermochemistry -
 -------------------
 Temperature   298.150 Kelvin.  Pressure   1.00000 Atm.
 Atom     1 has atomic number  6 and mass  12.00000

 Molecular mass:   163.98967 amu.
 Principal axes and moments of inertia in atomic units:
                           1         2         3
     Eigenvalues --   915.509681643.381502015.56744
           X            0.96821   0.13280   0.21196
           Y           -0.13344   0.99099  -0.01136
           Z           -0.21156  -0.01729   0.97721
 This molecule is an asymmetric top.
 Rotational symmetry number  1.
 Warning -- assumption of classical behavior for rotation
           may cause significant error
 Rotational temperatures (Kelvin)      0.09461     0.05270     0.04297
 Rotational constants (GHZ):           1.97130     1.09819     0.89540
    1 imaginary frequencies ignored.
 Zero-point vibrational energy     129122.4 (Joules/Mol)
                                   30.86099 (Kcal/Mol)
 Warning -- explicit consideration of  13 degrees of freedom as
           vibrations may cause significant error
 Vibrational temperatures:     69.72   150.80   245.71   313.81   354.74
          (Kelvin)            426.58   469.96   510.92   627.14   754.66
                              837.22   850.31   887.99   951.50  1053.32
                             1104.71  1194.53  1394.50  1647.79  1701.08
                             1790.82  1811.04  1946.13  2195.43  2311.79
                             5457.51

 Zero-point correction=                           0.049180 (Hartree/Particle)
 Thermal correction to Energy=                    0.057857
 Thermal correction to Enthalpy=                  0.058801
 Thermal correction to Gibbs Free Energy=         0.014564
 Sum of electronic and zero-point Energies=           -764.437154
 Sum of electronic and thermal Energies=              -764.428477
 Sum of electronic and thermal Enthalpies=            -764.427533
 Sum of electronic and thermal Free Energies=         -764.471770

                     E (Thermal)             CV                S
                      KCal/Mol        Cal/Mol-Kelvin    Cal/Mol-Kelvin
 Total                   36.306             30.362             93.105
 Electronic               0.000              0.000              0.000
 Translational            0.889              2.981             41.192
 Rotational               0.889              2.981             29.496
 Vibrational             34.528             24.401             22.417
 Vibration     1          0.595              1.978              4.879
 Vibration     2          0.605              1.945              3.363
 Vibration     3          0.626              1.878              2.427
 Vibration     4          0.646              1.813              1.975
 Vibration     5          0.661              1.768              1.755
 Vibration     6          0.690              1.680              1.437
 Vibration     7          0.710              1.622              1.277
 Vibration     8          0.731              1.565              1.143
 Vibration     9          0.796              1.392              0.840
 Vibration    10          0.879              1.196              0.600
 Vibration    11          0.939              1.070              0.482
 Vibration    12          0.948              1.051              0.465
 Vibration    13          0.977              0.996              0.421

 Normal termination of Gaussian 16 at Sat May 24 08:00:34 2025.
