 Gaussian 16, Revision C.01,
 Gaussian 16:  ES64L-G16RevC.01  3-Jul-2019

 ------------------------------------------
 #P am1 Symm(None) scf(xqc) pop(None) force
 ------------------------------------------

 ------------------------------
 Gaussian input prepared by ASE
 ------------------------------
 Symbolic Z-matrix:
 Charge =  0 Multiplicity = 1

                          Input orientation:
 ---------------------------------------------------------------------
 Center     Atomic      Atomic             Coordinates (Angstroms)
 Number     Number       Type             X           Y           Z
 ---------------------------------------------------------------------
      1          6           0        2.159953    1.095660   -0.113893
      2          8           0        1.100450    1.715780   -0.348556
      3          6           0        1.983741   -0.337179   -0.170699
      4          6           0       -0.225988    0.468967    0.040554
      5          9           0       -0.553310   -0.770232    0.302108
      6          9           0       -0.470724    1.206894    1.103570
      7          9           0       -0.815480    0.859026   -1.051350
      8          9           0        2.333432   -0.985976   -1.292218
      9          9           0        2.371543   -1.116277    0.867355
     10          8           0        3.284001    1.737847    0.054811
     11          1           0        3.160808    2.695930   -0.005706
 ---------------------------------------------------------------------

 SCF Done:  E(RAM1) =   2.87263531641     A.U. after   17 cycles
 Normal termination of Gaussian 16 at Sat May 24 07:32:24 2025.
