 Gaussian 16, Revision C.01,
 Gaussian 16:  ES64L-G16RevC.01  3-Jul-2019

 ----------------------------------------------------------------------
 #P M062X/Def2TZVPP Symm(None) scf(xqc) pop(None) opt(NoFreeze,TS,CalcA
 ll,NoEigentest,MaxCycle=999)
 ----------------------------------------------------------------------

 ------------------------------
 Gaussian input prepared by ASE
 ------------------------------
 Symbolic Z-matrix:
 Charge =  0 Multiplicity = 1

 SCF Done:  E(RM062X) =  -764.448015010     A.U. after   15 cycles
 SCF Done:  E(RM062X) =  -764.454824940     A.U. after   13 cycles
 SCF Done:  E(RM062X) =  -764.456977925     A.U. after   13 cycles
 SCF Done:  E(RM062X) =  -764.457792951     A.U. after   12 cycles
 SCF Done:  E(RM062X) =  -764.458537124     A.U. after   12 cycles
 SCF Done:  E(RM062X) =  -764.459119886     A.U. after   12 cycles
 SCF Done:  E(RM062X) =  -764.459478293     A.U. after   12 cycles
 SCF Done:  E(RM062X) =  -764.459606323     A.U. after   12 cycles
 SCF Done:  E(RM062X) =  -764.459621440     A.U. after   11 cycles
 SCF Done:  E(RM062X) =  -764.459621835     A.U. after    9 cycles

 Isotropic polarizability for W=    0.000000       56.21 Bohr**3.
 End of Minotr F.D. properties file   721 does not exist.

 Optimization completed.
    -- Stationary point found.

                          Input orientation:
 ---------------------------------------------------------------------
 Center     Atomic      Atomic             Coordinates (Angstroms)
 Number     Number       Type             X           Y           Z
 ---------------------------------------------------------------------
      1          6           0        2.186448    0.049858   -0.141377
      2          8           0        2.559228   -0.876044   -0.737330
      3          6           0       -0.070858   -0.140055   -0.051434
      4          6           0        0.921385   -0.079801    1.355930
      5          9           0        0.545706    1.133970    1.802480
      6          9           0        0.340323   -1.102903    1.979384
      7          9           0        2.217163   -0.169866    2.010435
      8          9           0       -0.039395    0.869547   -0.898820
      9          9           0       -0.025624   -1.242238   -0.731106
     10          8           0        2.600392    1.287944   -0.132619
     11          1           0        2.138264    1.820728    0.531238
 ---------------------------------------------------------------------

 ******    1 imaginary frequencies (negative Signs) ******

                      1                      2                      3
                      A                      A                      A
 Frequencies --   -568.2543                50.4132                98.3645
 Red. masses --     12.6685                15.2420                 5.9214
 Frc consts  --      2.4102                 0.0228                 0.0338
 IR Inten    --     14.6362                 8.3280                 1.0727

                      4                      5                      6
                      A                      A                      A
 Frequencies --    139.9331               172.5022               225.8665
 Red. masses --     13.4172                14.6077                13.5094
 Frc consts  --      0.1548                 0.2561                 0.4061
 IR Inten    --      1.3994                41.8794                 5.8027

                      7                      8                      9
                      A                      A                      A
 Frequencies --    251.7401               278.6050               337.6671
 Red. masses --     14.5433                17.3722                 7.9863
 Frc consts  --      0.5430                 0.7945                 0.5365
 IR Inten    --      0.8026                 6.4321                 9.2258

                     10                     11                     12
                      A                      A                      A
 Frequencies --    392.9506               441.0329               473.8810
 Red. masses --      2.7452                 3.7862                17.4646
 Frc consts  --      0.2498                 0.4339                 2.3107
 IR Inten    --      4.3108                34.6695                 0.2034

                     13                     14                     15
                      A                      A                      A
 Frequencies --    512.2591               575.1255               628.8356
 Red. masses --      4.7783                15.8108                 7.1946
 Frc consts  --      0.7388                 3.0813                 1.6762
 IR Inten    --     99.4760                 1.6749                80.4887

                     16                     17                     18
                      A                      A                      A
 Frequencies --    638.4887               673.5280               710.6094
 Red. masses --      7.6868                10.5181                16.2438
 Frc consts  --      1.8463                 2.8112                 4.8328
 IR Inten    --     98.8462                65.6074                 9.2629

                     19                     20                     21
                      A                      A                      A
 Frequencies --    760.0405              1062.1350              1138.5663
 Red. masses --     13.3613                13.7104                10.8133
 Frc consts  --      4.5475                 9.1130                 8.2589
 IR Inten    --    208.0042               345.0297               377.6407

                     22                     23                     24
                      A                      A                      A
 Frequencies --   1225.7136              1263.1310              1283.1954
 Red. masses --      5.7863                 5.1764                 3.1511
 Frc consts  --      5.1218                 4.8661                 3.0570
 IR Inten    --    126.2296               217.7212               576.4491

                     25                     26                     27
                      A                      A                      A
 Frequencies --   1335.8014              2041.1111              3783.4993
 Red. masses --      2.6361                11.5834                 1.0664
 Frc consts  --      2.7714                28.4329                 8.9938
 IR Inten    --     65.7582               481.5175               155.8831

 - Thermochemistry -
 -------------------
 Temperature   298.150 Kelvin.  Pressure   1.00000 Atm.
 Atom     1 has atomic number  6 and mass  12.00000

 Molecular mass:   163.98967 amu.
 Principal axes and moments of inertia in atomic units:
                           1         2         3
     Eigenvalues --  1156.766291281.811741539.09863
           X            0.20544   0.91958  -0.33491
           Y            0.06978   0.32758   0.94224
           Z            0.97618  -0.21695   0.00313
 This molecule is an asymmetric top.
 Rotational symmetry number  1.
 Warning -- assumption of classical behavior for rotation
           may cause significant error
 Rotational temperatures (Kelvin)      0.07488     0.06757     0.05628
 Rotational constants (GHZ):           1.56016     1.40796     1.17260
    1 imaginary frequencies ignored.
 Zero-point vibrational energy     122587.3 (Joules/Mol)
                                   29.29907 (Kcal/Mol)
 Warning -- explicit consideration of  13 degrees of freedom as
           vibrations may cause significant error
 Vibrational temperatures:     72.53   141.52   201.33   248.19   324.97
          (Kelvin)            362.20   400.85   485.83   565.37   634.55
                              681.81   737.03   827.48   904.75   918.64
                              969.06  1022.41  1093.53  1528.18  1638.14
                             1763.53  1817.36  1846.23  1921.92  2936.70
                             5443.61

 Zero-point correction=                           0.046691 (Hartree/Particle)
 Thermal correction to Energy=                    0.056119
 Thermal correction to Enthalpy=                  0.057063
 Thermal correction to Gibbs Free Energy=         0.011509
 Sum of electronic and zero-point Energies=           -764.412931
 Sum of electronic and thermal Energies=              -764.403503
 Sum of electronic and thermal Enthalpies=            -764.402558
 Sum of electronic and thermal Free Energies=         -764.448113

                     E (Thermal)             CV                S
                      KCal/Mol        Cal/Mol-Kelvin    Cal/Mol-Kelvin
 Total                   35.215             32.583             95.878
 Electronic               0.000              0.000              0.000
 Translational            0.889              2.981             41.192
 Rotational               0.889              2.981             29.213
 Vibrational             33.438             26.622             25.472
 Vibration     1          0.595              1.977              4.801
 Vibration     2          0.604              1.950              3.486
 Vibration     3          0.615              1.913              2.805
 Vibration     4          0.626              1.876              2.408
 Vibration     5          0.650              1.802              1.912
 Vibration     6          0.664              1.760              1.718
 Vibration     7          0.679              1.713              1.542
 Vibration     8          0.718              1.600              1.223
 Vibration     9          0.760              1.485              0.989
 Vibration    10          0.801              1.381              0.823
 Vibration    11          0.831              1.308              0.727
 Vibration    12          0.867              1.223              0.628
 Vibration    13          0.931              1.085              0.494

 Normal termination of Gaussian 16 at Sat May 24 06:06:08 2025.
