 Gaussian 16, Revision C.01,
 Gaussian 16:  ES64L-G16RevC.01  3-Jul-2019

 ----------------------------------------------------------------------
 #P M062X/Def2TZVPP Symm(None) scf(xqc) pop(None) opt(NoFreeze,TS,CalcA
 ll,NoEigentest,MaxCycle=999)
 ----------------------------------------------------------------------

 ------------------------------
 Gaussian input prepared by ASE
 ------------------------------
 Symbolic Z-matrix:
 Charge =  0 Multiplicity = 1

 SCF Done:  E(RM062X) =  -764.452058645     A.U. after   16 cycles
 SCF Done:  E(RM062X) =  -764.460762423     A.U. after   15 cycles
 SCF Done:  E(RM062X) =  -764.462741265     A.U. after   16 cycles
 SCF Done:  E(RM062X) =  -764.463423976     A.U. after   13 cycles
 SCF Done:  E(RM062X) =  -764.463432263     A.U. after   10 cycles

 Isotropic polarizability for W=    0.000000       51.69 Bohr**3.
 End of Minotr F.D. properties file   721 does not exist.

 Optimization completed.
    -- Stationary point found.

                          Input orientation:
 ---------------------------------------------------------------------
 Center     Atomic      Atomic             Coordinates (Angstroms)
 Number     Number       Type             X           Y           Z
 ---------------------------------------------------------------------
      1          6           0        1.512835   -0.035433    0.177296
      2          8           0        2.007036   -1.085483    0.447465
      3          6           0        0.009965    0.015850    0.018409
      4          6           0       -1.303923    1.488152    0.519524
      5          9           0       -1.825770    2.658796    0.168658
      6          9           0       -2.293909    0.643024    0.470346
      7          9           0       -0.745805    1.688707    1.681105
      8          9           0       -0.261674    1.530973   -0.765214
      9          9           0       -0.394277   -0.818943   -0.894984
     10          8           0        2.194171    1.109077    0.141708
     11          1           0        1.645013    1.832563   -0.181175
 ---------------------------------------------------------------------

 ******    1 imaginary frequencies (negative Signs) ******

                      1                      2                      3
                      A                      A                      A
 Frequencies --   -645.4859                52.5726                70.0150
 Red. masses --     14.7042                 9.9755                15.7642
 Frc consts  --      3.6097                 0.0162                 0.0455
 IR Inten    --     58.4998                 4.4279                 3.0964

                      4                      5                      6
                      A                      A                      A
 Frequencies --     75.5127               183.4292               244.6848
 Red. masses --     14.6401                17.2753                11.6516
 Frc consts  --      0.0492                 0.3425                 0.4110
 IR Inten    --      1.5260                59.5143                 9.3711

                      7                      8                      9
                      A                      A                      A
 Frequencies --    294.6534               347.5655               361.1891
 Red. masses --     16.0038                14.7125                13.0834
 Frc consts  --      0.8186                 1.0471                 1.0056
 IR Inten    --     25.5549                16.8508                 2.8128

                     10                     11                     12
                      A                      A                      A
 Frequencies --    397.4326               423.2818               526.4525
 Red. masses --      9.9534                15.4549                 1.5373
 Frc consts  --      0.9263                 1.6315                 0.2510
 IR Inten    --     20.2357                85.9860                35.4440

                     13                     14                     15
                      A                      A                      A
 Frequencies --    559.2883               609.1602               624.4033
 Red. masses --      3.8900                12.0538                 9.0362
 Frc consts  --      0.7169                 2.6353                 2.0757
 IR Inten    --    209.8554                 4.9575                10.8103

                     16                     17                     18
                      A                      A                      A
 Frequencies --    656.3835               735.7363               782.1683
 Red. masses --     11.9720                14.2221                10.2626
 Frc consts  --      3.0390                 4.5358                 3.6992
 IR Inten    --     61.5090               312.2350                19.5584

                     19                     20                     21
                      A                      A                      A
 Frequencies --    936.1331               967.2219              1181.8954
 Red. masses --     14.2418                13.2159                 4.1505
 Frc consts  --      7.3534                 7.2845                 3.4159
 IR Inten    --    332.2683               207.9195               264.4965

                     22                     23                     24
                      A                      A                      A
 Frequencies --   1222.7329              1293.4310              1382.0417
 Red. masses --      2.6179                 4.1542                12.9664
 Frc consts  --      2.3061                 4.0948                14.5919
 IR Inten    --    159.0261               302.8895               390.7351

                     25                     26                     27
                      A                      A                      A
 Frequencies --   1405.6220              1892.2436              3845.2856
 Red. masses --      4.8143                11.2851                 1.0655
 Frc consts  --      5.6043                23.8073                 9.2824
 IR Inten    --    209.0458               343.5970                93.6070

 - Thermochemistry -
 -------------------
 Temperature   298.150 Kelvin.  Pressure   1.00000 Atm.
 Atom     1 has atomic number  6 and mass  12.00000

 Molecular mass:   163.98967 amu.
 Principal axes and moments of inertia in atomic units:
                           1         2         3
     Eigenvalues --   791.159291870.812802134.56930
           X            0.84594   0.52412  -0.09841
           Y           -0.52339   0.78064  -0.34156
           Z           -0.10220   0.34044   0.93470
 This molecule is an asymmetric top.
 Rotational symmetry number  1.
 Warning -- assumption of classical behavior for rotation
           may cause significant error
 Rotational temperatures (Kelvin)      0.10948     0.04630     0.04058
 Rotational constants (GHZ):           2.28114     0.96468     0.84548
    1 imaginary frequencies ignored.
 Zero-point vibrational energy     126029.8 (Joules/Mol)
                                   30.12184 (Kcal/Mol)
 Warning -- explicit consideration of  13 degrees of freedom as
           vibrations may cause significant error
 Vibrational temperatures:     75.64   100.74   108.65   263.91   352.05
          (Kelvin)            423.94   500.07   519.67   571.82   609.01
                              757.45   804.69   876.45   898.38   944.39
                             1058.56  1125.37  1346.89  1391.62  1700.48
                             1759.24  1860.96  1988.45  2022.38  2722.52
                             5532.51

 Zero-point correction=                           0.048002 (Hartree/Particle)
 Thermal correction to Energy=                    0.057216
 Thermal correction to Enthalpy=                  0.058160
 Thermal correction to Gibbs Free Energy=         0.012333
 Sum of electronic and zero-point Energies=           -764.415430
 Sum of electronic and thermal Energies=              -764.406216
 Sum of electronic and thermal Enthalpies=            -764.405272
 Sum of electronic and thermal Free Energies=         -764.451100

                     E (Thermal)             CV                S
                      KCal/Mol        Cal/Mol-Kelvin    Cal/Mol-Kelvin
 Total                   35.904             31.539             96.453
 Electronic               0.000              0.000              0.000
 Translational            0.889              2.981             41.192
 Rotational               0.889              2.981             29.537
 Vibrational             34.126             25.577             25.724
 Vibration     1          0.596              1.977              4.718
 Vibration     2          0.598              1.968              4.153
 Vibration     3          0.599              1.965              4.004
 Vibration     4          0.631              1.862              2.293
 Vibration     5          0.660              1.772              1.769
 Vibration     6          0.689              1.684              1.447
 Vibration     7          0.725              1.580              1.177
 Vibration     8          0.735              1.552              1.117
 Vibration     9          0.764              1.476              0.972
 Vibration    10          0.785              1.420              0.881
 Vibration    11          0.881              1.191              0.595
 Vibration    12          0.915              1.119              0.525
 Vibration    13          0.968              1.012              0.434

 Normal termination of Gaussian 16 at Sat May 24 05:23:26 2025.
