 Gaussian 16, Revision C.01,
 Gaussian 16:  ES64L-G16RevC.01  3-Jul-2019

 ----------------------------------------------------------------------
 #P M062X/Def2TZVPP Symm(None) scf(xqc) pop(None) opt(NoFreeze,TS,CalcA
 ll,NoEigentest,MaxCycle=999)
 ----------------------------------------------------------------------

 ------------------------------
 Gaussian input prepared by ASE
 ------------------------------
 Symbolic Z-matrix:
 Charge =  0 Multiplicity = 1

 SCF Done:  E(RM062X) =  -764.514338851     A.U. after   15 cycles
 SCF Done:  E(RM062X) =  -764.519936936     A.U. after   14 cycles
 SCF Done:  E(RM062X) =  -764.523984072     A.U. after   15 cycles
 SCF Done:  E(RM062X) =  -764.524587231     A.U. after   13 cycles
 SCF Done:  E(RM062X) =  -764.524593123     A.U. after   11 cycles

 Isotropic polarizability for W=    0.000000       49.93 Bohr**3.
 End of Minotr F.D. properties file   721 does not exist.

 Optimization completed.
    -- Stationary point found.

                          Input orientation:
 ---------------------------------------------------------------------
 Center     Atomic      Atomic             Coordinates (Angstroms)
 Number     Number       Type             X           Y           Z
 ---------------------------------------------------------------------
      1          6           0        2.007299   -0.031172   -0.197403
      2          8           0        2.471471   -0.924101    0.422673
      3          6           0        0.087806    0.057643   -0.041330
      4          6           0       -0.884391    0.909504   -0.884517
      5          9           0       -1.472590    0.217151   -1.848565
      6          9           0       -1.819178    1.334807   -0.030920
      7          9           0       -0.272973    1.952281   -1.407168
      8          9           0        1.343991   -0.315456   -1.468372
      9          9           0       -0.462618   -1.075236    0.176020
     10          8           0        2.426179    1.228982   -0.305148
     11          1           0        3.119157    1.349425    0.355050
 ---------------------------------------------------------------------

 ******    1 imaginary frequencies (negative Signs) ******

                      1                      2                      3
                      A                      A                      A
 Frequencies --   -438.5673                54.1105                87.5427
 Red. masses --     10.2021                15.1678                11.4277
 Frc consts  --      1.1561                 0.0262                 0.0516
 IR Inten    --     28.2716                 1.3321                 0.9178

                      4                      5                      6
                      A                      A                      A
 Frequencies --    121.1927               170.0448               221.9969
 Red. masses --     17.1216                14.1503                16.5356
 Frc consts  --      0.1482                 0.2411                 0.4801
 IR Inten    --      1.7405                70.5691                 5.5838

                      7                      8                      9
                      A                      A                      A
 Frequencies --    264.0368               280.0830               350.7971
 Red. masses --     15.6328                15.4451                 3.6668
 Frc consts  --      0.6421                 0.7139                 0.2659
 IR Inten    --     15.9067                 3.3168                 3.6219

                     10                     11                     12
                      A                      A                      A
 Frequencies --    424.6171               442.5709               517.4996
 Red. masses --      1.6825                 9.5266                 7.1268
 Frc consts  --      0.1787                 1.0994                 1.1245
 IR Inten    --     76.6173                 6.4720                 5.3508

                     13                     14                     15
                      A                      A                      A
 Frequencies --    545.0348               583.3786               593.1426
 Red. masses --     11.9240                16.4362                10.3419
 Frc consts  --      2.0870                 3.2957                 2.1437
 IR Inten    --     40.1239                 1.2517                17.0421

                     16                     17                     18
                      A                      A                      A
 Frequencies --    696.3439               735.1775               796.9069
 Red. masses --      7.8325                14.1022                 8.7099
 Frc consts  --      2.2377                 4.4908                 3.2590
 IR Inten    --    375.8353                28.1776               134.1125

                     19                     20                     21
                      A                      A                      A
 Frequencies --    923.8433              1124.4504              1228.2313
 Red. masses --     13.4912                 7.3128                12.6232
 Frc consts  --      6.7842                 5.4477                11.2197
 IR Inten    --     15.6354               391.5569               278.5385

                     22                     23                     24
                      A                      A                      A
 Frequencies --   1297.7447              1318.0206              1331.9849
 Red. masses --     10.2956                 4.7264                 1.8804
 Frc consts  --     10.2160                 4.8375                 1.9656
 IR Inten    --    117.3393               305.9228               185.4969

                     25                     26                     27
                      A                      A                      A
 Frequencies --   1409.0992              1891.4605              3849.5599
 Red. masses --     11.6593                12.4851                 1.0653
 Frc consts  --     13.6397                26.3171                 9.3009
 IR Inten    --     67.8119               600.6443               152.3281

 - Thermochemistry -
 -------------------
 Temperature   298.150 Kelvin.  Pressure   1.00000 Atm.
 Atom     1 has atomic number  6 and mass  12.00000

 Molecular mass:   163.98967 amu.
 Principal axes and moments of inertia in atomic units:
                           1         2         3
     Eigenvalues --   804.518291792.952932052.06224
           X            0.93611   0.34214  -0.08151
           Y           -0.28565   0.87479   0.39135
           Z            0.20520  -0.34306   0.91663
 This molecule is an asymmetric top.
 Rotational symmetry number  1.
 Warning -- assumption of classical behavior for rotation
           may cause significant error
 Rotational temperatures (Kelvin)      0.10766     0.04831     0.04221
 Rotational constants (GHZ):           2.24326     1.00657     0.87948
    1 imaginary frequencies ignored.
 Zero-point vibrational energy     127156.3 (Joules/Mol)
                                   30.39108 (Kcal/Mol)
 Warning -- explicit consideration of  14 degrees of freedom as
           vibrations may cause significant error
 Vibrational temperatures:     77.85   125.95   174.37   244.66   319.40
          (Kelvin)            379.89   402.98   504.72   610.93   636.76
                              744.57   784.18   839.35   853.40  1001.88
                             1057.76  1146.57  1329.20  1617.83  1767.15
                             1867.17  1896.34  1916.43  2027.38  2721.39
                             5538.66

 Zero-point correction=                           0.048431 (Hartree/Particle)
 Thermal correction to Energy=                    0.057666
 Thermal correction to Enthalpy=                  0.058610
 Thermal correction to Gibbs Free Energy=         0.013122
 Sum of electronic and zero-point Energies=           -764.476162
 Sum of electronic and thermal Energies=              -764.466927
 Sum of electronic and thermal Enthalpies=            -764.465983
 Sum of electronic and thermal Free Energies=         -764.511472

                     E (Thermal)             CV                S
                      KCal/Mol        Cal/Mol-Kelvin    Cal/Mol-Kelvin
 Total                   36.186             31.519             95.739
 Electronic               0.000              0.000              0.000
 Translational            0.889              2.981             41.192
 Rotational               0.889              2.981             29.472
 Vibrational             34.409             25.558             25.075
 Vibration     1          0.596              1.976              4.661
 Vibration     2          0.601              1.958              3.714
 Vibration     3          0.609              1.932              3.081
 Vibration     4          0.625              1.879              2.435
 Vibration     5          0.648              1.808              1.943
 Vibration     6          0.671              1.739              1.635
 Vibration     7          0.680              1.710              1.533
 Vibration     8          0.728              1.574              1.163
 Vibration     9          0.787              1.417              0.876
 Vibration    10          0.802              1.377              0.819
 Vibration    11          0.873              1.211              0.616
 Vibration    12          0.900              1.151              0.555
 Vibration    13          0.940              1.067              0.479
 Vibration    14          0.951              1.046              0.462

 Normal termination of Gaussian 16 at Sat May 24 05:25:54 2025.
