 Gaussian 16, Revision C.01,
 Gaussian 16:  ES64L-G16RevC.01  3-Jul-2019

 -----------------------------------------------------------------
 #P M062X/Def2TZVPP Symm(None) scf(xqc) pop(None) freq opt(CalcFC)
 -----------------------------------------------------------------

 ------------------------------
 Gaussian input prepared by ASE
 ------------------------------
 Symbolic Z-matrix:
 Charge =  0 Multiplicity = 1

 SCF Done:  E(RM062X) =  -764.553546957     A.U. after   14 cycles
 SCF Done:  E(RM062X) =  -764.580205053     A.U. after   15 cycles
 SCF Done:  E(RM062X) =  -764.590507071     A.U. after   15 cycles
 SCF Done:  E(RM062X) =  -764.593644670     A.U. after   13 cycles
 SCF Done:  E(RM062X) =  -764.592874145     A.U. after   14 cycles
 SCF Done:  E(RM062X) =  -764.594846617     A.U. after   14 cycles
 SCF Done:  E(RM062X) =  -764.595367010     A.U. after   13 cycles
 SCF Done:  E(RM062X) =  -764.595407040     A.U. after   10 cycles
 SCF Done:  E(RM062X) =  -764.595414002     A.U. after    8 cycles
 SCF Done:  E(RM062X) =  -764.595414238     A.U. after    7 cycles
 Optimization completed.
    -- Stationary point found.
 Normal termination of Gaussian 16 at Sat May 24 04:55:14 2025.

 ---------------------------------------------------------------------
 #P Geom=AllCheck Guess=TCheck SCRF=Check GenChk RM062X/def2TZVPP Freq
 ---------------------------------------------------------------------

 Structure from the checkpoint file:  "/tmp/Gau-260999.chk"
 ------------------------------
 Gaussian input prepared by ASE
 ------------------------------
 Charge =  0 Multiplicity = 1

                          Input orientation:
 ---------------------------------------------------------------------
 Center     Atomic      Atomic             Coordinates (Angstroms)
 Number     Number       Type             X           Y           Z
 ---------------------------------------------------------------------
      1          6           0        0.285096   -0.415509    0.523850
      2          8           0        1.501744   -0.068447    0.070824
      3          6           0        3.421871    1.149753   -0.549699
      4          6           0        1.999278    1.225221    0.047195
      5          9           0        3.943761    2.367984   -0.592810
      6          9           0        1.261778    2.028165   -0.718550
      7          9           0        2.081055    1.749382    1.269274
      8          9           0        4.191282    0.378420    0.201705
      9          9           0        3.375751    0.657679   -1.777426
     10          8           0       -0.333744    0.661390    0.930602
     11          1           0       -1.202156    0.395579    1.251175
 ---------------------------------------------------------------------

 SCF Done:  E(RM062X) =  -764.595414238     A.U. after    1 cycles

 Isotropic polarizability for W=    0.000000       46.42 Bohr**3.
 End of Minotr F.D. properties file   721 does not exist.

                      1                      2                      3
                      A                      A                      A
 Frequencies --     68.6961                95.1764               148.9394
 Red. masses --     17.0831                 8.8624                10.7261
 Frc consts  --      0.0475                 0.0473                 0.1402
 IR Inten    --      0.0005                 3.0339                 0.2685

                      4                      5                      6
                      A                      A                      A
 Frequencies --    225.1726               238.9055               248.5026
 Red. masses --     14.0935                14.4706                10.1934
 Frc consts  --      0.4210                 0.4866                 0.3709
 IR Inten    --      2.5573                 1.3541                 4.8955

                      7                      8                      9
                      A                      A                      A
 Frequencies --    320.2528               376.8297               396.3371
 Red. masses --     17.2857                17.9460                15.4571
 Frc consts  --      1.0445                 1.5014                 1.4306
 IR Inten    --      0.8113                 0.0027                 0.2295

                     10                     11                     12
                      A                      A                      A
 Frequencies --    509.3086               534.1916               598.2837
 Red. masses --     13.3627                11.0586                12.9509
 Frc consts  --      2.0422                 1.8593                 2.7313
 IR Inten    --      6.3546                14.7407                 8.1448

                     13                     14                     15
                      A                      A                      A
 Frequencies --    626.2703               640.1693               734.5161
 Red. masses --     11.1248                11.6701                 1.2238
 Frc consts  --      2.5708                 2.8178                 0.3890
 IR Inten    --      2.9513                29.1552                78.5854

                     16                     17                     18
                      A                      A                      A
 Frequencies --    788.8403               862.5735              1063.9429
 Red. masses --     13.1921                13.0334                 3.6756
 Frc consts  --      4.8366                 5.7135                 2.4514
 IR Inten    --      6.4676                 2.1916                48.1183

                     19                     20                     21
                      A                      A                      A
 Frequencies --   1136.0310              1193.1504              1264.8515
 Red. masses --     10.5026                 5.9417                13.0028
 Frc consts  --      7.9859                 4.9837                12.2565
 IR Inten    --    695.7563               136.4796               140.7423

                     22                     23                     24
                      A                      A                      A
 Frequencies --   1293.0882              1302.5268              1337.5530
 Red. masses --     12.4616                13.2154                 5.1055
 Frc consts  --     12.2767                13.2100                 5.3815
 IR Inten    --    253.3889               379.2095               211.9807

                     25                     26                     27
                      A                      A                      A
 Frequencies --   1368.7071              1455.7798              3864.0295
 Red. masses --      2.4388                12.4450                 1.0667
 Frc consts  --      2.6918                15.5395                 9.3838
 IR Inten    --    217.0598                14.5143               207.4640

 - Thermochemistry -
 -------------------
 Temperature   298.150 Kelvin.  Pressure   1.00000 Atm.
 Atom     1 has atomic number  6 and mass  12.00000

 Molecular mass:   163.98967 amu.
 Principal axes and moments of inertia in atomic units:
                           1         2         3
     Eigenvalues --   708.816691790.284611864.04833
           X            0.91574  -0.13613   0.37801
           Y            0.19753   0.97183  -0.12855
           Z           -0.34987   0.19238   0.91683
 This molecule is an asymmetric top.
 Rotational symmetry number  1.
 Warning -- assumption of classical behavior for rotation
           may cause significant error
 Rotational temperatures (Kelvin)      0.12220     0.04838     0.04647
 Rotational constants (GHZ):           2.54613     1.00808     0.96818
 Zero-point vibrational energy     135732.0 (Joules/Mol)
                                   32.44074 (Kcal/Mol)
 Warning -- explicit consideration of  12 degrees of freedom as
           vibrations may cause significant error
 Vibrational temperatures:     98.84   136.94   214.29   323.97   343.73
          (Kelvin)            357.54   460.77   542.17   570.24   732.78
                              768.58   860.80   901.06   921.06  1056.80
                             1134.97  1241.05  1530.78  1634.50  1716.68
                             1819.84  1860.47  1874.05  1924.44  1969.26
                             2094.54  5559.48

 Zero-point correction=                           0.051698 (Hartree/Particle)
 Thermal correction to Energy=                    0.060504
 Thermal correction to Enthalpy=                  0.061448
 Thermal correction to Gibbs Free Energy=         0.017217
 Sum of electronic and zero-point Energies=           -764.543717
 Sum of electronic and thermal Energies=              -764.534911
 Sum of electronic and thermal Enthalpies=            -764.533967
 Sum of electronic and thermal Free Energies=         -764.578198

                     E (Thermal)             CV                S
                      KCal/Mol        Cal/Mol-Kelvin    Cal/Mol-Kelvin
 Total                   37.967             30.692             93.092
 Electronic               0.000              0.000              0.000
 Translational            0.889              2.981             41.192
 Rotational               0.889              2.981             29.249
 Vibrational             36.189             24.730             22.651
 Vibration     1          0.598              1.969              4.190
 Vibration     2          0.603              1.953              3.551
 Vibration     3          0.618              1.904              2.686
 Vibration     4          0.650              1.803              1.917
 Vibration     5          0.657              1.781              1.811
 Vibration     6          0.662              1.765              1.741
 Vibration     7          0.706              1.635              1.309
 Vibration     8          0.747              1.519              1.052
 Vibration     9          0.763              1.478              0.976
 Vibration    10          0.864              1.229              0.635
 Vibration    11          0.889              1.174              0.578
 Vibration    12          0.956              1.035              0.453

 Optimization completed.
    -- Stationary point found.
 Normal termination of Gaussian 16 at Sat May 24 04:58:34 2025.
