 Gaussian 16, Revision C.01,
 Gaussian 16:  ES64L-G16RevC.01  3-Jul-2019

 ----------------------------------------------------------------------
 #P M062X/Def2TZVPP Symm(None) scf(xqc) pop(None) opt(NoFreeze,TS,CalcA
 ll,NoEigentest,MaxCycle=999)
 ----------------------------------------------------------------------

 ------------------------------
 Gaussian input prepared by ASE
 ------------------------------
 Symbolic Z-matrix:
 Charge =  0 Multiplicity = 1

 SCF Done:  E(RM062X) =  -764.512555213     A.U. after   15 cycles
 SCF Done:  E(RM062X) =  -764.512555331     A.U. after    8 cycles

 Isotropic polarizability for W=    0.000000       49.40 Bohr**3.
 End of Minotr F.D. properties file   721 does not exist.

 Optimization completed.
    -- Stationary point found.

                          Input orientation:
 ---------------------------------------------------------------------
 Center     Atomic      Atomic             Coordinates (Angstroms)
 Number     Number       Type             X           Y           Z
 ---------------------------------------------------------------------
      1          6           0        1.829972    0.000544    0.000167
      2          8           0        1.289397   -0.289978    1.110183
      3          6           0        0.000161    0.000560    0.000058
      4          6           0       -0.231736    0.928408   -1.236222
      5          9           0        0.302141    0.414846   -2.325406
      6          9           0       -1.539058    1.066362   -1.437085
      7          9           0        0.290645    2.123805   -1.002578
      8          9           0       -0.362302   -1.222069   -0.299906
      9          9           0       -0.810417    0.506352    0.936965
     10          8           0        3.109701    0.237782   -0.000061
     11          1           0        3.448382    0.145184    0.914721
 ---------------------------------------------------------------------

 ******    1 imaginary frequencies (negative Signs) ******

                      1                      2                      3
                      A                      A                      A
 Frequencies --   -756.6806                65.7740                71.0305
 Red. masses --     12.8518                10.1343                14.7318
 Frc consts  --      4.3355                 0.0258                 0.0438
 IR Inten    --     63.8135                 1.4643                 1.9258

                      4                      5                      6
                      A                      A                      A
 Frequencies --    118.5831               215.2515               253.5822
 Red. masses --      7.6599                 8.4860                 9.9370
 Frc consts  --      0.0635                 0.2317                 0.3765
 IR Inten    --      2.2544                 1.8138                11.9766

                      7                      8                      9
                      A                      A                      A
 Frequencies --    325.9619               362.0639               375.0859
 Red. masses --     10.5910                16.2324                14.0923
 Frc consts  --      0.6630                 1.2537                 1.1681
 IR Inten    --     19.4032                19.0144                 2.8564

                     10                     11                     12
                      A                      A                      A
 Frequencies --    418.0796               471.7876               561.5784
 Red. masses --     15.2264                15.0525                15.2338
 Frc consts  --      1.5681                 1.9740                 2.8306
 IR Inten    --     12.1058                 4.9763                44.2089

                     13                     14                     15
                      A                      A                      A
 Frequencies --    598.2647               616.6014               679.3697
 Red. masses --      9.1984                 7.7214                 7.9940
 Frc consts  --      1.9398                 1.7296                 2.1738
 IR Inten    --     23.5557                65.2725               181.3071

                     16                     17                     18
                      A                      A                      A
 Frequencies --    716.0014               754.2297               859.8779
 Red. masses --      1.5095                 6.9465                12.6430
 Frc consts  --      0.4559                 2.3282                 5.5077
 IR Inten    --    112.4100                67.5634               180.4396

                     19                     20                     21
                      A                      A                      A
 Frequencies --   1041.6866              1218.3369              1246.8594
 Red. masses --     13.4065                 2.0235                12.4849
 Frc consts  --      8.5712                 1.7696                11.4359
 IR Inten    --    158.6188               143.7082               232.0532

                     22                     23                     24
                      A                      A                      A
 Frequencies --   1274.8563              1310.9535              1342.7080
 Red. masses --      8.9805                12.7540                10.6270
 Frc consts  --      8.5995                12.9143                11.2882
 IR Inten    --    268.6525               184.7993               220.8033

                     25                     26                     27
                      A                      A                      A
 Frequencies --   1395.9655              1581.3877              3595.7710
 Red. masses --      5.0651                 7.8140                 1.0619
 Frc consts  --      5.8155                11.5133                 8.0893
 IR Inten    --     55.8780               247.5767                28.8481

 - Thermochemistry -
 -------------------
 Temperature   298.150 Kelvin.  Pressure   1.00000 Atm.
 Atom     1 has atomic number  6 and mass  12.00000

 Molecular mass:   163.98967 amu.
 Principal axes and moments of inertia in atomic units:
                           1         2         3
     Eigenvalues --   947.328371501.067691802.79275
           X            0.82564  -0.56240  -0.04502
           Y           -0.28773  -0.48836   0.82384
           Z            0.48531   0.66724   0.56503
 This molecule is an asymmetric top.
 Rotational symmetry number  1.
 Warning -- assumption of classical behavior for rotation
           may cause significant error
 Rotational temperatures (Kelvin)      0.09143     0.05770     0.04804
 Rotational constants (GHZ):           1.90509     1.20231     1.00108
    1 imaginary frequencies ignored.
 Zero-point vibrational energy     128429.0 (Joules/Mol)
                                   30.69526 (Kcal/Mol)
 Warning -- explicit consideration of  13 degrees of freedom as
           vibrations may cause significant error
 Vibrational temperatures:     94.63   102.20   170.61   309.70   364.85
          (Kelvin)            468.99   520.93   539.66   601.52   678.80
                              807.99   860.77   887.15   977.46  1030.17
                             1085.17  1237.17  1498.75  1752.92  1793.95
                             1834.23  1886.17  1931.86  2008.48  2275.26
                             5173.51

 Zero-point correction=                           0.048916 (Hartree/Particle)
 Thermal correction to Energy=                    0.057652
 Thermal correction to Enthalpy=                  0.058596
 Thermal correction to Gibbs Free Energy=         0.014163
 Sum of electronic and zero-point Energies=           -764.463639
 Sum of electronic and thermal Energies=              -764.454904
 Sum of electronic and thermal Enthalpies=            -764.453959
 Sum of electronic and thermal Free Energies=         -764.498392

                     E (Thermal)             CV                S
                      KCal/Mol        Cal/Mol-Kelvin    Cal/Mol-Kelvin
 Total                   36.177             30.249             93.516
 Electronic               0.000              0.000              0.000
 Translational            0.889              2.981             41.192
 Rotational               0.889              2.981             29.329
 Vibrational             34.400             24.287             22.995
 Vibration     1          0.597              1.971              4.276
 Vibration     2          0.598              1.968              4.125
 Vibration     3          0.609              1.934              3.123
 Vibration     4          0.645              1.818              1.999
 Vibration     5          0.665              1.757              1.706
 Vibration     6          0.710              1.624              1.280
 Vibration     7          0.736              1.550              1.113
 Vibration     8          0.746              1.523              1.059
 Vibration     9          0.781              1.431              0.899
 Vibration    10          0.829              1.313              0.733
 Vibration    11          0.917              1.114              0.521
 Vibration    12          0.956              1.035              0.453
 Vibration    13          0.976              0.997              0.422

 Normal termination of Gaussian 16 at Sat May 24 05:13:21 2025.
