 Gaussian 16, Revision C.01,
 Gaussian 16:  ES64L-G16RevC.01  3-Jul-2019

 -----------------------------------------------------------------
 #P M062X/Def2TZVPP Symm(None) scf(xqc) pop(None) freq opt(CalcFC)
 -----------------------------------------------------------------

 ------------------------------
 Gaussian input prepared by ASE
 ------------------------------
 Symbolic Z-matrix:
 Charge =  0 Multiplicity = 1

 SCF Done:  E(RM062X) =  -764.595702870     A.U. after   13 cycles
 SCF Done:  E(RM062X) =  -764.599541483     A.U. after   12 cycles
 SCF Done:  E(RM062X) =  -764.599018149     A.U. after   14 cycles
 SCF Done:  E(RM062X) =  -764.599800662     A.U. after   12 cycles
 SCF Done:  E(RM062X) =  -764.599805428     A.U. after    8 cycles
 Optimization completed.
    -- Stationary point found.
 Normal termination of Gaussian 16 at Sat May 24 05:07:02 2025.

 ---------------------------------------------------------------------
 #P Geom=AllCheck Guess=TCheck SCRF=Check GenChk RM062X/def2TZVPP Freq
 ---------------------------------------------------------------------

 Structure from the checkpoint file:  "/tmp/Gau-271413.chk"
 ------------------------------
 Gaussian input prepared by ASE
 ------------------------------
 Charge =  0 Multiplicity = 1

                          Input orientation:
 ---------------------------------------------------------------------
 Center     Atomic      Atomic             Coordinates (Angstroms)
 Number     Number       Type             X           Y           Z
 ---------------------------------------------------------------------
      1          6           0        0.058044   -0.025998    0.232870
      2          8           0        1.376000    0.018135   -0.106663
      3          6           0        3.433092    1.103972   -0.493046
      4          6           0        1.953352    1.268910   -0.083151
      5          9           0        4.028090    2.286016   -0.485694
      6          9           0        1.359042    2.093820   -0.939457
      7          9           0        1.901048    1.804826    1.132152
      8          9           0        4.054221    0.301481    0.359093
      9          9           0        3.512918    0.586721   -1.710460
     10          8           0       -0.292569   -1.265509    0.150466
     11          1           0        0.437910   -1.853606   -0.124310
 ---------------------------------------------------------------------

 SCF Done:  E(RM062X) =  -764.599805428     A.U. after    1 cycles

 Isotropic polarizability for W=    0.000000       46.92 Bohr**3.
 End of Minotr F.D. properties file   721 does not exist.

                      1                      2                      3
                      A                      A                      A
 Frequencies --     61.2099               109.3590               126.5956
 Red. masses --     15.8685                 7.5091                11.5632
 Frc consts  --      0.0350                 0.0529                 0.1092
 IR Inten    --      0.1073                18.6632                 4.3221

                      4                      5                      6
                      A                      A                      A
 Frequencies --    145.2176               225.7854               275.6615
 Red. masses --      5.3418                18.6518                15.7332
 Frc consts  --      0.0664                 0.5602                 0.7044
 IR Inten    --     11.2030                 1.7731                 0.2733

                      7                      8                      9
                      A                      A                      A
 Frequencies --    343.5671               376.8914               388.6621
 Red. masses --     16.6104                16.2551                17.8879
 Frc consts  --      1.1552                 1.3604                 1.5920
 IR Inten    --      0.2934                 0.1750                 0.5687

                     10                     11                     12
                      A                      A                      A
 Frequencies --    464.0237               532.7838               557.1343
 Red. masses --      7.1643                16.8138                14.8638
 Frc consts  --      0.9089                 2.8120                 2.7183
 IR Inten    --     10.6878                 1.1657                 3.0326

                     13                     14                     15
                      A                      A                      A
 Frequencies --    629.3055               666.9194               769.0538
 Red. masses --     17.0778                10.3390                14.8975
 Frc consts  --      3.9848                 2.7094                 5.1913
 IR Inten    --      0.7177                 3.6057                36.7297

                     16                     17                     18
                      A                      A                      A
 Frequencies --    781.6841               904.3044              1029.3210
 Red. masses --      1.3080                 8.2374                 7.8755
 Frc consts  --      0.4709                 3.9689                 4.9162
 IR Inten    --    108.8238                39.0373                45.7114

                     19                     20                     21
                      A                      A                      A
 Frequencies --   1153.4817              1229.3113              1274.7895
 Red. masses --     13.4212                 3.5872                12.9370
 Frc consts  --     10.5212                 3.1940                12.3869
 IR Inten    --    711.1542               498.9212                66.8139

                     22                     23                     24
                      A                      A                      A
 Frequencies --   1296.7679              1300.5529              1366.3193
 Red. masses --     13.2615                12.9013                 2.1288
 Frc consts  --     13.1391                12.8570                 2.3414
 IR Inten    --    435.6355               301.2991                69.7901

                     25                     26                     27
                      A                      A                      A
 Frequencies --   1413.7249              1471.9863              3618.2746
 Red. masses --      9.2008                 9.8293                 1.0625
 Frc consts  --     10.8344                12.5481                 8.1955
 IR Inten    --     46.1780                 8.3016                22.6368

 - Thermochemistry -
 -------------------
 Temperature   298.150 Kelvin.  Pressure   1.00000 Atm.
 Atom     1 has atomic number  6 and mass  12.00000

 Molecular mass:   163.98967 amu.
 Principal axes and moments of inertia in atomic units:
                           1         2         3
     Eigenvalues --   787.832741883.464572038.56087
           X            0.87457  -0.41501   0.25079
           Y            0.45592   0.87989  -0.13387
           Z           -0.16511   0.23142   0.95874
 This molecule is an asymmetric top.
 Rotational symmetry number  1.
 Warning -- assumption of classical behavior for rotation
           may cause significant error
 Rotational temperatures (Kelvin)      0.10994     0.04599     0.04249
 Rotational constants (GHZ):           2.29077     0.95820     0.88530
 Zero-point vibrational energy     134655.8 (Joules/Mol)
                                   32.18350 (Kcal/Mol)
 Warning -- explicit consideration of  12 degrees of freedom as
           vibrations may cause significant error
 Vibrational temperatures:     88.07   157.34   182.14   208.94   324.85
          (Kelvin)            396.62   494.32   542.26   559.20   667.63
                              766.56   801.59   905.43   959.55  1106.50
                             1124.67  1301.09  1480.96  1659.60  1768.70
                             1834.14  1865.76  1871.21  1965.83  2034.03
                             2117.86  5205.89

 Zero-point correction=                           0.051288 (Hartree/Particle)
 Thermal correction to Energy=                    0.060238
 Thermal correction to Enthalpy=                  0.061182
 Thermal correction to Gibbs Free Energy=         0.016351
 Sum of electronic and zero-point Energies=           -764.548518
 Sum of electronic and thermal Energies=              -764.539567
 Sum of electronic and thermal Enthalpies=            -764.538623
 Sum of electronic and thermal Free Energies=         -764.583454

                     E (Thermal)             CV                S
                      KCal/Mol        Cal/Mol-Kelvin    Cal/Mol-Kelvin
 Total                   37.800             30.738             94.355
 Electronic               0.000              0.000              0.000
 Translational            0.889              2.981             41.192
 Rotational               0.889              2.981             29.493
 Vibrational             36.022             24.776             23.669
 Vibration     1          0.597              1.973              4.418
 Vibration     2          0.606              1.942              3.280
 Vibration     3          0.611              1.927              2.997
 Vibration     4          0.617              1.908              2.734
 Vibration     5          0.650              1.802              1.912
 Vibration     6          0.677              1.718              1.560
 Vibration     7          0.722              1.588              1.196
 Vibration     8          0.747              1.519              1.052
 Vibration     9          0.757              1.494              1.005
 Vibration    10          0.822              1.330              0.754
 Vibration    11          0.888              1.177              0.581
 Vibration    12          0.913              1.124              0.530

                           ! Non-Optimized Parameters !
 Normal termination of Gaussian 16 at Sat May 24 05:10:26 2025.
