 Gaussian 16, Revision C.01,
 Gaussian 16:  ES64L-G16RevC.01  3-Jul-2019

 -----------------------------------------------------------------
 #P M062X/Def2TZVPP Symm(None) scf(xqc) pop(None) freq opt(CalcFC)
 -----------------------------------------------------------------

 ------------------------------
 Gaussian input prepared by ASE
 ------------------------------
 Symbolic Z-matrix:
 Charge =  0 Multiplicity = 1

 SCF Done:  E(RM062X) =  -764.564814971     A.U. after   14 cycles
 SCF Done:  E(RM062X) =  -764.596134841     A.U. after   15 cycles
 SCF Done:  E(RM062X) =  -764.598045584     A.U. after   14 cycles
 SCF Done:  E(RM062X) =  -764.600023372     A.U. after   12 cycles
 SCF Done:  E(RM062X) =  -764.600141729     A.U. after   13 cycles
 SCF Done:  E(RM062X) =  -764.599859244     A.U. after   13 cycles
 SCF Done:  E(RM062X) =  -764.600194181     A.U. after   11 cycles
 SCF Done:  E(RM062X) =  -764.600508498     A.U. after   12 cycles
 SCF Done:  E(RM062X) =  -764.600530069     A.U. after   11 cycles
 SCF Done:  E(RM062X) =  -764.600531004     A.U. after    7 cycles
 Optimization completed.
    -- Stationary point found.
 Normal termination of Gaussian 16 at Sat May 24 05:05:59 2025.

 ---------------------------------------------------------------------
 #P Geom=AllCheck Guess=TCheck SCRF=Check GenChk RM062X/def2TZVPP Freq
 ---------------------------------------------------------------------

 Structure from the checkpoint file:  "/tmp/Gau-1157.chk"
 ------------------------------
 Gaussian input prepared by ASE
 ------------------------------
 Charge =  0 Multiplicity = 1

                          Input orientation:
 ---------------------------------------------------------------------
 Center     Atomic      Atomic             Coordinates (Angstroms)
 Number     Number       Type             X           Y           Z
 ---------------------------------------------------------------------
      1          6           0        0.137812   -0.158828    0.479207
      2          8           0        1.293279    0.025835   -0.179027
      3          6           0        1.308031    2.330179   -0.951299
      4          6           0        1.913002    1.248830   -0.024157
      5          9           0        1.993466    3.456808   -0.821108
      6          9           0        1.868469    1.680040    1.230149
      7          9           0        3.183102    1.072801   -0.373317
      8          9           0        1.377315    1.925945   -2.211785
      9          9           0        0.042202    2.558093   -0.641611
     10          8           0       -0.219775   -1.364819    0.141437
     11          1           0       -1.049825   -1.554983    0.590734
 ---------------------------------------------------------------------

 SCF Done:  E(RM062X) =  -764.600531004     A.U. after    1 cycles

 Isotropic polarizability for W=    0.000000       46.54 Bohr**3.
 End of Minotr F.D. properties file   721 does not exist.

                      1                      2                      3
                      A                      A                      A
 Frequencies --     46.2056                93.1335               126.7941
 Red. masses --     13.8999                 8.4361                13.6192
 Frc consts  --      0.0175                 0.0431                 0.1290
 IR Inten    --      0.2991                 1.4452                 0.9468

                      4                      5                      6
                      A                      A                      A
 Frequencies --    212.4827               227.5262               247.1653
 Red. masses --     11.8176                14.1611                14.7393
 Frc consts  --      0.3144                 0.4319                 0.5305
 IR Inten    --      0.2397                 3.3252                 2.8541

                      7                      8                      9
                      A                      A                      A
 Frequencies --    353.9740               375.6563               393.0956
 Red. masses --     16.6386                15.6831                15.4216
 Frc consts  --      1.2283                 1.3040                 1.4040
 IR Inten    --      0.0937                 0.4734                 0.2585

                     10                     11                     12
                      A                      A                      A
 Frequencies --    446.6873               533.0136               559.1305
 Red. masses --     13.3457                13.0946                16.4399
 Frc consts  --      1.5689                 2.1919                 3.0281
 IR Inten    --      0.6057                 5.4132                 7.9095

                     13                     14                     15
                      A                      A                      A
 Frequencies --    626.0820               686.0643               734.1260
 Red. masses --     14.6364                15.7365                 1.1417
 Frc consts  --      3.3802                 4.3640                 0.3625
 IR Inten    --      4.3737                13.0334                92.2009

                     16                     17                     18
                      A                      A                      A
 Frequencies --    759.5487               865.4107              1111.0420
 Red. masses --     13.1030                 9.7344                 3.8598
 Frc consts  --      4.4538                 4.2954                 2.8072
 IR Inten    --     61.3687                74.5063               133.1882

                     19                     20                     21
                      A                      A                      A
 Frequencies --   1160.6725              1235.9255              1286.7286
 Red. masses --      9.1794                 6.3574                 9.0297
 Frc consts  --      7.2859                 5.7216                 8.8084
 IR Inten    --    470.4848               371.8034               160.8148

                     22                     23                     24
                      A                      A                      A
 Frequencies --   1294.8530              1298.3872              1364.8498
 Red. masses --     11.2963                11.2010                 2.5594
 Frc consts  --     11.1591                11.1254                 2.8090
 IR Inten    --    274.9179               417.5459                72.2692

                     25                     26                     27
                      A                      A                      A
 Frequencies --   1409.3361              1439.7239              3872.2328
 Red. masses --      6.2843                12.4050                 1.0665
 Frc consts  --      7.3543                15.1498                 9.4217
 IR Inten    --    198.1452                 3.8139               205.8248

 - Thermochemistry -
 -------------------
 Temperature   298.150 Kelvin.  Pressure   1.00000 Atm.
 Atom     1 has atomic number  6 and mass  12.00000

 Molecular mass:   163.98967 amu.
 Principal axes and moments of inertia in atomic units:
                           1         2         3
     Eigenvalues --   875.290991703.667701916.50159
           X            0.37633   0.83844  -0.39420
           Y            0.87011  -0.17368   0.46125
           Z           -0.31826   0.51658   0.79489
 This molecule is an asymmetric top.
 Rotational symmetry number  1.
 Warning -- assumption of classical behavior for rotation
           may cause significant error
 Rotational temperatures (Kelvin)      0.09895     0.05084     0.04519
 Rotational constants (GHZ):           2.06188     1.05933     0.94169
 Zero-point vibrational energy     136134.1 (Joules/Mol)
                                   32.53684 (Kcal/Mol)
 Warning -- explicit consideration of  12 degrees of freedom as
           vibrations may cause significant error
 Vibrational temperatures:     66.48   134.00   182.43   305.72   327.36
          (Kelvin)            355.62   509.29   540.49   565.58   642.68
                              766.89   804.46   900.79   987.09  1056.24
                             1092.82  1245.13  1598.54  1669.95  1778.22
                             1851.32  1863.00  1868.09  1963.71  2027.72
                             2071.44  5571.28

 Zero-point correction=                           0.051851 (Hartree/Particle)
 Thermal correction to Energy=                    0.060799
 Thermal correction to Enthalpy=                  0.061743
 Thermal correction to Gibbs Free Energy=         0.016772
 Sum of electronic and zero-point Energies=           -764.548680
 Sum of electronic and thermal Energies=              -764.539732
 Sum of electronic and thermal Enthalpies=            -764.538788
 Sum of electronic and thermal Free Energies=         -764.583759

                     E (Thermal)             CV                S
                      KCal/Mol        Cal/Mol-Kelvin    Cal/Mol-Kelvin
 Total                   38.152             30.769             94.649
 Electronic               0.000              0.000              0.000
 Translational            0.889              2.981             41.192
 Rotational               0.889              2.981             29.437
 Vibrational             36.374             24.807             24.020
 Vibration     1          0.595              1.979              4.974
 Vibration     2          0.602              1.954              3.593
 Vibration     3          0.611              1.926              2.994
 Vibration     4          0.644              1.822              2.022
 Vibration     5          0.651              1.799              1.898
 Vibration     6          0.661              1.767              1.751
 Vibration     7          0.730              1.567              1.148
 Vibration     8          0.746              1.522              1.057
 Vibration     9          0.760              1.485              0.988
 Vibration    10          0.806              1.368              0.806
 Vibration    11          0.888              1.177              0.581
 Vibration    12          0.915              1.120              0.526

                           ! Non-Optimized Parameters !
 Normal termination of Gaussian 16 at Sat May 24 05:09:02 2025.
