 Gaussian 16, Revision C.01,
 Gaussian 16:  ES64L-G16RevC.01  3-Jul-2019

 -----------------------------------------------------------------
 #P M062X/Def2TZVPP Symm(None) scf(xqc) pop(None) freq opt(CalcFC)
 -----------------------------------------------------------------

 ------------------------------
 Gaussian input prepared by ASE
 ------------------------------
 Symbolic Z-matrix:
 Charge =  0 Multiplicity = 1

 SCF Done:  E(RM062X) =  -764.453475915     A.U. after   15 cycles
 SCF Done:  E(RM062X) =  -764.465662432     A.U. after   15 cycles
 SCF Done:  E(RM062X) =  -764.459705435     A.U. after   14 cycles
 SCF Done:  E(RM062X) =  -764.465577241     A.U. after   15 cycles
 SCF Done:  E(RM062X) =  -764.465674163     A.U. after   11 cycles
 SCF Done:  E(RM062X) =  -764.466364467     A.U. after   13 cycles
 SCF Done:  E(RM062X) =  -764.466404757     A.U. after   12 cycles
 SCF Done:  E(RM062X) =  -764.466402996     A.U. after   13 cycles
 SCF Done:  E(RM062X) =  -764.466410480     A.U. after   12 cycles
 SCF Done:  E(RM062X) =  -764.466411074     A.U. after    9 cycles
 Optimization completed.
    -- Stationary point found.
 Normal termination of Gaussian 16 at Sat May 24 08:58:11 2025.

 ---------------------------------------------------------------------
 #P Geom=AllCheck Guess=TCheck SCRF=Check GenChk RM062X/def2TZVPP Freq
 ---------------------------------------------------------------------

 Structure from the checkpoint file:  "/tmp/Gau-180457.chk"
 ------------------------------
 Gaussian input prepared by ASE
 ------------------------------
 Charge =  0 Multiplicity = 1

                          Input orientation:
 ---------------------------------------------------------------------
 Center     Atomic      Atomic             Coordinates (Angstroms)
 Number     Number       Type             X           Y           Z
 ---------------------------------------------------------------------
      1          6           0        0.636074    2.033917   -0.898861
      2          8           0        0.701273    0.127842    0.281859
      3          6           0        1.120948    3.490459   -0.888171
      4          6           0       -0.091558    4.442276   -0.809474
      5          9           0        0.317543    5.698762   -0.746888
      6          9           0       -0.870165    4.296217   -1.869470
      7          9           0       -0.795524    4.161701    0.284707
      8          9           0        1.951705    3.810737    0.118348
      9          9           0        1.764236    3.711690   -2.045172
     10          8           0        1.067851    1.499887    0.145839
     11          1           0        0.179230   -0.004870   -0.531478
 ---------------------------------------------------------------------

 SCF Done:  E(RM062X) =  -764.466411074     A.U. after    1 cycles

 Isotropic polarizability for W=    0.000000       49.85 Bohr**3.
 End of Minotr F.D. properties file   721 does not exist.

                      1                      2                      3
                      A                      A                      A
 Frequencies --     42.3065                59.5574               166.1276
 Red. masses --     15.9744                15.3074                 6.1380
 Frc consts  --      0.0168                 0.0320                 0.0998
 IR Inten    --      0.2379                 0.1859                 3.6816

                      4                      5                      6
                      A                      A                      A
 Frequencies --    204.6977               223.9683               258.4045
 Red. masses --      9.0111                 8.0972                13.2066
 Frc consts  --      0.2225                 0.2393                 0.5196
 IR Inten    --      1.1577                 3.4188                 0.7250

                      7                      8                      9
                      A                      A                      A
 Frequencies --    343.6120               358.7836               383.6101
 Red. masses --     14.6383                15.7059                10.4367
 Frc consts  --      1.0183                 1.1912                 0.9049
 IR Inten    --      1.0533                 0.3994                 9.2727

                     10                     11                     12
                      A                      A                      A
 Frequencies --    413.7218               433.7707               504.0043
 Red. masses --      2.2387                 2.6996                12.7938
 Frc consts  --      0.2258                 0.2993                 1.9148
 IR Inten    --     55.1952                43.9786                10.8265

                     13                     14                     15
                      A                      A                      A
 Frequencies --    548.8391               609.6833               649.9315
 Red. masses --     16.9662                16.5738                14.9958
 Frc consts  --      3.0111                 3.6298                 3.7321
 IR Inten    --      4.3631                 2.9182                11.7460

                     16                     17                     18
                      A                      A                      A
 Frequencies --    751.0144               842.0714               961.3731
 Red. masses --     14.1221                13.5007                11.1825
 Frc consts  --      4.6930                 5.6403                 6.0894
 IR Inten    --     53.1370                26.0377                44.4784

                     19                     20                     21
                      A                      A                      A
 Frequencies --   1070.3759              1228.3030              1245.8954
 Red. masses --     12.7336                11.9441                13.1064
 Frc consts  --      8.5956                10.6173                11.9866
 IR Inten    --    139.8059               224.8276               150.1669

                     22                     23                     24
                      A                      A                      A
 Frequencies --   1282.1544              1302.3280              1386.2936
 Red. masses --     12.8437                12.9277                11.7294
 Frc consts  --     12.4401                12.9185                13.2811
 IR Inten    --    227.1805               196.5291               145.3411

                     25                     26                     27
                      A                      A                      A
 Frequencies --   1469.0436              1521.3179              3677.0439
 Red. masses --      1.7663                 2.8928                 1.0662
 Frc consts  --      2.2459                 3.9447                 8.4936
 IR Inten    --     25.7100                44.1426                63.4400

 - Thermochemistry -
 -------------------
 Temperature   298.150 Kelvin.  Pressure   1.00000 Atm.
 Atom     1 has atomic number  6 and mass  12.00000

 Molecular mass:   163.98967 amu.
 Principal axes and moments of inertia in atomic units:
                           1         2         3
     Eigenvalues --   834.033101924.008512096.29670
           X           -0.21992   0.94404   0.24581
           Y            0.94301   0.14123   0.30131
           Z           -0.24973  -0.29806   0.92130
 This molecule is an asymmetric top.
 Rotational symmetry number  1.
 Warning -- assumption of classical behavior for rotation
           may cause significant error
 Rotational temperatures (Kelvin)      0.10385     0.04502     0.04132
 Rotational constants (GHZ):           2.16387     0.93801     0.86092
 Zero-point vibrational energy     131219.8 (Joules/Mol)
                                   31.36228 (Kcal/Mol)
 Warning -- explicit consideration of  14 degrees of freedom as
           vibrations may cause significant error
 Vibrational temperatures:     60.87    85.69   239.02   294.51   322.24
          (Kelvin)            371.79   494.38   516.21   551.93   595.25
                              624.10   725.15   789.66   877.20   935.11
                             1080.54  1211.55  1383.20  1540.03  1767.25
                             1792.57  1844.73  1873.76  1994.57  2113.63
                             2188.84  5290.45

 Zero-point correction=                           0.049979 (Hartree/Particle)
 Thermal correction to Energy=                    0.059268
 Thermal correction to Enthalpy=                  0.060212
 Thermal correction to Gibbs Free Energy=         0.014379
 Sum of electronic and zero-point Energies=           -764.416432
 Sum of electronic and thermal Energies=              -764.407143
 Sum of electronic and thermal Enthalpies=            -764.406199
 Sum of electronic and thermal Free Energies=         -764.452032

                     E (Thermal)             CV                S
                      KCal/Mol        Cal/Mol-Kelvin    Cal/Mol-Kelvin
 Total                   37.191             31.974             96.464
 Electronic               0.000              0.000              0.000
 Translational            0.889              2.981             41.192
 Rotational               0.889              2.981             29.599
 Vibrational             35.414             26.013             25.672
 Vibration     1          0.595              1.980              5.148
 Vibration     2          0.597              1.974              4.472
 Vibration     3          0.624              1.884              2.479
 Vibration     4          0.640              1.833              2.090
 Vibration     5          0.649              1.805              1.927
 Vibration     6          0.667              1.749              1.673
 Vibration     7          0.722              1.588              1.195
 Vibration     8          0.734              1.557              1.127
 Vibration     9          0.753              1.505              1.025
 Vibration    10          0.777              1.440              0.914
 Vibration    11          0.795              1.397              0.846
 Vibration    12          0.859              1.241              0.648
 Vibration    13          0.904              1.142              0.547
 Vibration    14          0.969              1.011              0.433

 Optimization completed.
    -- Stationary point found.
 Normal termination of Gaussian 16 at Sat May 24 09:03:32 2025.
