 Gaussian 16, Revision C.01,
 Gaussian 16:  ES64L-G16RevC.01  3-Jul-2019

 ----------------------------------------------------------------------
 #P M062X/Def2TZVPP Symm(None) scf(xqc) pop(None) opt(NoFreeze,TS,CalcA
 ll,NoEigentest,MaxCycle=999)
 ----------------------------------------------------------------------

 ------------------------------
 Gaussian input prepared by ASE
 ------------------------------
 Symbolic Z-matrix:
 Charge =  0 Multiplicity = 1

 SCF Done:  E(RM062X) =  -764.514587700     A.U. after   18 cycles
 SCF Done:  E(RM062X) =  -764.519779739     A.U. after   14 cycles
 SCF Done:  E(RM062X) =  -764.524483646     A.U. after   15 cycles
 SCF Done:  E(RM062X) =  -764.527470478     A.U. after   14 cycles
 SCF Done:  E(RM062X) =  -764.528745610     A.U. after   14 cycles
 SCF Done:  E(RM062X) =  -764.529095204     A.U. after   13 cycles
 SCF Done:  E(RM062X) =  -764.529100717     A.U. after   10 cycles

 Isotropic polarizability for W=    0.000000       51.13 Bohr**3.
 End of Minotr F.D. properties file   721 does not exist.

 Optimization completed.
    -- Stationary point found.

                          Input orientation:
 ---------------------------------------------------------------------
 Center     Atomic      Atomic             Coordinates (Angstroms)
 Number     Number       Type             X           Y           Z
 ---------------------------------------------------------------------
      1          6           0        1.528881    0.110240   -0.162982
      2          8           0        2.232117   -0.618909    0.543021
      3          6           0       -0.017455    0.001507   -0.040972
      4          6           0        1.476828   -0.476358   -1.775261
      5          9           0        1.088670   -1.744427   -1.818673
      6          9           0        0.715495    0.224046   -2.617661
      7          9           0        2.727272   -0.389966   -2.170537
      8          9           0       -0.545692   -1.102248    0.261206
      9          9           0       -0.847335    0.800530   -0.562310
     10          8           0        1.793737    1.471913   -0.327690
     11          1           0        2.654812    1.593815    0.088894
 ---------------------------------------------------------------------

 ******    1 imaginary frequencies (negative Signs) ******

                      1                      2                      3
                      A                      A                      A
 Frequencies --   -300.5158                48.0311               109.6845
 Red. masses --      8.6386                18.1585                14.9187
 Frc consts  --      0.4596                 0.0247                 0.1057
 IR Inten    --     89.5987                 0.2236                 1.8623

                      4                      5                      6
                      A                      A                      A
 Frequencies --    157.7256               201.1185               213.9844
 Red. masses --     12.3695                14.7749                14.8756
 Frc consts  --      0.1813                 0.3521                 0.4013
 IR Inten    --      3.1475                 0.5368                 1.6293

                      7                      8                      9
                      A                      A                      A
 Frequencies --    267.6837               285.5240               333.2486
 Red. masses --      3.2157                 2.6848                13.8822
 Frc consts  --      0.1358                 0.1290                 0.9083
 IR Inten    --     16.8839                41.9005                10.2355

                     10                     11                     12
                      A                      A                      A
 Frequencies --    363.9196               476.1793               516.1693
 Red. masses --      3.4269                14.4766                 9.4119
 Frc consts  --      0.2674                 1.9340                 1.4774
 IR Inten    --     16.1723                 4.4908                18.3770

                     13                     14                     15
                      A                      A                      A
 Frequencies --    550.7031               589.4003               631.9307
 Red. masses --      7.0650                15.6376                 9.3286
 Frc consts  --      1.2624                 3.2007                 2.1949
 IR Inten    --     57.0308                 3.6095                41.9572

                     16                     17                     18
                      A                      A                      A
 Frequencies --    676.4710               754.1012               763.0241
 Red. masses --     12.0484                15.6795                 9.6541
 Frc consts  --      3.2485                 5.2534                 3.3116
 IR Inten    --      0.5424                25.6855                 7.8130

                     19                     20                     21
                      A                      A                      A
 Frequencies --   1026.6559              1095.1421              1247.7841
 Red. masses --      5.7498                13.7273                12.9349
 Frc consts  --      3.5707                 9.7001                11.8656
 IR Inten    --    286.6023               397.0172               182.2555

                     22                     23                     24
                      A                      A                      A
 Frequencies --   1284.4860              1309.4211              1440.9311
 Red. masses --      2.4097                 3.6674                11.4578
 Frc consts  --      2.3425                 3.7049                14.0164
 IR Inten    --     40.2160               199.8040               270.5895

                     25                     26                     27
                      A                      A                      A
 Frequencies --   1482.3288              1586.4742              3853.4670
 Red. masses --     12.2777                 8.2476                 1.0654
 Frc consts  --     15.8949                12.2306                 9.3210
 IR Inten    --    271.6129               472.7769               130.6472

 - Thermochemistry -
 -------------------
 Temperature   298.150 Kelvin.  Pressure   1.00000 Atm.
 Atom     1 has atomic number  6 and mass  12.00000

 Molecular mass:   163.98967 amu.
 Principal axes and moments of inertia in atomic units:
                           1         2         3
     Eigenvalues --  1032.250751415.315611523.14646
           X            0.78155   0.59830  -0.17669
           Y           -0.12661   0.42946   0.89417
           Z           -0.61086   0.67647  -0.41139
 This molecule is an asymmetric top.
 Rotational symmetry number  1.
 Warning -- assumption of classical behavior for rotation
           may cause significant error
 Rotational temperatures (Kelvin)      0.08391     0.06120     0.05687
 Rotational constants (GHZ):           1.74836     1.27515     1.18488
    1 imaginary frequencies ignored.
 Zero-point vibrational energy     127196.5 (Joules/Mol)
                                   30.40069 (Kcal/Mol)
 Warning -- explicit consideration of  13 degrees of freedom as
           vibrations may cause significant error
 Vibrational temperatures:     69.11   157.81   226.93   289.36   307.88
          (Kelvin)            385.14   410.81   479.47   523.60   685.12
                              742.65   792.34   848.02   909.21   973.29
                             1084.98  1097.82  1477.13  1575.67  1795.28
                             1848.09  1883.96  2073.18  2132.74  2282.58
                             5544.28

 Zero-point correction=                           0.048447 (Hartree/Particle)
 Thermal correction to Energy=                    0.057558
 Thermal correction to Enthalpy=                  0.058502
 Thermal correction to Gibbs Free Energy=         0.013570
 Sum of electronic and zero-point Energies=           -764.480654
 Sum of electronic and thermal Energies=              -764.471543
 Sum of electronic and thermal Enthalpies=            -764.470599
 Sum of electronic and thermal Free Energies=         -764.515530

                     E (Thermal)             CV                S
                      KCal/Mol        Cal/Mol-Kelvin    Cal/Mol-Kelvin
 Total                   36.118             31.349             94.566
 Electronic               0.000              0.000              0.000
 Translational            0.889              2.981             41.192
 Rotational               0.889              2.981             29.188
 Vibrational             34.341             25.388             24.185
 Vibration     1          0.595              1.978              4.897
 Vibration     2          0.606              1.941              3.274
 Vibration     3          0.621              1.894              2.577
 Vibration     4          0.638              1.838              2.123
 Vibration     5          0.644              1.820              2.009
 Vibration     6          0.673              1.732              1.611
 Vibration     7          0.683              1.701              1.500
 Vibration     8          0.715              1.609              1.244
 Vibration     9          0.737              1.547              1.105
 Vibration    10          0.833              1.303              0.720
 Vibration    11          0.871              1.214              0.619
 Vibration    12          0.906              1.138              0.543
 Vibration    13          0.947              1.054              0.468

 Normal termination of Gaussian 16 at Sat May 24 05:35:00 2025.
