 Gaussian 16, Revision C.01,
 Gaussian 16:  ES64L-G16RevC.01  3-Jul-2019

 -----------------------------------------------------------------
 #P M062X/Def2TZVPP Symm(None) scf(xqc) pop(None) freq opt(CalcFC)
 -----------------------------------------------------------------

 ------------------------------
 Gaussian input prepared by ASE
 ------------------------------
 Symbolic Z-matrix:
 Charge =  0 Multiplicity = 1

 SCF Done:  E(RM062X) =  -764.647271369     A.U. after   13 cycles
 SCF Done:  E(RM062X) =  -764.657805408     A.U. after   14 cycles
 SCF Done:  E(RM062X) =  -764.465838192     A.U. after   15 cycles
 SCF Done:  E(RM062X) =  -764.658095245     A.U. after   14 cycles
 SCF Done:  E(RM062X) =  -764.620700722     A.U. after   15 cycles
 SCF Done:  E(RM062X) =  -764.661802806     A.U. after   13 cycles
 SCF Done:  E(RM062X) =  -764.662954315     A.U. after   13 cycles
 SCF Done:  E(RM062X) =  -764.663119037     A.U. after   11 cycles
 SCF Done:  E(RM062X) =  -764.663269694     A.U. after   11 cycles
 SCF Done:  E(RM062X) =  -764.663466260     A.U. after   13 cycles
 SCF Done:  E(RM062X) =  -764.664504958     A.U. after   14 cycles
 SCF Done:  E(RM062X) =  -764.664541608     A.U. after   12 cycles
 SCF Done:  E(RM062X) =  -764.664548615     A.U. after    9 cycles
 SCF Done:  E(RM062X) =  -764.664554913     A.U. after    8 cycles
 SCF Done:  E(RM062X) =  -764.664557258     A.U. after    8 cycles
 SCF Done:  E(RM062X) =  -764.664559945     A.U. after    8 cycles
 SCF Done:  E(RM062X) =  -764.664563804     A.U. after    9 cycles
 SCF Done:  E(RM062X) =  -764.664565794     A.U. after   11 cycles
 SCF Done:  E(RM062X) =  -764.664565967     A.U. after    8 cycles
 Optimization completed.
    -- Stationary point found.
 Normal termination of Gaussian 16 at Fri May 23 23:35:38 2025.

 ---------------------------------------------------------------------
 #P Geom=AllCheck Guess=TCheck SCRF=Check GenChk RM062X/def2TZVPP Freq
 ---------------------------------------------------------------------

 Structure from the checkpoint file:  "/tmp/Gau-114398.chk"
 ------------------------------
 Gaussian input prepared by ASE
 ------------------------------
 Charge =  0 Multiplicity = 1

                          Input orientation:
 ---------------------------------------------------------------------
 Center     Atomic      Atomic             Coordinates (Angstroms)
 Number     Number       Type             X           Y           Z
 ---------------------------------------------------------------------
      1          6           0        1.569286    0.109007   -0.087648
      2          8           0        2.096313   -0.617560   -0.861093
      3          6           0        0.024847    0.139855    0.033720
      4          6           0       -0.631664    0.887081   -1.144547
      5          9           0       -1.937825    0.979425   -0.950774
      6          9           0       -0.119297    2.115056   -1.213565
      7          9           0       -0.405004    0.259723   -2.282584
      8          9           0       -0.453290   -1.101632    0.076617
      9          9           0       -0.341711    0.786130    1.166636
     10          8           0        2.216805    0.953449    0.708378
     11          1           0        1.610436    1.425804    1.291744
 ---------------------------------------------------------------------

 SCF Done:  E(RM062X) =  -764.664565967     A.U. after    1 cycles

 Isotropic polarizability for W=    0.000000       43.66 Bohr**3.
 End of Minotr F.D. properties file   721 does not exist.

                      1                      2                      3
                      A                      A                      A
 Frequencies --     29.9612                64.7188               142.5009
 Red. masses --      9.1969                15.1207                16.7037
 Frc consts  --      0.0049                 0.0373                 0.1998
 IR Inten    --      4.3892                 0.7890                 2.3218

                      4                      5                      6
                      A                      A                      A
 Frequencies --    214.0136               265.3618               292.7527
 Red. masses --     16.9104                13.3659                17.3601
 Frc consts  --      0.4563                 0.5545                 0.8766
 IR Inten    --      3.9678                 6.0761                 6.0937

                      7                      8                      9
                      A                      A                      A
 Frequencies --    360.0911               375.7452               394.9597
 Red. masses --     16.5877                 9.3176                16.2137
 Frc consts  --      1.2672                 0.7751                 1.4902
 IR Inten    --      0.5275                 6.8443                 2.3475

                     10                     11                     12
                      A                      A                      A
 Frequencies --    512.9113               518.6935               548.4919
 Red. masses --      1.9379                 2.7326                10.1445
 Frc consts  --      0.3004                 0.4332                 1.7981
 IR Inten    --     91.1723                27.7191                13.3126

                     13                     14                     15
                      A                      A                      A
 Frequencies --    592.7983               625.3772               709.9765
 Red. masses --      9.4299                14.4859                 9.1225
 Frc consts  --      1.9524                 3.3379                 2.7093
 IR Inten    --      5.8936                 2.9988                33.5078

                     16                     17                     18
                      A                      A                      A
 Frequencies --    781.2196               798.1122              1055.4175
 Red. masses --     12.2083                13.0321                13.3082
 Frc consts  --      4.3899                 4.8909                 8.7341
 IR Inten    --      1.4110                15.4235               146.3753

                     19                     20                     21
                      A                      A                      A
 Frequencies --   1176.5506              1246.4758              1266.3570
 Red. masses --      4.8130                 2.1317                11.8382
 Frc consts  --      3.9255                 1.9514                11.1853
 IR Inten    --     93.3240               129.9097               291.7050

                     22                     23                     24
                      A                      A                      A
 Frequencies --   1280.5406              1310.2316              1375.9512
 Red. masses --      5.9936                13.1255                 6.8269
 Frc consts  --      5.7906                13.2758                 7.6151
 IR Inten    --     75.7420               263.0546               326.3521

                     25                     26                     27
                      A                      A                      A
 Frequencies --   1413.1426              1942.7708              3839.2191
 Red. masses --      6.4527                11.5082                 1.0657
 Frc consts  --      7.5921                25.5917                 9.2552
 IR Inten    --     89.5632               292.7786               138.3662

 - Thermochemistry -
 -------------------
 Temperature   298.150 Kelvin.  Pressure   1.00000 Atm.
 Atom     1 has atomic number  6 and mass  12.00000

 Molecular mass:   163.98967 amu.
 Principal axes and moments of inertia in atomic units:
                           1         2         3
     Eigenvalues --   948.542441534.079741593.07373
           X            0.87043  -0.41911   0.25827
           Y           -0.23281   0.11180   0.96607
           Z            0.43376   0.90103   0.00026
 This molecule is an asymmetric top.
 Rotational symmetry number  1.
 Warning -- assumption of classical behavior for rotation
           may cause significant error
 Rotational temperatures (Kelvin)      0.09131     0.05646     0.05437
 Rotational constants (GHZ):           1.90265     1.17643     1.13287
 Zero-point vibrational energy     138374.1 (Joules/Mol)
                                   33.07220 (Kcal/Mol)
 Warning -- explicit consideration of  13 degrees of freedom as
           vibrations may cause significant error
 Vibrational temperatures:     43.11    93.12   205.03   307.92   381.80
          (Kelvin)            421.21   518.09   540.61   568.26   737.97
                              746.28   789.16   852.90   899.78  1021.50
                             1124.00  1148.31  1518.51  1692.79  1793.40
                             1822.01  1842.41  1885.13  1979.69  2033.20
                             2795.21  5523.78

 Zero-point correction=                           0.052704 (Hartree/Particle)
 Thermal correction to Energy=                    0.061619
 Thermal correction to Enthalpy=                  0.062563
 Thermal correction to Gibbs Free Energy=         0.017308
 Sum of electronic and zero-point Energies=           -764.611862
 Sum of electronic and thermal Energies=              -764.602947
 Sum of electronic and thermal Enthalpies=            -764.602003
 Sum of electronic and thermal Free Energies=         -764.647258

                     E (Thermal)             CV                S
                      KCal/Mol        Cal/Mol-Kelvin    Cal/Mol-Kelvin
 Total                   38.666             30.787             95.248
 Electronic               0.000              0.000              0.000
 Translational            0.889              2.981             41.192
 Rotational               0.889              2.981             29.229
 Vibrational             36.889             24.826             24.826
 Vibration     1          0.594              1.984              5.832
 Vibration     2          0.597              1.971              4.308
 Vibration     3          0.616              1.911              2.770
 Vibration     4          0.644              1.820              2.009
 Vibration     5          0.671              1.737              1.626
 Vibration     6          0.688              1.687              1.458
 Vibration     7          0.735              1.554              1.122
 Vibration     8          0.747              1.522              1.056
 Vibration     9          0.762              1.481              0.981
 Vibration    10          0.868              1.221              0.627
 Vibration    11          0.874              1.209              0.613
 Vibration    12          0.904              1.143              0.547
 Vibration    13          0.950              1.047              0.462

 Optimization completed.
    -- Stationary point found.
 Normal termination of Gaussian 16 at Fri May 23 23:38:58 2025.
