 Gaussian 16, Revision C.01,
 Gaussian 16:  ES64L-G16RevC.01  3-Jul-2019

 ----------------------------------------------------------------------
 #P M062X/Def2TZVPP Symm(None) scf(xqc) pop(None) opt(NoFreeze,TS,CalcA
 ll,NoEigentest,MaxCycle=999)
 ----------------------------------------------------------------------

 ------------------------------
 Gaussian input prepared by ASE
 ------------------------------
 Symbolic Z-matrix:
 Charge =  0 Multiplicity = 1

 SCF Done:  E(RM062X) =  -764.405205286     A.U. after   26 cycles
 SCF Done:  E(RM062X) =  -764.436901322     A.U. after   20 cycles
 SCF Done:  E(RM062X) =  -764.452519106     A.U. after   18 cycles
 SCF Done:  E(RM062X) =  -764.454336342     A.U. after   20 cycles
 SCF Done:  E(RM062X) =  -764.454891173     A.U. after   20 cycles
 SCF Done:  E(RM062X) =  -764.454957359     A.U. after   16 cycles
 SCF Done:  E(RM062X) =  -764.454957910     A.U. after   12 cycles

 Isotropic polarizability for W=    0.000000       57.62 Bohr**3.
 End of Minotr F.D. properties file   721 does not exist.

 Optimization completed.
    -- Stationary point found.

                          Input orientation:
 ---------------------------------------------------------------------
 Center     Atomic      Atomic             Coordinates (Angstroms)
 Number     Number       Type             X           Y           Z
 ---------------------------------------------------------------------
      1          6           0        0.944496    0.279707    0.261488
      2          8           0        0.210538   -0.389897   -0.465904
      3          6           0        1.475499    1.461484   -0.280544
      4          6           0        1.064269    2.159917   -1.576582
      5          9           0        0.724771    3.410474   -1.241376
      6          9           0        2.109508    2.221238   -2.383195
      7          9           0        0.053380    1.597508   -2.184003
      8          9           0        1.696866   -0.748642   -1.601976
      9          9           0        2.409278    2.090413    0.337321
     10          8           0        1.450181   -0.115254    1.433037
     11          1           0        1.178511   -1.029462    1.585407
 ---------------------------------------------------------------------

 ******    1 imaginary frequencies (negative Signs) ******

                      1                      2                      3
                      A                      A                      A
 Frequencies --   -522.5008                42.9902                85.5431
 Red. masses --     15.6005                18.4774                16.7081
 Frc consts  --      2.5094                 0.0201                 0.0720
 IR Inten    --    314.3639                 1.2041                 3.3931

                      4                      5                      6
                      A                      A                      A
 Frequencies --    100.5048               192.1408               216.6413
 Red. masses --     11.0292                10.2717                10.4097
 Frc consts  --      0.0656                 0.2234                 0.2879
 IR Inten    --     10.1048                 3.4977                 8.2521

                      7                      8                      9
                      A                      A                      A
 Frequencies --    266.0930               286.5467               353.5601
 Red. masses --     16.3028                15.8405                 8.8376
 Frc consts  --      0.6801                 0.7663                 0.6509
 IR Inten    --      8.9304                54.1253                 2.3855

                     10                     11                     12
                      A                      A                      A
 Frequencies --    380.8549               387.8859               493.8876
 Red. masses --      4.1039                 1.5894                10.6451
 Frc consts  --      0.3507                 0.1409                 1.5299
 IR Inten    --     29.1452                56.3553                48.9069

                     13                     14                     15
                      A                      A                      A
 Frequencies --    528.4541               588.7812               623.6463
 Red. masses --     14.2368                13.1907                11.9486
 Frc consts  --      2.3425                 2.6942                 2.7381
 IR Inten    --      6.5499                16.4956                 3.4415

                     16                     17                     18
                      A                      A                      A
 Frequencies --    677.8938               759.3634               805.3262
 Red. masses --      6.4159                12.2904                11.2432
 Frc consts  --      1.7371                 4.1756                 4.2962
 IR Inten    --     83.7675                 2.1714                 4.2242

                     19                     20                     21
                      A                      A                      A
 Frequencies --   1077.9991              1191.5590              1228.7820
 Red. masses --     13.0125                 2.6158                 8.0716
 Frc consts  --      8.9094                 2.1882                 7.1805
 IR Inten    --    319.9129               130.6604               159.2783

                     22                     23                     24
                      A                      A                      A
 Frequencies --   1311.2431              1345.1320              1432.3201
 Red. masses --      2.9313                10.1771                12.6673
 Frc consts  --      2.9694                10.8494                15.3114
 IR Inten    --     61.8052               298.4461               410.5319

                     25                     26                     27
                      A                      A                      A
 Frequencies --   1542.0217              1640.6566              3835.4371
 Red. masses --      7.4519                12.7348                 1.0652
 Frc consts  --     10.4400                20.1966                 9.2320
 IR Inten    --    211.0694               277.1108               170.4105

 - Thermochemistry -
 -------------------
 Temperature   298.150 Kelvin.  Pressure   1.00000 Atm.
 Atom     1 has atomic number  6 and mass  12.00000

 Molecular mass:   163.98967 amu.
 Principal axes and moments of inertia in atomic units:
                           1         2         3
     Eigenvalues --   952.476981596.973741945.54853
           X           -0.02345   0.33769   0.94097
           Y            0.81163   0.55598  -0.17930
           Z           -0.58371   0.75951  -0.28712
 This molecule is an asymmetric top.
 Rotational symmetry number  1.
 Warning -- assumption of classical behavior for rotation
           may cause significant error
 Rotational temperatures (Kelvin)      0.09094     0.05424     0.04452
 Rotational constants (GHZ):           1.89479     1.13010     0.92763
    1 imaginary frequencies ignored.
 Zero-point vibrational energy     127972.1 (Joules/Mol)
                                   30.58607 (Kcal/Mol)
 Warning -- explicit consideration of  13 degrees of freedom as
           vibrations may cause significant error
 Vibrational temperatures:     61.85   123.08   144.60   276.45   311.70
          (Kelvin)            382.85   412.28   508.69   547.97   558.08
                              710.59   760.33   847.12   897.29   975.34
                             1092.55  1158.68  1551.00  1714.39  1767.94
                             1886.59  1935.34  2060.79  2218.63  2360.54
                             5518.34

 Zero-point correction=                           0.048742 (Hartree/Particle)
 Thermal correction to Energy=                    0.058066
 Thermal correction to Enthalpy=                  0.059010
 Thermal correction to Gibbs Free Energy=         0.013093
 Sum of electronic and zero-point Energies=           -764.406216
 Sum of electronic and thermal Energies=              -764.396892
 Sum of electronic and thermal Enthalpies=            -764.395948
 Sum of electronic and thermal Free Energies=         -764.441865

                     E (Thermal)             CV                S
                      KCal/Mol        Cal/Mol-Kelvin    Cal/Mol-Kelvin
 Total                   36.437             31.419             96.641
 Electronic               0.000              0.000              0.000
 Translational            0.889              2.981             41.192
 Rotational               0.889              2.981             29.472
 Vibrational             34.660             25.457             25.977
 Vibration     1          0.595              1.980              5.116
 Vibration     2          0.601              1.959              3.759
 Vibration     3          0.604              1.949              3.445
 Vibration     4          0.634              1.851              2.207
 Vibration     5          0.645              1.816              1.987
 Vibration     6          0.672              1.735              1.621
 Vibration     7          0.684              1.699              1.494
 Vibration     8          0.730              1.568              1.150
 Vibration     9          0.751              1.511              1.036
 Vibration    10          0.756              1.496              1.008
 Vibration    11          0.850              1.264              0.674
 Vibration    12          0.883              1.187              0.591
 Vibration    13          0.946              1.056              0.469

 Normal termination of Gaussian 16 at Sat May 24 06:59:09 2025.
