 Gaussian 16, Revision C.01,
 Gaussian 16:  ES64L-G16RevC.01  3-Jul-2019

 -----------------------------------------------------------------
 #P M062X/Def2TZVPP Symm(None) scf(xqc) pop(None) freq opt(CalcFC)
 -----------------------------------------------------------------

 ------------------------------
 Gaussian input prepared by ASE
 ------------------------------
 Symbolic Z-matrix:
 Charge =  0 Multiplicity = 1

 SCF Done:  E(RM062X) =  -764.398519966     A.U. after   18 cycles
 SCF Done:  E(RM062X) =  -764.435928189     A.U. after   14 cycles
 SCF Done:  E(RM062X) =  -764.444315045     A.U. after   14 cycles
 SCF Done:  E(RM062X) =  -764.455009623     A.U. after   15 cycles
 SCF Done:  E(RM062X) =  -764.459027810     A.U. after   15 cycles
 SCF Done:  E(RM062X) =  -764.460230506     A.U. after   14 cycles
 SCF Done:  E(RM062X) =  -764.460654861     A.U. after   14 cycles
 SCF Done:  E(RM062X) =  -764.460986677     A.U. after   14 cycles
 SCF Done:  E(RM062X) =  -764.461407362     A.U. after   15 cycles
 SCF Done:  E(RM062X) =  -764.461896079     A.U. after   14 cycles
 SCF Done:  E(RM062X) =  -764.462845669     A.U. after   12 cycles
 SCF Done:  E(RM062X) =  -764.462925001     A.U. after   11 cycles
 SCF Done:  E(RM062X) =  -764.463043038     A.U. after   13 cycles
 SCF Done:  E(RM062X) =  -764.463147009     A.U. after   13 cycles
 SCF Done:  E(RM062X) =  -764.463229141     A.U. after   13 cycles
 SCF Done:  E(RM062X) =  -764.463269533     A.U. after   11 cycles
 SCF Done:  E(RM062X) =  -764.463284802     A.U. after   10 cycles
 SCF Done:  E(RM062X) =  -764.463288247     A.U. after   10 cycles
 SCF Done:  E(RM062X) =  -764.463288611     A.U. after    9 cycles
 Optimization completed.
    -- Stationary point found.
 Normal termination of Gaussian 16 at Sat May 24 09:02:39 2025.

 ---------------------------------------------------------------------
 #P Geom=AllCheck Guess=TCheck SCRF=Check GenChk RM062X/def2TZVPP Freq
 ---------------------------------------------------------------------

 Structure from the checkpoint file:  "/tmp/Gau-170519.chk"
 ------------------------------
 Gaussian input prepared by ASE
 ------------------------------
 Charge =  0 Multiplicity = 1

                          Input orientation:
 ---------------------------------------------------------------------
 Center     Atomic      Atomic             Coordinates (Angstroms)
 Number     Number       Type             X           Y           Z
 ---------------------------------------------------------------------
      1          6           0        0.431835    2.038375   -0.869782
      2          8           0        0.576617   -0.093574    0.300353
      3          6           0       -1.082709    1.825054   -0.940236
      4          6           0       -1.463408    0.982922   -2.183835
      5          9           0       -2.777693    0.841977   -2.229276
      6          9           0       -1.056262    1.606771   -3.282621
      7          9           0       -0.899463   -0.212160   -2.138232
      8          9           0       -1.595991    1.258214    0.153534
      9          9           0       -1.656905    3.028829   -1.085210
     10          8           0        1.184752    1.252736   -0.361191
     11          1           0        1.422936   -0.538311    0.436852
 ---------------------------------------------------------------------

 SCF Done:  E(RM062X) =  -764.463288611     A.U. after    1 cycles

 Isotropic polarizability for W=    0.000000       53.99 Bohr**3.
 End of Minotr F.D. properties file   721 does not exist.

                      1                      2                      3
                      A                      A                      A
 Frequencies --     40.8411                96.9395               152.0878
 Red. masses --     15.5100                 8.4361                 3.9542
 Frc consts  --      0.0152                 0.0467                 0.0539
 IR Inten    --      0.1740                 0.9111                24.6734

                      4                      5                      6
                      A                      A                      A
 Frequencies --    176.4084               207.3182               215.4766
 Red. masses --      1.7498                 4.8617                13.0928
 Frc consts  --      0.0321                 0.1231                 0.3582
 IR Inten    --     70.7818                34.7285                 1.9992

                      7                      8                      9
                      A                      A                      A
 Frequencies --    263.9888               286.8515               364.6407
 Red. masses --     15.3600                16.0168                17.6529
 Frc consts  --      0.6307                 0.7765                 1.3829
 IR Inten    --     80.6947                21.3258                 2.5208

                     10                     11                     12
                      A                      A                      A
 Frequencies --    390.9966               460.7721               473.7550
 Red. masses --     16.6196                 9.3761                14.7554
 Frc consts  --      1.4970                 1.1729                 1.9512
 IR Inten    --    174.5162                88.8715                11.0607

                     13                     14                     15
                      A                      A                      A
 Frequencies --    515.7739               565.1292               599.1118
 Red. masses --     13.7693                15.3413                17.2099
 Frc consts  --      2.1581                 2.8867                 3.6395
 IR Inten    --      4.0734                 4.7236                 5.8194

                     16                     17                     18
                      A                      A                      A
 Frequencies --    689.0938               736.9838               803.9050
 Red. masses --     15.0100                10.3714                15.1116
 Frc consts  --      4.1994                 3.3190                 5.7540
 IR Inten    --     10.0619                33.7112                 4.3413

                     19                     20                     21
                      A                      A                      A
 Frequencies --   1046.8532              1192.5247              1211.7339
 Red. masses --     13.0549                 1.2014                10.5114
 Frc consts  --      8.4294                 1.0066                 9.0934
 IR Inten    --    112.1883                81.3223               218.7058

                     22                     23                     24
                      A                      A                      A
 Frequencies --   1251.0759              1286.4360              1301.6721
 Red. masses --     12.8068                13.0812                13.0763
 Frc consts  --     11.8102                12.7548                13.0539
 IR Inten    --    185.0776               234.6230               198.5639

                     25                     26                     27
                      A                      A                      A
 Frequencies --   1365.5635              1703.5771              3846.4156
 Red. masses --     12.5546                12.3031                 1.0683
 Frc consts  --     13.7936                21.0371                 9.3123
 IR Inten    --    133.2004               153.7339               133.9293

 - Thermochemistry -
 -------------------
 Temperature   298.150 Kelvin.  Pressure   1.00000 Atm.
 Atom     1 has atomic number  6 and mass  12.00000

 Molecular mass:   163.98967 amu.
 Principal axes and moments of inertia in atomic units:
                           1         2         3
     Eigenvalues --   942.635011543.775721728.09536
           X            0.72018  -0.22472   0.65639
           Y           -0.15661   0.86901   0.46935
           Z            0.67588   0.44081  -0.59065
 This molecule is an asymmetric top.
 Rotational symmetry number  1.
 Warning -- assumption of classical behavior for rotation
           may cause significant error
 Rotational temperatures (Kelvin)      0.09188     0.05611     0.05012
 Rotational constants (GHZ):           1.91457     1.16904     1.04435
 Zero-point vibrational energy     127078.9 (Joules/Mol)
                                   30.37258 (Kcal/Mol)
 Warning -- explicit consideration of  15 degrees of freedom as
           vibrations may cause significant error
 Vibrational temperatures:     58.76   139.47   218.82   253.81   298.28
          (Kelvin)            310.02   379.82   412.72   524.64   562.56
                              662.95   681.63   742.08   813.09   861.99
                              991.45  1060.36  1156.64  1506.19  1715.78
                             1743.41  1800.02  1850.89  1872.82  1964.74
                             2451.07  5534.13

 Zero-point correction=                           0.048402 (Hartree/Particle)
 Thermal correction to Energy=                    0.058178
 Thermal correction to Enthalpy=                  0.059122
 Thermal correction to Gibbs Free Energy=         0.012713
 Sum of electronic and zero-point Energies=           -764.414887
 Sum of electronic and thermal Energies=              -764.405111
 Sum of electronic and thermal Enthalpies=            -764.404167
 Sum of electronic and thermal Free Energies=         -764.450576

                     E (Thermal)             CV                S
                      KCal/Mol        Cal/Mol-Kelvin    Cal/Mol-Kelvin
 Total                   36.507             33.406             97.676
 Electronic               0.000              0.000              0.000
 Translational            0.889              2.981             41.192
 Rotational               0.889              2.981             29.310
 Vibrational             34.730             27.444             27.174
 Vibration     1          0.594              1.981              5.218
 Vibration     2          0.603              1.951              3.515
 Vibration     3          0.619              1.900              2.646
 Vibration     4          0.628              1.871              2.366
 Vibration     5          0.641              1.829              2.067
 Vibration     6          0.645              1.817              1.997
 Vibration     7          0.671              1.739              1.635
 Vibration     8          0.684              1.698              1.492
 Vibration     9          0.738              1.545              1.102
 Vibration    10          0.759              1.489              0.996
 Vibration    11          0.819              1.337              0.764
 Vibration    12          0.831              1.308              0.727
 Vibration    13          0.871              1.215              0.620
 Vibration    14          0.921              1.107              0.514
 Vibration    15          0.957              1.034              0.451

 Optimization completed.
    -- Stationary point found.
 Normal termination of Gaussian 16 at Sat May 24 09:06:16 2025.
