 Gaussian 16, Revision C.01,
 Gaussian 16:  ES64L-G16RevC.01  3-Jul-2019

 -----------------------------------------------------------------
 #P M062X/Def2TZVPP Symm(None) scf(xqc) pop(None) freq opt(CalcFC)
 -----------------------------------------------------------------

 ------------------------------
 Gaussian input prepared by ASE
 ------------------------------
 Symbolic Z-matrix:
 Charge =  0 Multiplicity = 1

 SCF Done:  E(RM062X) =  -764.270282869     A.U. after   18 cycles
 SCF Done:  E(RM062X) =  -764.351201123     A.U. after   17 cycles
 SCF Done:  E(RM062X) =  -764.417686670     A.U. after   15 cycles
 SCF Done:  E(RM062X) =  -764.418993438     A.U. after   17 cycles
 SCF Done:  E(RM062X) =  -764.432761216     A.U. after   15 cycles
 SCF Done:  E(RM062X) =  -764.435370388     A.U. after   15 cycles
 SCF Done:  E(RM062X) =  -764.435007126     A.U. after   15 cycles
 SCF Done:  E(RM062X) =  -764.447512054     A.U. after   14 cycles
 SCF Done:  E(RM062X) =  -764.451776768     A.U. after   15 cycles
 SCF Done:  E(RM062X) =  -764.453617766     A.U. after   14 cycles
 SCF Done:  E(RM062X) =  -764.463240229     A.U. after   13 cycles
 SCF Done:  E(RM062X) =  -764.463258275     A.U. after   11 cycles
 SCF Done:  E(RM062X) =  -764.463268663     A.U. after   11 cycles
 SCF Done:  E(RM062X) =  -764.463274928     A.U. after   11 cycles
 SCF Done:  E(RM062X) =  -764.463279517     A.U. after   11 cycles
 SCF Done:  E(RM062X) =  -764.463282433     A.U. after   10 cycles
 SCF Done:  E(RM062X) =  -764.463284709     A.U. after   10 cycles
 SCF Done:  E(RM062X) =  -764.463285610     A.U. after   10 cycles
 SCF Done:  E(RM062X) =  -764.463285989     A.U. after    8 cycles
 Optimization completed.
    -- Stationary point found.
 Normal termination of Gaussian 16 at Sat May 24 09:09:18 2025.

 ---------------------------------------------------------------------
 #P Geom=AllCheck Guess=TCheck SCRF=Check GenChk RM062X/def2TZVPP Freq
 ---------------------------------------------------------------------

 Structure from the checkpoint file:  "/tmp/Gau-110685.chk"
 ------------------------------
 Gaussian input prepared by ASE
 ------------------------------
 Charge =  0 Multiplicity = 1

                          Input orientation:
 ---------------------------------------------------------------------
 Center     Atomic      Atomic             Coordinates (Angstroms)
 Number     Number       Type             X           Y           Z
 ---------------------------------------------------------------------
      1          6           0        0.498275    2.003177    0.251871
      2          8           0        1.031090   -0.317053    0.772222
      3          6           0       -0.912761    1.731925    0.780842
      4          6           0       -1.817524    1.150041   -0.334365
      5          9           0       -3.034807    0.959911    0.146708
      6          9           0       -1.880394    2.007389   -1.346053
      7          9           0       -1.341420   -0.000412   -0.779289
      8          9           0       -0.941024    0.922919    1.841852
      9          9           0       -1.442585    2.908278    1.148485
     10          8           0        1.360999    1.168324    0.218381
     11          1           0        1.841347   -0.733206    0.451476
 ---------------------------------------------------------------------

 SCF Done:  E(RM062X) =  -764.463285989     A.U. after    1 cycles

 Isotropic polarizability for W=    0.000000       53.98 Bohr**3.
 End of Minotr F.D. properties file   721 does not exist.

                      1                      2                      3
                      A                      A                      A
 Frequencies --     37.8754                96.2851               150.6887
 Red. masses --     15.5215                 8.5370                 3.3163
 Frc consts  --      0.0131                 0.0466                 0.0444
 IR Inten    --      0.1665                 0.8164                31.5035

                      4                      5                      6
                      A                      A                      A
 Frequencies --    173.5199               209.1663               215.8733
 Red. masses --      1.7918                 5.6821                13.7261
 Frc consts  --      0.0318                 0.1465                 0.3769
 IR Inten    --     69.3953                30.6593                 1.6636

                      7                      8                      9
                      A                      A                      A
 Frequencies --    264.4360               287.3700               364.5953
 Red. masses --     15.5860                15.9727                17.6561
 Frc consts  --      0.6421                 0.7772                 1.3828
 IR Inten    --     79.3817                21.6183                 2.6409

                     10                     11                     12
                      A                      A                      A
 Frequencies --    391.0074               460.6091               473.3419
 Red. masses --     16.5996                 9.3483                14.7935
 Frc consts  --      1.4953                 1.1685                 1.9529
 IR Inten    --    175.5222                88.0356                11.3084

                     13                     14                     15
                      A                      A                      A
 Frequencies --    515.4927               565.0269               598.9972
 Red. masses --     13.7418                15.3647                17.2065
 Frc consts  --      2.1515                 2.8901                 3.6374
 IR Inten    --      4.0259                 4.7080                 5.7991

                     16                     17                     18
                      A                      A                      A
 Frequencies --    689.0423               736.8490               803.7937
 Red. masses --     14.9612                10.3795                15.1210
 Frc consts  --      4.1851                 3.3203                 5.7560
 IR Inten    --      9.9628                33.9026                 4.3962

                     19                     20                     21
                      A                      A                      A
 Frequencies --   1046.2153              1191.7620              1212.0234
 Red. masses --     13.0664                 1.1989                10.7074
 Frc consts  --      8.4265                 1.0033                 9.2674
 IR Inten    --    112.1560                81.4282               219.9035

                     22                     23                     24
                      A                      A                      A
 Frequencies --   1250.7800              1286.8663              1301.0699
 Red. masses --     12.8240                13.0830                13.0774
 Frc consts  --     11.8205                12.7651                13.0428
 IR Inten    --    185.1052               233.5613               200.6372

                     25                     26                     27
                      A                      A                      A
 Frequencies --   1365.3822              1702.3430              3848.1057
 Red. masses --     12.5606                12.2968                 1.0683
 Frc consts  --     13.7965                20.9960                 9.3205
 IR Inten    --    131.7596               153.9306               133.1337

 - Thermochemistry -
 -------------------
 Temperature   298.150 Kelvin.  Pressure   1.00000 Atm.
 Atom     1 has atomic number  6 and mass  12.00000

 Molecular mass:   163.98967 amu.
 Principal axes and moments of inertia in atomic units:
                           1         2         3
     Eigenvalues --   942.645731543.911171728.29972
           X            0.93047   0.01948  -0.36585
           Y           -0.25744   0.74526  -0.61508
           Z            0.26067   0.66649   0.69845
 This molecule is an asymmetric top.
 Rotational symmetry number  1.
 Warning -- assumption of classical behavior for rotation
           may cause significant error
 Rotational temperatures (Kelvin)      0.09188     0.05610     0.05012
 Rotational constants (GHZ):           1.91455     1.16894     1.04423
 Zero-point vibrational energy     127034.6 (Joules/Mol)
                                   30.36199 (Kcal/Mol)
 Warning -- explicit consideration of  15 degrees of freedom as
           vibrations may cause significant error
 Vibrational temperatures:     54.49   138.53   216.81   249.66   300.94
          (Kelvin)            310.59   380.46   413.46   524.57   562.57
                              662.71   681.03   741.68   812.95   861.82
                              991.38  1060.16  1156.48  1505.27  1714.68
                             1743.83  1799.59  1851.51  1871.95  1964.48
                             2449.29  5536.57

 Zero-point correction=                           0.048385 (Hartree/Particle)
 Thermal correction to Energy=                    0.058172
 Thermal correction to Enthalpy=                  0.059116
 Thermal correction to Gibbs Free Energy=         0.012617
 Sum of electronic and zero-point Energies=           -764.414901
 Sum of electronic and thermal Energies=              -764.405114
 Sum of electronic and thermal Enthalpies=            -764.404170
 Sum of electronic and thermal Free Energies=         -764.450669

                     E (Thermal)             CV                S
                      KCal/Mol        Cal/Mol-Kelvin    Cal/Mol-Kelvin
 Total                   36.504             33.412             97.865
 Electronic               0.000              0.000              0.000
 Translational            0.889              2.981             41.192
 Rotational               0.889              2.981             29.310
 Vibrational             34.726             27.450             27.363
 Vibration     1          0.594              1.982              5.367
 Vibration     2          0.603              1.952              3.528
 Vibration     3          0.618              1.902              2.664
 Vibration     4          0.627              1.875              2.397
 Vibration     5          0.642              1.827              2.051
 Vibration     6          0.645              1.817              1.993
 Vibration     7          0.671              1.738              1.632
 Vibration     8          0.685              1.697              1.489
 Vibration     9          0.738              1.545              1.102
 Vibration    10          0.759              1.489              0.996
 Vibration    11          0.818              1.337              0.764
 Vibration    12          0.830              1.309              0.728
 Vibration    13          0.871              1.216              0.621
 Vibration    14          0.921              1.107              0.514
 Vibration    15          0.957              1.034              0.451

 Optimization completed.
    -- Stationary point found.
 Normal termination of Gaussian 16 at Sat May 24 09:12:29 2025.
