 Gaussian 16, Revision C.01,
 Gaussian 16:  ES64L-G16RevC.01  3-Jul-2019

 -----------------------------------------------------------------
 #P M062X/Def2TZVPP Symm(None) scf(xqc) pop(None) freq opt(CalcFC)
 -----------------------------------------------------------------

 ------------------------------
 Gaussian input prepared by ASE
 ------------------------------
 Symbolic Z-matrix:
 Charge =  0 Multiplicity = 1

 SCF Done:  E(RM062X) =  -764.443661142     A.U. after   13 cycles
 SCF Done:  E(RM062X) =  -764.518408248     A.U. after   12 cycles
 SCF Done:  E(RM062X) =  -764.580433373     A.U. after   12 cycles
 SCF Done:  E(RM062X) =  -764.603664893     A.U. after   12 cycles
 SCF Done:  E(RM062X) =  -764.612020030     A.U. after   12 cycles
 SCF Done:  E(RM062X) =  -764.615537922     A.U. after   12 cycles
 SCF Done:  E(RM062X) =  -764.620194635     A.U. after   12 cycles
 SCF Done:  E(RM062X) =  -764.620684839     A.U. after   12 cycles
 SCF Done:  E(RM062X) =  -764.621802663     A.U. after   11 cycles
 SCF Done:  E(RM062X) =  -764.622581600     A.U. after   12 cycles
 SCF Done:  E(RM062X) =  -764.622803560     A.U. after   10 cycles
 SCF Done:  E(RM062X) =  -764.622923321     A.U. after   10 cycles
 SCF Done:  E(RM062X) =  -764.622941197     A.U. after   10 cycles
 SCF Done:  E(RM062X) =  -764.622944896     A.U. after    9 cycles
 SCF Done:  E(RM062X) =  -764.622945733     A.U. after    8 cycles
 SCF Done:  E(RM062X) =  -764.622945889     A.U. after    7 cycles
 SCF Done:  E(RM062X) =  -764.622945937     A.U. after    6 cycles
 Optimization completed.
    -- Stationary point found.
 Normal termination of Gaussian 16 at Sat May 24 07:43:49 2025.

 ---------------------------------------------------------------------
 #P Geom=AllCheck Guess=TCheck SCRF=Check GenChk RM062X/def2TZVPP Freq
 ---------------------------------------------------------------------

 Structure from the checkpoint file:  "/tmp/Gau-53713.chk"
 ------------------------------
 Gaussian input prepared by ASE
 ------------------------------
 Charge =  0 Multiplicity = 1

                          Input orientation:
 ---------------------------------------------------------------------
 Center     Atomic      Atomic             Coordinates (Angstroms)
 Number     Number       Type             X           Y           Z
 ---------------------------------------------------------------------
      1          6           0        1.449870   -0.314087    0.000880
      2          8           0        0.133082   -0.514887   -0.354254
      3          6           0        2.329909   -1.281597   -0.188171
      4          6           0       -0.715913   -0.883554    0.647637
      5          9           0       -0.774847    0.027281    1.611567
      6          9           0       -1.913400   -1.023062    0.116956
      7          9           0       -0.349531   -2.033118    1.201070
      8          9           0        3.612843   -1.150136    0.033010
      9          9           0        2.020437   -2.484750   -0.601135
     10          8           0        1.783560    0.880770    0.524763
     11          1           0        1.557867    1.585396   -0.093301
 ---------------------------------------------------------------------

 SCF Done:  E(RM062X) =  -764.622945937     A.U. after    1 cycles

 Isotropic polarizability for W=    0.000000       46.03 Bohr**3.
 End of Minotr F.D. properties file   721 does not exist.

                      1                      2                      3
                      A                      A                      A
 Frequencies --     24.3483                77.9203               124.5431
 Red. masses --     14.3774                14.8078                18.0461
 Frc consts  --      0.0050                 0.0530                 0.1649
 IR Inten    --      0.4175                 0.4478                 0.2354

                      4                      5                      6
                      A                      A                      A
 Frequencies --    201.3874               214.3869               257.1670
 Red. masses --      4.8266                13.9022                 1.2625
 Frc consts  --      0.1153                 0.3765                 0.0492
 IR Inten    --     14.0898                 1.4001               132.7845

                      7                      8                      9
                      A                      A                      A
 Frequencies --    354.1780               372.4327               435.1755
 Red. masses --     10.2822                17.0277                 8.4703
 Frc consts  --      0.7599                 1.3916                 0.9451
 IR Inten    --     16.1720                 1.0444                14.0519

                     10                     11                     12
                      A                      A                      A
 Frequencies --    470.8424               547.7644               563.1168
 Red. masses --     17.1726                16.3183                12.8207
 Frc consts  --      2.2430                 2.8848                 2.3953
 IR Inten    --      0.4631                 3.4964                 6.1949

                     13                     14                     15
                      A                      A                      A
 Frequencies --    623.8109               646.6794               654.9594
 Red. masses --     10.5182                15.8121                15.8668
 Frc consts  --      2.4116                 3.8960                 4.0102
 IR Inten    --      7.4278                18.3069                 7.8803

                     16                     17                     18
                      A                      A                      A
 Frequencies --    729.1605               848.1460               942.4527
 Red. masses --     12.1705                16.1218                13.9424
 Frc consts  --      3.8125                 6.8329                 7.2964
 IR Inten    --      6.0175                 4.7986                24.0196

                     19                     20                     21
                      A                      A                      A
 Frequencies --   1174.3713              1239.9853              1265.8953
 Red. masses --      3.9449                 6.8738                11.6428
 Frc consts  --      3.2055                 6.2270                10.9926
 IR Inten    --    235.4315               586.9950               321.5992

                     22                     23                     24
                      A                      A                      A
 Frequencies --   1307.9204              1336.8849              1346.8417
 Red. masses --      1.9326                12.8037                 8.4960
 Frc consts  --      1.9479                13.4826                 9.0803
 IR Inten    --     99.7978               397.8840               230.3265

                     25                     26                     27
                      A                      A                      A
 Frequencies --   1395.6645              1924.5376              3827.6084
 Red. masses --     12.6988                11.0455                 1.0659
 Frc consts  --     14.5738                24.1040                 9.2006
 IR Inten    --    217.9763                37.4168                98.3612

 - Thermochemistry -
 -------------------
 Temperature   298.150 Kelvin.  Pressure   1.00000 Atm.
 Atom     1 has atomic number  6 and mass  12.00000

 Molecular mass:   163.98967 amu.
 Principal axes and moments of inertia in atomic units:
                           1         2         3
     Eigenvalues --   752.415631954.132122345.27642
           X            0.97125   0.14338   0.19006
           Y           -0.08973   0.95990  -0.26559
           Z           -0.22052   0.24090   0.94517
 This molecule is an asymmetric top.
 Rotational symmetry number  1.
 Warning -- assumption of classical behavior for rotation
           may cause significant error
 Rotational temperatures (Kelvin)      0.11511     0.04432     0.03693
 Rotational constants (GHZ):           2.39860     0.92355     0.76952
 Zero-point vibrational energy     137021.4 (Joules/Mol)
                                   32.74889 (Kcal/Mol)
 Warning -- explicit consideration of  12 degrees of freedom as
           vibrations may cause significant error
 Vibrational temperatures:     35.03   112.11   179.19   289.75   308.45
          (Kelvin)            370.01   509.58   535.85   626.12   677.44
                              788.11   810.20   897.52   930.43   942.34
                             1049.10  1220.29  1355.98  1689.66  1784.06
                             1821.34  1881.81  1923.48  1937.80  2008.05
                             2768.98  5507.07

 Zero-point correction=                           0.052189 (Hartree/Particle)
 Thermal correction to Energy=                    0.061253
 Thermal correction to Enthalpy=                  0.062197
 Thermal correction to Gibbs Free Energy=         0.016291
 Sum of electronic and zero-point Energies=           -764.570757
 Sum of electronic and thermal Energies=              -764.561693
 Sum of electronic and thermal Enthalpies=            -764.560749
 Sum of electronic and thermal Free Energies=         -764.606655

                     E (Thermal)             CV                S
                      KCal/Mol        Cal/Mol-Kelvin    Cal/Mol-Kelvin
 Total                   38.437             31.027             96.617
 Electronic               0.000              0.000              0.000
 Translational            0.889              2.981             41.192
 Rotational               0.889              2.981             29.624
 Vibrational             36.659             25.065             25.801
 Vibration     1          0.593              1.985              6.244
 Vibration     2          0.599              1.964              3.943
 Vibration     3          0.610              1.928              3.029
 Vibration     4          0.638              1.838              2.120
 Vibration     5          0.644              1.819              2.006
 Vibration     6          0.667              1.751              1.681
 Vibration     7          0.730              1.567              1.148
 Vibration     8          0.744              1.529              1.070
 Vibration     9          0.796              1.394              0.842
 Vibration    10          0.828              1.315              0.735
 Vibration    11          0.903              1.145              0.549
 Vibration    12          0.919              1.111              0.518

                           ! Non-Optimized Parameters !
 Normal termination of Gaussian 16 at Sat May 24 07:47:11 2025.
