 Gaussian 16, Revision C.01,
 Gaussian 16:  ES64L-G16RevC.01  3-Jul-2019

 ----------------------------------------------------------------------
 #P M062X/Def2TZVPP Symm(None) scf(xqc) pop(None) opt(NoFreeze,TS,CalcA
 ll,NoEigentest,MaxCycle=999)
 ----------------------------------------------------------------------

 ------------------------------
 Gaussian input prepared by ASE
 ------------------------------
 Symbolic Z-matrix:
 Charge =  0 Multiplicity = 1

 SCF Done:  E(RM062X) =  -764.457808063     A.U. after   15 cycles
 SCF Done:  E(RM062X) =  -764.457808333     A.U. after    8 cycles

 Isotropic polarizability for W=    0.000000       56.22 Bohr**3.
 End of Minotr F.D. properties file   721 does not exist.

 Optimization completed.
    -- Stationary point found.

                          Input orientation:
 ---------------------------------------------------------------------
 Center     Atomic      Atomic             Coordinates (Angstroms)
 Number     Number       Type             X           Y           Z
 ---------------------------------------------------------------------
      1          6           0        2.206704   -0.000536    0.000056
      2          8           0        2.629912   -0.954547   -0.532145
      3          6           0        0.000078    0.000057    0.000133
      4          6           0        0.932693   -0.115248    1.431852
      5          9           0        0.446203    0.962815    2.045502
      6          9           0        0.433617   -1.283397    1.835555
      7          9           0        2.213089   -0.193568    2.124169
      8          9           0        0.013666    1.098616   -0.706695
      9          9           0       -0.012958   -1.016153   -0.806043
     10          8           0        2.599769    1.251432   -0.001444
     11          1           0        3.421452    1.327328   -0.512304
 ---------------------------------------------------------------------

 ******    1 imaginary frequencies (negative Signs) ******

                      1                      2                      3
                      A                      A                      A
 Frequencies --   -632.3716                52.5867               117.5894
 Red. masses --     11.9469                14.6365                17.0579
 Frc consts  --      2.8148                 0.0238                 0.1390
 IR Inten    --      8.3382                 2.1726                 6.1650

                      4                      5                      6
                      A                      A                      A
 Frequencies --    149.7937               162.3516               222.3925
 Red. masses --     14.1646                12.0192                12.7257
 Frc consts  --      0.1873                 0.1867                 0.3708
 IR Inten    --      3.6715                46.9544                 2.6961

                      7                      8                      9
                      A                      A                      A
 Frequencies --    236.6883               281.4745               317.2757
 Red. masses --     16.2597                 8.9536                11.4389
 Frc consts  --      0.5367                 0.4180                 0.6784
 IR Inten    --      1.0225                21.4817                 1.5629

                     10                     11                     12
                      A                      A                      A
 Frequencies --    423.2256               438.3216               480.6583
 Red. masses --      4.5752                 2.4763                17.9730
 Frc consts  --      0.4828                 0.2803                 2.4465
 IR Inten    --     27.9529               189.3882                 0.0072

                     13                     14                     15
                      A                      A                      A
 Frequencies --    508.1084               574.2162               618.1026
 Red. masses --      3.2810                17.0132                 5.5532
 Frc consts  --      0.4991                 3.3051                 1.2500
 IR Inten    --      2.1394                 4.6367                81.8801

                     16                     17                     18
                      A                      A                      A
 Frequencies --    644.0994               675.9807               716.0514
 Red. masses --      5.1965                14.3528                16.0400
 Frc consts  --      1.2702                 3.8642                 4.8455
 IR Inten    --    123.3073                55.9993                 2.1280

                     19                     20                     21
                      A                      A                      A
 Frequencies --    771.1894              1062.9233              1128.3321
 Red. masses --     11.4184                13.9743                 6.0570
 Frc consts  --      4.0011                 9.3021                 4.5434
 IR Inten    --    211.5954               355.7722               334.0469

                     22                     23                     24
                      A                      A                      A
 Frequencies --   1249.7824              1263.2965              1305.5593
 Red. masses --      2.5399                12.3683                12.6004
 Frc consts  --      2.3375                11.6297                12.6540
 IR Inten    --    289.7869                50.9268               387.4738

                     25                     26                     27
                      A                      A                      A
 Frequencies --   1349.0457              1962.7718              3749.9242
 Red. masses --      3.0324                12.9902                 1.0642
 Frc consts  --      3.2515                29.4853                 8.8172
 IR Inten    --     49.1523               481.9187               108.0777

 - Thermochemistry -
 -------------------
 Temperature   298.150 Kelvin.  Pressure   1.00000 Atm.
 Atom     1 has atomic number  6 and mass  12.00000

 Molecular mass:   163.98967 amu.
 Principal axes and moments of inertia in atomic units:
                           1         2         3
     Eigenvalues --  1162.471721290.195951512.60249
           X            0.23464   0.95974  -0.15442
           Y           -0.04774   0.17004   0.98428
           Z            0.97091  -0.22358   0.08572
 This molecule is an asymmetric top.
 Rotational symmetry number  1.
 Warning -- assumption of classical behavior for rotation
           may cause significant error
 Rotational temperatures (Kelvin)      0.07451     0.06713     0.05726
 Rotational constants (GHZ):           1.55250     1.39881     1.19314
    1 imaginary frequencies ignored.
 Zero-point vibrational energy     122388.4 (Joules/Mol)
                                   29.25153 (Kcal/Mol)
 Warning -- explicit consideration of  14 degrees of freedom as
           vibrations may cause significant error
 Vibrational temperatures:     75.66   169.18   215.52   233.59   319.97
          (Kelvin)            340.54   404.98   456.49   608.93   630.65
                              691.56   731.05   826.17   889.31   926.72
                              972.59  1030.24  1109.57  1529.31  1623.42
                             1798.16  1817.60  1878.41  1940.98  2823.99
                             5395.30

 Zero-point correction=                           0.046615 (Hartree/Particle)
 Thermal correction to Energy=                    0.056015
 Thermal correction to Enthalpy=                  0.056959
 Thermal correction to Gibbs Free Energy=         0.011572
 Sum of electronic and zero-point Energies=           -764.411193
 Sum of electronic and thermal Energies=              -764.401794
 Sum of electronic and thermal Enthalpies=            -764.400849
 Sum of electronic and thermal Free Energies=         -764.446236

                     E (Thermal)             CV                S
                      KCal/Mol        Cal/Mol-Kelvin    Cal/Mol-Kelvin
 Total                   35.150             32.527             95.525
 Electronic               0.000              0.000              0.000
 Translational            0.889              2.981             41.192
 Rotational               0.889              2.981             29.208
 Vibrational             33.372             26.565             25.125
 Vibration     1          0.596              1.977              4.718
 Vibration     2          0.608              1.935              3.140
 Vibration     3          0.618              1.903              2.675
 Vibration     4          0.622              1.889              2.522
 Vibration     5          0.648              1.807              1.940
 Vibration     6          0.656              1.785              1.828
 Vibration     7          0.681              1.708              1.525
 Vibration     8          0.704              1.641              1.324
 Vibration     9          0.785              1.420              0.881
 Vibration    10          0.798              1.387              0.832
 Vibration    11          0.837              1.293              0.708
 Vibration    12          0.863              1.232              0.638
 Vibration    13          0.931              1.087              0.496
 Vibration    14          0.978              0.994              0.420

 Normal termination of Gaussian 16 at Sat May 24 05:35:05 2025.
