 Gaussian 16, Revision C.01,
 Gaussian 16:  ES64L-G16RevC.01  3-Jul-2019

 ----------------------------------------------------------------------
 #P M062X/Def2TZVPP Symm(None) scf(xqc) pop(None) opt(NoFreeze,TS,CalcA
 ll,NoEigentest,MaxCycle=999)
 ----------------------------------------------------------------------

 ------------------------------
 Gaussian input prepared by ASE
 ------------------------------
 Symbolic Z-matrix:
 Charge =  0 Multiplicity = 1

 SCF Done:  E(RM062X) =  -764.379010592     A.U. after   22 cycles
 SCF Done:  E(RM062X) =  -764.381891079     A.U. after   16 cycles
 SCF Done:  E(RM062X) =  -764.382043047     A.U. after   17 cycles
 SCF Done:  E(RM062X) =  -764.382043505     A.U. after   13 cycles

 Isotropic polarizability for W=    0.000000       52.12 Bohr**3.
 End of Minotr F.D. properties file   721 does not exist.

 Optimization completed.
    -- Stationary point found.

                          Input orientation:
 ---------------------------------------------------------------------
 Center     Atomic      Atomic             Coordinates (Angstroms)
 Number     Number       Type             X           Y           Z
 ---------------------------------------------------------------------
      1          6           0        1.349932    0.010334    0.043807
      2          8           0        1.011995   -0.455094   -1.280372
      3          6           0        1.927961    1.410392    0.006915
      4          6           0        2.087369    2.007673    1.415437
      5          9           0        2.501462    3.264000    1.343136
      6          9           0        0.898000    1.987040    2.024241
      7          9           0        2.950051    1.312847    2.132472
      8          9           0        3.114957    1.393211   -0.599903
      9          9           0        1.111462    2.273477   -0.676632
     10          8           0       -0.036004    0.024811   -0.046398
     11          1           0       -0.398617    0.915030   -0.286246
 ---------------------------------------------------------------------

 ******    1 imaginary frequencies (negative Signs) ******

                      1                      2                      3
                      A                      A                      A
 Frequencies --  -1501.2392                71.0579                74.2730
 Red. masses --      7.4544                 9.6231                14.7000
 Frc consts  --      9.8984                 0.0286                 0.0478
 IR Inten    --   1427.6651                 4.0845                 1.2225

                      4                      5                      6
                      A                      A                      A
 Frequencies --    160.6958               220.9789               259.6603
 Red. masses --     13.8189                16.6440                12.2959
 Frc consts  --      0.2102                 0.4789                 0.4885
 IR Inten    --      5.6651                 4.7872                 4.4208

                      7                      8                      9
                      A                      A                      A
 Frequencies --    291.4369               337.7652               366.8509
 Red. masses --     10.9545                16.5630                16.6860
 Frc consts  --      0.5482                 1.1133                 1.3231
 IR Inten    --     16.1768                 0.6681                 0.1088

                     10                     11                     12
                      A                      A                      A
 Frequencies --    396.0095               490.3127               542.1807
 Red. masses --     12.5205                14.5913                14.7380
 Frc consts  --      1.1569                 2.0668                 2.5526
 IR Inten    --      5.8309                 1.4145                 4.9657

                     13                     14                     15
                      A                      A                      A
 Frequencies --    594.0920               629.8256               727.0528
 Red. masses --     15.3551                11.0726                 8.6811
 Frc consts  --      3.1931                 2.5878                 2.7037
 IR Inten    --      3.8282                15.3653                18.6891

                     16                     17                     18
                      A                      A                      A
 Frequencies --    795.5051               834.3635               965.4138
 Red. masses --      7.1884                 4.5274                 1.7840
 Frc consts  --      2.6802                 1.8570                 0.9796
 IR Inten    --     38.3275                53.9027                29.9261

                     19                     20                     21
                      A                      A                      A
 Frequencies --   1056.6215              1099.8529              1235.8838
 Red. masses --     11.0925                10.0125                 1.7415
 Frc consts  --      7.2966                 7.1361                 1.5673
 IR Inten    --    230.1189               133.4817               103.8535

                     22                     23                     24
                      A                      A                      A
 Frequencies --   1246.9423              1268.1005              1295.6290
 Red. masses --      7.0703                 5.1113                 9.5842
 Frc consts  --      6.4771                 4.8427                 9.4791
 IR Inten    --    328.4234                67.4720               128.3438

                     25                     26                     27
                      A                      A                      A
 Frequencies --   1313.8871              1416.4531              3442.0844
 Red. masses --      7.8902                12.5153                 1.0643
 Frc consts  --      8.0252                14.7943                 7.4292
 IR Inten    --    137.7450                68.6782                81.1488

 - Thermochemistry -
 -------------------
 Temperature   298.150 Kelvin.  Pressure   1.00000 Atm.
 Atom     1 has atomic number  6 and mass  12.00000

 Molecular mass:   163.98967 amu.
 Principal axes and moments of inertia in atomic units:
                           1         2         3
     Eigenvalues --   825.087641626.603701777.06750
           X            0.41627   0.72536  -0.54824
           Y            0.62466   0.21000   0.75213
           Z            0.66070  -0.65555  -0.36569
 This molecule is an asymmetric top.
 Rotational symmetry number  1.
 Warning -- assumption of classical behavior for rotation
           may cause significant error
 Rotational temperatures (Kelvin)      0.10498     0.05325     0.04874
 Rotational constants (GHZ):           2.18733     1.10952     1.01557
    1 imaginary frequencies ignored.
 Zero-point vibrational energy     126403.0 (Joules/Mol)
                                   30.21104 (Kcal/Mol)
 Warning -- explicit consideration of  12 degrees of freedom as
           vibrations may cause significant error
 Vibrational temperatures:    102.24   106.86   231.21   317.94   373.59
          (Kelvin)            419.31   485.97   527.82   569.77   705.45
                              780.08   854.77   906.18  1046.07  1144.55
                             1200.46  1389.02  1520.24  1582.44  1778.16
                             1794.07  1824.51  1864.12  1890.39  2037.96
                             4952.39

 Zero-point correction=                           0.048144 (Hartree/Particle)
 Thermal correction to Energy=                    0.056794
 Thermal correction to Enthalpy=                  0.057738
 Thermal correction to Gibbs Free Energy=         0.013687
 Sum of electronic and zero-point Energies=           -764.333899
 Sum of electronic and thermal Energies=              -764.325250
 Sum of electronic and thermal Enthalpies=            -764.324306
 Sum of electronic and thermal Free Energies=         -764.368357

                     E (Thermal)             CV                S
                      KCal/Mol        Cal/Mol-Kelvin    Cal/Mol-Kelvin
 Total                   35.639             30.055             92.713
 Electronic               0.000              0.000              0.000
 Translational            0.889              2.981             41.192
 Rotational               0.889              2.981             29.257
 Vibrational             33.861             24.094             22.264
 Vibration     1          0.598              1.968              4.124
 Vibration     2          0.599              1.966              4.037
 Vibration     3          0.622              1.891              2.542
 Vibration     4          0.648              1.809              1.951
 Vibration     5          0.668              1.746              1.664
 Vibration     6          0.687              1.690              1.466
 Vibration     7          0.718              1.600              1.223
 Vibration     8          0.740              1.540              1.093
 Vibration     9          0.763              1.479              0.977
 Vibration    10          0.846              1.272              0.683
 Vibration    11          0.897              1.157              0.561
 Vibration    12          0.952              1.044              0.460

 Normal termination of Gaussian 16 at Sat May 24 06:27:44 2025.
