 Gaussian 16, Revision C.01,
 Gaussian 16:  ES64L-G16RevC.01  3-Jul-2019

 ------------------------------------------
 #P am1 Symm(None) scf(xqc) pop(None) force
 ------------------------------------------

 ------------------------------
 Gaussian input prepared by ASE
 ------------------------------
 Symbolic Z-matrix:
 Charge =  0 Multiplicity = 1

                          Input orientation:
 ---------------------------------------------------------------------
 Center     Atomic      Atomic             Coordinates (Angstroms)
 Number     Number       Type             X           Y           Z
 ---------------------------------------------------------------------
      1          6           0        1.258045    0.056890   -0.801950
      2          8           0        2.220771   -0.998463   -0.196051
      3          6           0       -0.028195   -0.288635    0.067346
      4          6           0       -0.521617    0.352359    1.387733
      5          9           0       -1.719954   -0.045343    1.779117
      6          9           0        0.113163    0.221324    2.538841
      7          9           0       -0.757639    1.643040    1.378694
      8          9           0        0.292911    1.457389   -1.199126
      9          9           0       -0.706616   -1.295717   -0.220843
     10          8           0        2.021208    0.746361    0.114200
     11          1           0        2.757421    1.122201    0.664132
 ---------------------------------------------------------------------

 SCF Done:  E(RAM1) =   3.21725198039     A.U. after   29 cycles
 Normal termination of Gaussian 16 at Sat May 24 05:14:03 2025.
