 Gaussian 16, Revision C.01,
 Gaussian 16:  ES64L-G16RevC.01  3-Jul-2019

 ------------------------------------------
 #P am1 Symm(None) scf(xqc) pop(None) force
 ------------------------------------------

 ------------------------------
 Gaussian input prepared by ASE
 ------------------------------
 Symbolic Z-matrix:
 Charge =  0 Multiplicity = 1

                          Input orientation:
 ---------------------------------------------------------------------
 Center     Atomic      Atomic             Coordinates (Angstroms)
 Number     Number       Type             X           Y           Z
 ---------------------------------------------------------------------
      1          6           0        2.172136    1.105160   -0.106412
      2          8           0        1.103346    1.749217   -0.035408
      3          6           0        1.981778   -0.326991   -0.109788
      4          6           0       -0.239680    0.461929    0.032097
      5          9           0       -0.580798   -0.800128    0.076992
      6          9           0       -0.606826    1.041950    1.156025
      7          9           0       -0.709811    1.004990   -1.052322
      8          9           0        2.286058   -1.037418   -1.206936
      9          9           0        2.406601   -1.051501    0.953016
     10          8           0        3.315980    1.731270   -0.169305
     11          1           0        3.199641    2.691961   -0.151983
 ---------------------------------------------------------------------

 SCF Done:  E(RAM1) =   2.86764108666     A.U. after   16 cycles
 Normal termination of Gaussian 16 at Sat May 24 07:32:33 2025.
