 Gaussian 16, Revision C.01,
 Gaussian 16:  ES64L-G16RevC.01  3-Jul-2019

 -----------------------------------------------------------------
 #P M062X/Def2TZVPP Symm(None) scf(xqc) pop(None) freq opt(CalcFC)
 -----------------------------------------------------------------

 ------------------------------
 Gaussian input prepared by ASE
 ------------------------------
 Symbolic Z-matrix:
 Charge =  0 Multiplicity = 1

 SCF Done:  E(RM062X) =  -764.310622183     A.U. after   16 cycles
 SCF Done:  E(RM062X) =  -764.363101890     A.U. after   15 cycles
 SCF Done:  E(RM062X) =  -764.437311616     A.U. after   14 cycles
 SCF Done:  E(RM062X) =  -764.452792057     A.U. after   15 cycles
 SCF Done:  E(RM062X) =  -764.464075073     A.U. after   15 cycles
 SCF Done:  E(RM062X) =  -764.477936057     A.U. after   14 cycles
 SCF Done:  E(RM062X) =  -764.479944809     A.U. after   14 cycles
 SCF Done:  E(RM062X) =  -764.480768135     A.U. after   13 cycles
 SCF Done:  E(RM062X) =  -764.482143311     A.U. after   14 cycles
 SCF Done:  E(RM062X) =  -764.483726506     A.U. after   14 cycles
 SCF Done:  E(RM062X) =  -764.491192536     A.U. after   13 cycles
 SCF Done:  E(RM062X) =  -764.491218737     A.U. after   11 cycles
 SCF Done:  E(RM062X) =  -764.491225709     A.U. after    9 cycles
 SCF Done:  E(RM062X) =  -764.491228492     A.U. after    8 cycles
 SCF Done:  E(RM062X) =  -764.491229694     A.U. after    8 cycles
 SCF Done:  E(RM062X) =  -764.491231722     A.U. after    9 cycles
 SCF Done:  E(RM062X) =  -764.491235050     A.U. after   11 cycles
 SCF Done:  E(RM062X) =  -764.491241078     A.U. after   11 cycles
 SCF Done:  E(RM062X) =  -764.491244575     A.U. after   11 cycles
 Optimization completed.
    -- Stationary point found.
 Normal termination of Gaussian 16 at Sat May 24 06:47:18 2025.

 ---------------------------------------------------------------------
 #P Geom=AllCheck Guess=TCheck SCRF=Check GenChk RM062X/def2TZVPP Freq
 ---------------------------------------------------------------------

 Structure from the checkpoint file:  "/tmp/Gau-256353.chk"
 ------------------------------
 Gaussian input prepared by ASE
 ------------------------------
 Charge =  0 Multiplicity = 1

                          Input orientation:
 ---------------------------------------------------------------------
 Center     Atomic      Atomic             Coordinates (Angstroms)
 Number     Number       Type             X           Y           Z
 ---------------------------------------------------------------------
      1          6           0        1.296145   -0.172456   -0.050968
      2          8           0        0.110917   -0.239475    0.585169
      3          6           0        2.019793   -1.281744   -0.192267
      4          6           0        1.597620   -2.701791    0.078698
      5          9           0        2.025452   -3.480693   -0.914833
      6          9           0        2.153929   -3.155468    1.205130
      7          9           0        0.284928   -2.840161    0.179514
      8          9           0       -0.877560    0.143572   -0.376113
      9          9           0        3.283276   -1.197483   -0.584916
     10          8           0        1.735289    1.026267   -0.438363
     11          1           0        1.203129    1.712868   -0.020108
 ---------------------------------------------------------------------

 SCF Done:  E(RM062X) =  -764.491244575     A.U. after    1 cycles

 Isotropic polarizability for W=    0.000000       51.23 Bohr**3.
 End of Minotr F.D. properties file   721 does not exist.

                      1                      2                      3
                      A                      A                      A
 Frequencies --     22.6237                81.4555               103.1217
 Red. masses --     18.5138                15.9075                15.1089
 Frc consts  --      0.0056                 0.0622                 0.0947
 IR Inten    --      0.2135                 1.9924                 1.7895

                      4                      5                      6
                      A                      A                      A
 Frequencies --    193.6618               207.1344               247.5792
 Red. masses --     12.2842                 1.8024                 2.4323
 Frc consts  --      0.2714                 0.0456                 0.0878
 IR Inten    --      0.3662                50.6436                55.1975

                      7                      8                      9
                      A                      A                      A
 Frequencies --    269.9649               326.9700               368.0336
 Red. masses --     13.5970                11.2644                13.6081
 Frc consts  --      0.5839                 0.7095                 1.0860
 IR Inten    --      3.8588                 2.3904                 0.5980

                     10                     11                     12
                      A                      A                      A
 Frequencies --    375.7366               496.6321               512.6295
 Red. masses --     12.2767                16.4683                13.2415
 Frc consts  --      1.0212                 2.3931                 2.0502
 IR Inten    --      0.7029                 1.8582                 5.3333

                     13                     14                     15
                      A                      A                      A
 Frequencies --    594.3193               612.5788               683.7003
 Red. masses --      8.8958                13.5679                10.4715
 Frc consts  --      1.8513                 2.9998                 2.8840
 IR Inten    --     21.4730                 2.1311                22.4525

                     16                     17                     18
                      A                      A                      A
 Frequencies --    751.6997               819.0210               899.3384
 Red. masses --     14.5397                11.8759                15.5809
 Frc consts  --      4.8405                 4.6936                 7.4249
 IR Inten    --     50.6275                34.5229               102.9662

                     19                     20                     21
                      A                      A                      A
 Frequencies --   1048.0772              1188.7073              1225.7397
 Red. masses --      8.7635                 2.9175                12.9030
 Frc consts  --      5.6717                 2.4289                11.4219
 IR Inten    --    243.3857                20.4136               295.9455

                     22                     23                     24
                      A                      A                      A
 Frequencies --   1278.8885              1306.6721              1376.6724
 Red. masses --     12.7103                 2.2811                 8.6658
 Frc consts  --     12.2482                 2.2947                 9.6766
 IR Inten    --    319.5032                86.7268               215.0769

                     25                     26                     27
                      A                      A                      A
 Frequencies --   1416.9492              1843.9357              3852.7418
 Red. masses --     10.8080                 9.7033                 1.0657
 Frc consts  --     12.7851                19.4384                 9.3202
 IR Inten    --    266.4910                88.1065               167.5819

 - Thermochemistry -
 -------------------
 Temperature   298.150 Kelvin.  Pressure   1.00000 Atm.
 Atom     1 has atomic number  6 and mass  12.00000

 Molecular mass:   163.98967 amu.
 Principal axes and moments of inertia in atomic units:
                           1         2         3
     Eigenvalues --   913.791771755.054602279.58871
           X           -0.42954   0.88793   0.16453
           Y            0.90145   0.41076   0.13663
           Z           -0.05374  -0.20701   0.97686
 This molecule is an asymmetric top.
 Rotational symmetry number  1.
 Warning -- assumption of classical behavior for rotation
           may cause significant error
 Rotational temperatures (Kelvin)      0.09479     0.04935     0.03800
 Rotational constants (GHZ):           1.97500     1.02831     0.79170
 Zero-point vibrational energy     132214.8 (Joules/Mol)
                                   31.60009 (Kcal/Mol)
 Warning -- explicit consideration of  14 degrees of freedom as
           vibrations may cause significant error
 Vibrational temperatures:     32.55   117.20   148.37   278.64   298.02
          (Kelvin)            356.21   388.42   470.44   529.52   540.60
                              714.54   737.56   855.09   881.36   983.69
                             1081.53  1178.39  1293.95  1507.95  1710.28
                             1763.57  1840.04  1880.01  1980.72  2038.67
                             2653.01  5543.24

 Zero-point correction=                           0.050358 (Hartree/Particle)
 Thermal correction to Energy=                    0.059916
 Thermal correction to Enthalpy=                  0.060861
 Thermal correction to Gibbs Free Energy=         0.013878
 Sum of electronic and zero-point Energies=           -764.440887
 Sum of electronic and thermal Energies=              -764.431328
 Sum of electronic and thermal Enthalpies=            -764.430384
 Sum of electronic and thermal Free Energies=         -764.477366

                     E (Thermal)             CV                S
                      KCal/Mol        Cal/Mol-Kelvin    Cal/Mol-Kelvin
 Total                   37.598             32.222             98.882
 Electronic               0.000              0.000              0.000
 Translational            0.889              2.981             41.192
 Rotational               0.889              2.981             29.682
 Vibrational             35.821             26.260             28.008
 Vibration     1          0.593              1.985              6.389
 Vibration     2          0.600              1.962              3.855
 Vibration     3          0.605              1.947              3.394
 Vibration     4          0.635              1.849              2.192
 Vibration     5          0.641              1.830              2.069
 Vibration     6          0.661              1.767              1.748
 Vibration     7          0.674              1.728              1.596
 Vibration     8          0.711              1.622              1.275
 Vibration     9          0.741              1.538              1.088
 Vibration    10          0.747              1.522              1.056
 Vibration    11          0.852              1.257              0.667
 Vibration    12          0.868              1.222              0.627
 Vibration    13          0.952              1.044              0.460
 Vibration    14          0.972              1.005              0.429

 Optimization completed.
    -- Stationary point found.
 Normal termination of Gaussian 16 at Sat May 24 06:50:24 2025.
