 Gaussian 16, Revision C.01,
 Gaussian 16:  ES64L-G16RevC.01  3-Jul-2019

 -----------------------------------------------------------------
 #P M062X/Def2TZVPP Symm(None) scf(xqc) pop(None) freq opt(CalcFC)
 -----------------------------------------------------------------

 ------------------------------
 Gaussian input prepared by ASE
 ------------------------------
 Symbolic Z-matrix:
 Charge =  0 Multiplicity = 1

 SCF Done:  E(RM062X) =  -764.618656957     A.U. after   13 cycles
 SCF Done:  E(RM062X) =  -764.622024296     A.U. after   14 cycles
 SCF Done:  E(RM062X) =  -764.590723504     A.U. after   14 cycles
 SCF Done:  E(RM062X) =  -764.622531022     A.U. after   11 cycles
 SCF Done:  E(RM062X) =  -764.622598180     A.U. after   10 cycles
 SCF Done:  E(RM062X) =  -764.622621068     A.U. after   10 cycles
 SCF Done:  E(RM062X) =  -764.622700977     A.U. after   11 cycles
 SCF Done:  E(RM062X) =  -764.622805294     A.U. after   12 cycles
 SCF Done:  E(RM062X) =  -764.622692800     A.U. after   12 cycles
 SCF Done:  E(RM062X) =  -764.622904295     A.U. after   11 cycles
 SCF Done:  E(RM062X) =  -764.622935247     A.U. after   10 cycles
 SCF Done:  E(RM062X) =  -764.622943669     A.U. after    9 cycles
 SCF Done:  E(RM062X) =  -764.622944118     A.U. after    7 cycles
 SCF Done:  E(RM062X) =  -764.622944750     A.U. after    7 cycles
 SCF Done:  E(RM062X) =  -764.622944839     A.U. after    6 cycles
 Optimization completed.
    -- Stationary point found.
 Normal termination of Gaussian 16 at Sat May 24 07:41:55 2025.

 ---------------------------------------------------------------------
 #P Geom=AllCheck Guess=TCheck SCRF=Check GenChk RM062X/def2TZVPP Freq
 ---------------------------------------------------------------------

 Structure from the checkpoint file:  "/tmp/Gau-100042.chk"
 ------------------------------
 Gaussian input prepared by ASE
 ------------------------------
 Charge =  0 Multiplicity = 1

                          Input orientation:
 ---------------------------------------------------------------------
 Center     Atomic      Atomic             Coordinates (Angstroms)
 Number     Number       Type             X           Y           Z
 ---------------------------------------------------------------------
      1          6           0        1.441676    0.181966   -0.159653
      2          8           0        0.073931    0.281943   -0.299252
      3          6           0        1.966298   -0.928275    0.328584
      4          6           0       -0.592109    0.930423    0.698919
      5          9           0       -0.195722    2.191067    0.825458
      6          9           0       -1.873062    0.913583    0.392631
      7          9           0       -0.418008    0.333394    1.871589
      8          9           0        3.253447   -1.148443    0.411650
      9          9           0        1.262755   -1.926671    0.799852
     10          8           0        2.190445    1.234424   -0.540568
     11          1           0        2.024228    1.437753   -1.468190
 ---------------------------------------------------------------------

 SCF Done:  E(RM062X) =  -764.622944839     A.U. after    1 cycles

 Isotropic polarizability for W=    0.000000       46.03 Bohr**3.
 End of Minotr F.D. properties file   721 does not exist.

                      1                      2                      3
                      A                      A                      A
 Frequencies --     29.6373                75.4195               123.9266
 Red. masses --     14.2516                14.7802                18.0616
 Frc consts  --      0.0074                 0.0495                 0.1634
 IR Inten    --      0.4562                 0.4772                 0.2836

                      4                      5                      6
                      A                      A                      A
 Frequencies --    199.8369               214.4062               250.8741
 Red. masses --      4.2231                14.0246                 1.3015
 Frc consts  --      0.0994                 0.3799                 0.0483
 IR Inten    --     18.0507                 1.6621               130.7519

                      7                      8                      9
                      A                      A                      A
 Frequencies --    353.2245               372.3894               435.0861
 Red. masses --     10.8320                17.2103                 8.4714
 Frc consts  --      0.7963                 1.4062                 0.9448
 IR Inten    --     14.6189                 0.8688                14.0756

                     10                     11                     12
                      A                      A                      A
 Frequencies --    470.7453               547.6758               563.0310
 Red. masses --     17.1800                16.3359                12.8321
 Frc consts  --      2.2431                 2.8870                 2.3967
 IR Inten    --      0.4754                 3.5221                 6.0855

                     13                     14                     15
                      A                      A                      A
 Frequencies --    622.3687               646.5743               654.9185
 Red. masses --     10.5249                15.8208                15.8697
 Frc consts  --      2.4019                 3.8969                 4.0105
 IR Inten    --      7.4256                18.1495                 7.8721

                     16                     17                     18
                      A                      A                      A
 Frequencies --    728.9583               847.9217               942.2013
 Red. masses --     12.2255                16.1088                13.9264
 Frc consts  --      3.8276                 6.8238                 7.2841
 IR Inten    --      5.8602                 4.8847                24.0694

                     19                     20                     21
                      A                      A                      A
 Frequencies --   1174.4487              1239.9543              1265.6375
 Red. masses --      3.9471                 6.9690                11.5489
 Frc consts  --      3.2077                 6.3130                10.8996
 IR Inten    --    233.9717               588.1411               323.4880

                     22                     23                     24
                      A                      A                      A
 Frequencies --   1308.2792              1336.4149              1346.7795
 Red. masses --      1.9232                12.8121                 8.5623
 Frc consts  --      1.9394                13.4820                 9.1503
 IR Inten    --     99.2501               398.4428               231.1156

                     25                     26                     27
                      A                      A                      A
 Frequencies --   1395.6365              1923.2105              3827.9632
 Red. masses --     12.7020                11.0374                 1.0659
 Frc consts  --     14.5770                24.0531                 9.2023
 IR Inten    --    216.8271                37.2243                98.4058

 - Thermochemistry -
 -------------------
 Temperature   298.150 Kelvin.  Pressure   1.00000 Atm.
 Atom     1 has atomic number  6 and mass  12.00000

 Molecular mass:   163.98967 amu.
 Principal axes and moments of inertia in atomic units:
                           1         2         3
     Eigenvalues --   752.226331954.491332345.62068
           X            0.83594   0.44447   0.32194
           Y           -0.53820   0.77871   0.32241
           Z           -0.10740  -0.44279   0.89017
 This molecule is an asymmetric top.
 Rotational symmetry number  1.
 Warning -- assumption of classical behavior for rotation
           may cause significant error
 Rotational temperatures (Kelvin)      0.11514     0.04432     0.03693
 Rotational constants (GHZ):           2.39920     0.92338     0.76941
 Zero-point vibrational energy     136957.6 (Joules/Mol)
                                   32.73365 (Kcal/Mol)
 Warning -- explicit consideration of  12 degrees of freedom as
           vibrations may cause significant error
 Vibrational temperatures:     42.64   108.51   178.30   287.52   308.48
          (Kelvin)            360.95   508.21   535.79   625.99   677.30
                              787.98   810.08   895.45   930.28   942.28
                             1048.81  1219.97  1355.62  1689.77  1784.02
                             1820.97  1882.32  1922.80  1937.72  2008.01
                             2767.07  5507.59

 Zero-point correction=                           0.052164 (Hartree/Particle)
 Thermal correction to Energy=                    0.061237
 Thermal correction to Enthalpy=                  0.062181
 Thermal correction to Gibbs Free Energy=         0.016394
 Sum of electronic and zero-point Energies=           -764.570780
 Sum of electronic and thermal Energies=              -764.561708
 Sum of electronic and thermal Enthalpies=            -764.560764
 Sum of electronic and thermal Free Energies=         -764.606551

                     E (Thermal)             CV                S
                      KCal/Mol        Cal/Mol-Kelvin    Cal/Mol-Kelvin
 Total                   38.427             31.048             96.367
 Electronic               0.000              0.000              0.000
 Translational            0.889              2.981             41.192
 Rotational               0.889              2.981             29.624
 Vibrational             36.649             25.086             25.551
 Vibration     1          0.593              1.984              5.854
 Vibration     2          0.599              1.965              4.007
 Vibration     3          0.610              1.929              3.038
 Vibration     4          0.638              1.840              2.135
 Vibration     5          0.644              1.819              2.006
 Vibration     6          0.663              1.761              1.724
 Vibration     7          0.729              1.569              1.152
 Vibration     8          0.744              1.529              1.070
 Vibration     9          0.796              1.394              0.842
 Vibration    10          0.828              1.315              0.735
 Vibration    11          0.903              1.145              0.549
 Vibration    12          0.919              1.111              0.518

 Optimization completed.
    -- Stationary point found.
 Normal termination of Gaussian 16 at Sat May 24 07:45:06 2025.
