 Gaussian 16, Revision C.01,
 Gaussian 16:  ES64L-G16RevC.01  3-Jul-2019

 ----------------------------------------------------------------------
 #P M062X/Def2TZVPP Symm(None) scf(xqc) pop(None) opt(NoFreeze,TS,CalcA
 ll,NoEigentest,MaxCycle=999)
 ----------------------------------------------------------------------

 ------------------------------
 Gaussian input prepared by ASE
 ------------------------------
 Symbolic Z-matrix:
 Charge =  0 Multiplicity = 1

 SCF Done:  E(RM062X) =  -764.452510979     A.U. after   15 cycles
 SCF Done:  E(RM062X) =  -764.459389865     A.U. after   14 cycles
 SCF Done:  E(RM062X) =  -764.460457847     A.U. after   14 cycles
 SCF Done:  E(RM062X) =  -764.463594053     A.U. after   14 cycles
 SCF Done:  E(RM062X) =  -764.466469245     A.U. after   14 cycles
 SCF Done:  E(RM062X) =  -764.469026831     A.U. after   15 cycles
 SCF Done:  E(RM062X) =  -764.471055557     A.U. after   15 cycles
 SCF Done:  E(RM062X) =  -764.474840858     A.U. after   15 cycles
 SCF Done:  E(RM062X) =  -764.479474391     A.U. after   14 cycles
 SCF Done:  E(RM062X) =  -764.487083565     A.U. after   13 cycles
 SCF Done:  E(RM062X) =  -764.496505638     A.U. after   14 cycles
 SCF Done:  E(RM062X) =  -764.504072357     A.U. after   13 cycles
 SCF Done:  E(RM062X) =  -764.507060401     A.U. after   13 cycles
 SCF Done:  E(RM062X) =  -764.507591947     A.U. after   12 cycles
 SCF Done:  E(RM062X) =  -764.507604857     A.U. after   10 cycles

 Isotropic polarizability for W=    0.000000       50.12 Bohr**3.
 End of Minotr F.D. properties file   721 does not exist.

 Optimization completed.
    -- Stationary point found.

                          Input orientation:
 ---------------------------------------------------------------------
 Center     Atomic      Atomic             Coordinates (Angstroms)
 Number     Number       Type             X           Y           Z
 ---------------------------------------------------------------------
      1          6           0        2.122658    0.300507    0.184050
      2          8           0        1.630477    0.117912   -0.931333
      3          6           0        0.067000   -0.237382   -0.373055
      4          6           0        1.111809    0.115986    1.364892
      5          9           0        0.331263    1.097185    1.746153
      6          9           0        0.865973   -1.070097    1.865024
      7          9           0        2.294857    0.469699    2.493830
      8          9           0       -0.664839    0.636161   -1.023542
      9          9           0       -0.158450   -1.413293   -0.909864
     10          8           0        3.322109    0.609914    0.431532
     11          1           0        3.295129    0.659328    1.456706
 ---------------------------------------------------------------------

 ******    1 imaginary frequencies (negative Signs) ******

                      1                      2                      3
                      A                      A                      A
 Frequencies --   -719.8251                83.8191               103.9668
 Red. masses --      5.9359                16.4941                14.9811
 Frc consts  --      1.8121                 0.0683                 0.0954
 IR Inten    --    368.1462                 0.2897                 1.2249

                      4                      5                      6
                      A                      A                      A
 Frequencies --    138.3460               148.0247               206.2147
 Red. masses --     16.3529                16.1640                10.5457
 Frc consts  --      0.1844                 0.2087                 0.2642
 IR Inten    --      0.0047                13.9756               146.4063

                      7                      8                      9
                      A                      A                      A
 Frequencies --    331.3475               338.1634               415.1482
 Red. masses --     17.3764                17.0978                15.0951
 Frc consts  --      1.1240                 1.1520                 1.5328
 IR Inten    --      5.7900                20.9582                 1.3942

                     10                     11                     12
                      A                      A                      A
 Frequencies --    464.4997               497.5372               525.5982
 Red. masses --     17.8224                 8.9051                15.7113
 Frc consts  --      2.2656                 1.2988                 2.5572
 IR Inten    --      4.2863                19.6667                44.5002

                     13                     14                     15
                      A                      A                      A
 Frequencies --    538.8752               661.5862               687.2151
 Red. masses --     12.9490                11.8613                16.0726
 Frc consts  --      2.2155                 3.0588                 4.4722
 IR Inten    --     99.5932               345.5192                26.2306

                     16                     17                     18
                      A                      A                      A
 Frequencies --    699.6775               766.6492               793.4454
 Red. masses --     13.4710                11.7692                10.3249
 Frc consts  --      3.8855                 4.0756                 3.8297
 IR Inten    --    122.9796                 9.8271                84.7263

                     19                     20                     21
                      A                      A                      A
 Frequencies --   1042.9727              1238.7018              1239.0164
 Red. masses --      1.0683                 2.9365                11.9973
 Frc consts  --      0.6847                 2.6547                10.8514
 IR Inten    --     89.1521                89.0287               256.7979

                     22                     23                     24
                      A                      A                      A
 Frequencies --   1288.1002              1300.1860              1357.5569
 Red. masses --     12.1614                 3.2870                13.1813
 Frc consts  --     11.8886                 3.2738                14.3128
 IR Inten    --    196.9645               375.5159               282.5324

                     25                     26                     27
                      A                      A                      A
 Frequencies --   1569.4174              1801.3106              2831.4369
 Red. masses --      4.0603                12.1263                 1.0708
 Frc consts  --      5.8923                23.1823                 5.0579
 IR Inten    --    179.8772               522.2185               647.5998

 - Thermochemistry -
 -------------------
 Temperature   298.150 Kelvin.  Pressure   1.00000 Atm.
 Atom     1 has atomic number  6 and mass  12.00000

 Molecular mass:   163.98967 amu.
 Principal axes and moments of inertia in atomic units:
                           1         2         3
     Eigenvalues --   885.784911648.377321891.89373
           X            0.64116   0.72915  -0.23928
           Y            0.19895   0.14321   0.96949
           Z            0.74117  -0.66920  -0.05324
 This molecule is an asymmetric top.
 Rotational symmetry number  1.
 Warning -- assumption of classical behavior for rotation
           may cause significant error
 Rotational temperatures (Kelvin)      0.09778     0.05254     0.04578
 Rotational constants (GHZ):           2.03745     1.09486     0.95393
    1 imaginary frequencies ignored.
 Zero-point vibrational energy     126019.5 (Joules/Mol)
                                   30.11938 (Kcal/Mol)
 Warning -- explicit consideration of  12 degrees of freedom as
           vibrations may cause significant error
 Vibrational temperatures:    120.60   149.59   199.05   212.97   296.70
          (Kelvin)            476.74   486.54   597.31   668.31   715.85
                              756.22   775.32   951.87   988.75  1006.68
                             1103.04  1141.59  1500.61  1782.22  1782.67
                             1853.29  1870.68  1953.22  2258.04  2591.68
                             4073.81

 Zero-point correction=                           0.047998 (Hartree/Particle)
 Thermal correction to Energy=                    0.056743
 Thermal correction to Enthalpy=                  0.057687
 Thermal correction to Gibbs Free Energy=         0.013495
 Sum of electronic and zero-point Energies=           -764.459607
 Sum of electronic and thermal Energies=              -764.450862
 Sum of electronic and thermal Enthalpies=            -764.449917
 Sum of electronic and thermal Free Energies=         -764.494110

                     E (Thermal)             CV                S
                      KCal/Mol        Cal/Mol-Kelvin    Cal/Mol-Kelvin
 Total                   35.607             30.270             93.010
 Electronic               0.000              0.000              0.000
 Translational            0.889              2.981             41.192
 Rotational               0.889              2.981             29.403
 Vibrational             33.829             24.308             22.415
 Vibration     1          0.601              1.960              3.799
 Vibration     2          0.605              1.946              3.379
 Vibration     3          0.614              1.915              2.827
 Vibration     4          0.617              1.905              2.697
 Vibration     5          0.641              1.831              2.077
 Vibration     6          0.714              1.613              1.254
 Vibration     7          0.718              1.599              1.221
 Vibration     8          0.779              1.437              0.909
 Vibration     9          0.822              1.329              0.753
 Vibration    10          0.853              1.255              0.664
 Vibration    11          0.881              1.193              0.597
 Vibration    12          0.894              1.164              0.568

 Normal termination of Gaussian 16 at Sat May 24 06:24:27 2025.
