 Gaussian 16, Revision C.01,
 Gaussian 16:  ES64L-G16RevC.01  3-Jul-2019

 ----------------------------------------------------------------------
 #P M062X/Def2TZVPP Symm(None) scf(xqc) pop(None) opt(NoFreeze,TS,CalcA
 ll,NoEigentest,MaxCycle=999)
 ----------------------------------------------------------------------

 ------------------------------
 Gaussian input prepared by ASE
 ------------------------------
 Symbolic Z-matrix:
 Charge =  0 Multiplicity = 1

 SCF Done:  E(RM062X) =  -764.514591767     A.U. after   18 cycles
 SCF Done:  E(RM062X) =  -764.519776162     A.U. after   14 cycles
 SCF Done:  E(RM062X) =  -764.524478597     A.U. after   15 cycles
 SCF Done:  E(RM062X) =  -764.527467951     A.U. after   14 cycles
 SCF Done:  E(RM062X) =  -764.528744517     A.U. after   14 cycles
 SCF Done:  E(RM062X) =  -764.529095221     A.U. after   13 cycles
 SCF Done:  E(RM062X) =  -764.529100750     A.U. after   10 cycles

 Isotropic polarizability for W=    0.000000       51.13 Bohr**3.
 End of Minotr F.D. properties file   721 does not exist.

 Optimization completed.
    -- Stationary point found.

                          Input orientation:
 ---------------------------------------------------------------------
 Center     Atomic      Atomic             Coordinates (Angstroms)
 Number     Number       Type             X           Y           Z
 ---------------------------------------------------------------------
      1          6           0        1.528822    0.110493    0.163033
      2          8           0        2.232446   -0.618149   -0.543106
      3          6           0       -0.017453    0.001025    0.040931
      4          6           0        1.476988   -0.476501    1.775175
      5          9           0        0.715285    0.223341    2.617706
      6          9           0        1.089439   -1.744768    1.818281
      7          9           0        2.727375   -0.389598    2.170520
      8          9           0       -0.847755    0.799505    0.562429
      9          9           0       -0.545126   -1.102918   -0.261542
     10          8           0        1.793002    1.472258    0.328064
     11          1           0        2.654049    1.594672   -0.088426
 ---------------------------------------------------------------------

 ******    1 imaginary frequencies (negative Signs) ******

                      1                      2                      3
                      A                      A                      A
 Frequencies --   -300.5047                48.0339               109.6853
 Red. masses --      8.6394                18.1586                14.9194
 Frc consts  --      0.4597                 0.0247                 0.1058
 IR Inten    --     89.5936                 0.2237                 1.8623

                      4                      5                      6
                      A                      A                      A
 Frequencies --    157.7283               201.1203               213.9872
 Red. masses --     12.3710                14.7746                14.8747
 Frc consts  --      0.1813                 0.3521                 0.4013
 IR Inten    --      3.1466                 0.5364                 1.6294

                      7                      8                      9
                      A                      A                      A
 Frequencies --    267.6916               285.5378               333.2508
 Red. masses --      3.2193                 2.6829                13.8817
 Frc consts  --      0.1359                 0.1289                 0.9083
 IR Inten    --     16.8536                41.9263                10.2340

                     10                     11                     12
                      A                      A                      A
 Frequencies --    363.9245               476.1787               516.1739
 Red. masses --      3.4259                14.4765                 9.4109
 Frc consts  --      0.2673                 1.9340                 1.4773
 IR Inten    --     16.1791                 4.4886                18.3735

                     13                     14                     15
                      A                      A                      A
 Frequencies --    550.7028               589.3999               631.9333
 Red. masses --      7.0650                15.6375                 9.3281
 Frc consts  --      1.2624                 3.2006                 2.1948
 IR Inten    --     57.0360                 3.6088                41.9587

                     16                     17                     18
                      A                      A                      A
 Frequencies --    676.4707               754.1013               763.0271
 Red. masses --     12.0484                15.6797                 9.6541
 Frc consts  --      3.2485                 5.2535                 3.3116
 IR Inten    --      0.5424                25.6870                 7.8116

                     19                     20                     21
                      A                      A                      A
 Frequencies --   1026.6597              1095.1428              1247.7880
 Red. masses --      5.7498                13.7273                12.9348
 Frc consts  --      3.5707                 9.7001                11.8657
 IR Inten    --    286.6041               397.0257               182.2539

                     22                     23                     24
                      A                      A                      A
 Frequencies --   1284.4872              1309.4200              1440.9323
 Red. masses --      2.4101                 3.6665                11.4578
 Frc consts  --      2.3429                 3.7039                14.0164
 IR Inten    --     40.2341               199.7821               270.5888

                     25                     26                     27
                      A                      A                      A
 Frequencies --   1482.3252              1586.4803              3853.4636
 Red. masses --     12.2777                 8.2476                 1.0654
 Frc consts  --     15.8948                12.2306                 9.3210
 IR Inten    --    271.6210               472.7656               130.6454

 - Thermochemistry -
 -------------------
 Temperature   298.150 Kelvin.  Pressure   1.00000 Atm.
 Atom     1 has atomic number  6 and mass  12.00000

 Molecular mass:   163.98967 amu.
 Principal axes and moments of inertia in atomic units:
                           1         2         3
     Eigenvalues --  1032.250301415.315401523.14582
           X            0.78159  -0.59812  -0.17715
           Y           -0.12636  -0.42989   0.89399
           Z            0.61087   0.67635   0.41157
 This molecule is an asymmetric top.
 Rotational symmetry number  1.
 Warning -- assumption of classical behavior for rotation
           may cause significant error
 Rotational temperatures (Kelvin)      0.08391     0.06120     0.05687
 Rotational constants (GHZ):           1.74836     1.27515     1.18488
    1 imaginary frequencies ignored.
 Zero-point vibrational energy     127196.8 (Joules/Mol)
                                   30.40077 (Kcal/Mol)
 Warning -- explicit consideration of  13 degrees of freedom as
           vibrations may cause significant error
 Vibrational temperatures:     69.11   157.81   226.94   289.37   307.88
          (Kelvin)            385.15   410.83   479.47   523.61   685.11
                              742.66   792.34   848.02   909.21   973.29
                             1084.98  1097.83  1477.13  1575.67  1795.29
                             1848.09  1883.96  2073.18  2132.74  2282.59
                             5544.27

 Zero-point correction=                           0.048447 (Hartree/Particle)
 Thermal correction to Energy=                    0.057558
 Thermal correction to Enthalpy=                  0.058502
 Thermal correction to Gibbs Free Energy=         0.013571
 Sum of electronic and zero-point Energies=           -764.480654
 Sum of electronic and thermal Energies=              -764.471543
 Sum of electronic and thermal Enthalpies=            -764.470599
 Sum of electronic and thermal Free Energies=         -764.515530

                     E (Thermal)             CV                S
                      KCal/Mol        Cal/Mol-Kelvin    Cal/Mol-Kelvin
 Total                   36.118             31.349             94.566
 Electronic               0.000              0.000              0.000
 Translational            0.889              2.981             41.192
 Rotational               0.889              2.981             29.188
 Vibrational             34.341             25.388             24.185
 Vibration     1          0.595              1.978              4.897
 Vibration     2          0.606              1.941              3.274
 Vibration     3          0.621              1.894              2.577
 Vibration     4          0.638              1.838              2.123
 Vibration     5          0.644              1.820              2.009
 Vibration     6          0.673              1.732              1.611
 Vibration     7          0.683              1.701              1.500
 Vibration     8          0.715              1.609              1.244
 Vibration     9          0.737              1.547              1.105
 Vibration    10          0.833              1.303              0.720
 Vibration    11          0.871              1.214              0.619
 Vibration    12          0.906              1.138              0.543
 Vibration    13          0.947              1.054              0.468

 Normal termination of Gaussian 16 at Sat May 24 05:31:22 2025.
