 Gaussian 16, Revision C.01,
 Gaussian 16:  ES64L-G16RevC.01  3-Jul-2019

 ----------------------------------------------------------------------
 #P M062X/Def2TZVPP Symm(None) scf(xqc) pop(None) opt(NoFreeze,TS,CalcA
 ll,NoEigentest,MaxCycle=999)
 ----------------------------------------------------------------------

 ------------------------------
 Gaussian input prepared by ASE
 ------------------------------
 Symbolic Z-matrix:
 Charge =  0 Multiplicity = 1

 SCF Done:  E(RM062X) =  -764.511141025     A.U. after   15 cycles
 SCF Done:  E(RM062X) =  -764.511141089     A.U. after    8 cycles

 Isotropic polarizability for W=    0.000000       48.74 Bohr**3.
 End of Minotr F.D. properties file   721 does not exist.

 Optimization completed.
    -- Stationary point found.

                          Input orientation:
 ---------------------------------------------------------------------
 Center     Atomic      Atomic             Coordinates (Angstroms)
 Number     Number       Type             X           Y           Z
 ---------------------------------------------------------------------
      1          6           0        1.774786    0.000257   -0.000012
      2          8           0        1.265884   -0.403302   -1.087820
      3          6           0        0.000022    0.000291    0.000168
      4          6           0       -0.299941   -1.127783    1.022881
      5          9           0       -1.614619   -1.252191    1.148746
      6          9           0        0.201332   -2.281061    0.610285
      7          9           0        0.200925   -0.833826    2.209150
      8          9           0       -0.225126    1.211206    0.522727
      9          9           0       -0.944239   -0.079787   -0.968452
     10          8           0        3.018623    0.373023   -0.000496
     11          1           0        3.383083    0.271588   -0.903622
 ---------------------------------------------------------------------

 ******    1 imaginary frequencies (negative Signs) ******

                      1                      2                      3
                      A                      A                      A
 Frequencies --   -732.5147                47.6575                65.3027
 Red. masses --     12.7806                16.7638                12.2056
 Frc consts  --      4.0405                 0.0224                 0.0307
 IR Inten    --     56.7351                 0.0747                 1.9484

                      4                      5                      6
                      A                      A                      A
 Frequencies --    127.7754               208.7915               232.2796
 Red. masses --      5.6725                14.4427                14.7744
 Frc consts  --      0.0546                 0.3710                 0.4697
 IR Inten    --      8.0783                 1.2069                 2.1177

                      7                      8                      9
                      A                      A                      A
 Frequencies --    316.0196               350.5708               378.1700
 Red. masses --     15.1746                10.7464                13.9330
 Frc consts  --      0.8929                 0.7782                 1.1740
 IR Inten    --     50.9358                 9.3556                 0.7810

                     10                     11                     12
                      A                      A                      A
 Frequencies --    460.9628               473.2508               561.5889
 Red. masses --      7.9943                 8.3234                14.6866
 Frc consts  --      1.0008                 1.0983                 2.7290
 IR Inten    --     81.6147                 4.0257                39.6191

                     13                     14                     15
                      A                      A                      A
 Frequencies --    593.1088               669.7374               672.1519
 Red. masses --     12.8924                 4.2174                 9.7084
 Frc consts  --      2.6721                 1.1146                 2.5842
 IR Inten    --      4.8512               116.1365                89.0285

                     16                     17                     18
                      A                      A                      A
 Frequencies --    730.0748               755.5481               877.9884
 Red. masses --      1.6412                11.3605                13.4289
 Frc consts  --      0.5154                 3.8210                 6.0991
 IR Inten    --     74.1430               104.9327               333.0919

                     19                     20                     21
                      A                      A                      A
 Frequencies --   1009.2303              1140.4570              1218.7216
 Red. masses --     13.4537                13.6955                 1.9068
 Frc consts  --      8.0737                10.4951                 1.6687
 IR Inten    --    161.0130               227.4086               129.8772

                     22                     23                     24
                      A                      A                      A
 Frequencies --   1283.5706              1300.7893              1376.0525
 Red. masses --     10.3760                12.8056                10.8442
 Frc consts  --     10.0720                12.7662                12.0982
 IR Inten    --    277.3526               249.9430                69.8232

                     25                     26                     27
                      A                      A                      A
 Frequencies --   1412.5845              1585.7703              3606.9783
 Red. masses --      5.0372                 8.1910                 1.0621
 Frc consts  --      5.9220                12.1358                 8.1416
 IR Inten    --     62.2094               275.5608                36.0020

 - Thermochemistry -
 -------------------
 Temperature   298.150 Kelvin.  Pressure   1.00000 Atm.
 Atom     1 has atomic number  6 and mass  12.00000

 Molecular mass:   163.98967 amu.
 Principal axes and moments of inertia in atomic units:
                           1         2         3
     Eigenvalues --   930.108861547.723421749.15094
           X            0.83419   0.55086  -0.02616
           Y            0.39422  -0.56247   0.72679
           Z           -0.38564   0.61659   0.68636
 This molecule is an asymmetric top.
 Rotational symmetry number  1.
 Warning -- assumption of classical behavior for rotation
           may cause significant error
 Rotational temperatures (Kelvin)      0.09312     0.05596     0.04952
 Rotational constants (GHZ):           1.94035     1.16606     1.03178
    1 imaginary frequencies ignored.
 Zero-point vibrational energy     128330.2 (Joules/Mol)
                                   30.67165 (Kcal/Mol)
 Warning -- explicit consideration of  12 degrees of freedom as
           vibrations may cause significant error
 Vibrational temperatures:     68.57    93.96   183.84   300.40   334.20
          (Kelvin)            454.68   504.39   544.10   663.22   680.90
                              808.00   853.35   963.60   967.08  1050.41
                             1087.07  1263.23  1452.06  1640.86  1753.47
                             1846.77  1871.55  1979.83  2032.39  2281.57
                             5189.64

 Zero-point correction=                           0.048878 (Hartree/Particle)
 Thermal correction to Energy=                    0.057650
 Thermal correction to Enthalpy=                  0.058594
 Thermal correction to Gibbs Free Energy=         0.013810
 Sum of electronic and zero-point Energies=           -764.462263
 Sum of electronic and thermal Energies=              -764.453492
 Sum of electronic and thermal Enthalpies=            -764.452547
 Sum of electronic and thermal Free Energies=         -764.497331

                     E (Thermal)             CV                S
                      KCal/Mol        Cal/Mol-Kelvin    Cal/Mol-Kelvin
 Total                   36.176             30.181             94.255
 Electronic               0.000              0.000              0.000
 Translational            0.889              2.981             41.192
 Rotational               0.889              2.981             29.311
 Vibrational             34.398             24.219             23.751
 Vibration     1          0.595              1.978              4.912
 Vibration     2          0.597              1.971              4.290
 Vibration     3          0.611              1.925              2.979
 Vibration     4          0.642              1.827              2.054
 Vibration     5          0.653              1.792              1.861
 Vibration     6          0.703              1.643              1.331
 Vibration     7          0.727              1.574              1.164
 Vibration     8          0.748              1.517              1.046
 Vibration     9          0.819              1.337              0.763
 Vibration    10          0.830              1.309              0.728
 Vibration    11          0.917              1.114              0.521
 Vibration    12          0.951              1.046              0.462

 Normal termination of Gaussian 16 at Sat May 24 05:21:11 2025.
