 Gaussian 16, Revision C.01,
 Gaussian 16:  ES64L-G16RevC.01  3-Jul-2019

 -----------------------------------------------------------------
 #P M062X/Def2TZVPP Symm(None) scf(xqc) pop(None) freq opt(CalcFC)
 -----------------------------------------------------------------

 ------------------------------
 Gaussian input prepared by ASE
 ------------------------------
 Symbolic Z-matrix:
 Charge =  0 Multiplicity = 1

 SCF Done:  E(RM062X) =  -764.307237046     A.U. after   16 cycles
 SCF Done:  E(RM062X) =  -764.359810367     A.U. after   15 cycles
 SCF Done:  E(RM062X) =  -764.413235279     A.U. after   14 cycles
 SCF Done:  E(RM062X) =  -764.461610438     A.U. after   14 cycles
 SCF Done:  E(RM062X) =  -764.475786555     A.U. after   15 cycles
 SCF Done:  E(RM062X) =  -764.475791995     A.U. after   14 cycles
 SCF Done:  E(RM062X) =  -764.481864501     A.U. after   14 cycles
 SCF Done:  E(RM062X) =  -764.482228909     A.U. after   11 cycles
 SCF Done:  E(RM062X) =  -764.482393475     A.U. after   12 cycles
 SCF Done:  E(RM062X) =  -764.482582530     A.U. after   12 cycles
 SCF Done:  E(RM062X) =  -764.491678081     A.U. after   13 cycles
 SCF Done:  E(RM062X) =  -764.491808755     A.U. after   13 cycles
 SCF Done:  E(RM062X) =  -764.491871436     A.U. after   11 cycles
 SCF Done:  E(RM062X) =  -764.491921818     A.U. after   11 cycles
 SCF Done:  E(RM062X) =  -764.491944335     A.U. after   11 cycles
 SCF Done:  E(RM062X) =  -764.491965399     A.U. after   11 cycles
 SCF Done:  E(RM062X) =  -764.491967905     A.U. after    8 cycles
 SCF Done:  E(RM062X) =  -764.491968964     A.U. after    8 cycles
 SCF Done:  E(RM062X) =  -764.491969027     A.U. after    7 cycles
 Optimization completed.
    -- Stationary point found.
 Normal termination of Gaussian 16 at Sat May 24 06:59:31 2025.

 ---------------------------------------------------------------------
 #P Geom=AllCheck Guess=TCheck SCRF=Check GenChk RM062X/def2TZVPP Freq
 ---------------------------------------------------------------------

 Structure from the checkpoint file:  "/tmp/Gau-268000.chk"
 ------------------------------
 Gaussian input prepared by ASE
 ------------------------------
 Charge =  0 Multiplicity = 1

                          Input orientation:
 ---------------------------------------------------------------------
 Center     Atomic      Atomic             Coordinates (Angstroms)
 Number     Number       Type             X           Y           Z
 ---------------------------------------------------------------------
      1          6           0        1.209875   -0.185734    0.215403
      2          8           0       -0.064703   -0.323934    0.616655
      3          6           0        1.977437   -1.261874    0.057036
      4          6           0        1.609388   -2.716687    0.088338
      5          9           0        2.129086   -3.327501   -0.978526
      6          9           0        2.122174   -3.310750    1.169080
      7          9           0        0.301438   -2.912410    0.085692
      8          9           0       -0.862259    0.196378   -0.434915
      9          9           0        3.289840   -1.071169   -0.134157
     10          8           0        1.623629    1.076797    0.107862
     11          1           0        2.517364    1.105160   -0.252837
 ---------------------------------------------------------------------

 SCF Done:  E(RM062X) =  -764.491969027     A.U. after    1 cycles

 Isotropic polarizability for W=    0.000000       50.45 Bohr**3.
 End of Minotr F.D. properties file   721 does not exist.

                      1                      2                      3
                      A                      A                      A
 Frequencies --     28.0541                76.7426               108.1705
 Red. masses --     17.7469                17.6871                 9.2151
 Frc consts  --      0.0082                 0.0614                 0.0635
 IR Inten    --      0.4439                 0.8357                 1.4938

                      4                      5                      6
                      A                      A                      A
 Frequencies --    182.9170               222.8203               268.9599
 Red. masses --     14.1335                15.3611                 9.8578
 Frc consts  --      0.2786                 0.4493                 0.4202
 IR Inten    --      3.3554                 1.1766                 6.7608

                      7                      8                      9
                      A                      A                      A
 Frequencies --    317.5008               363.4865               374.5700
 Red. masses --      5.5833                 5.4930                 6.5762
 Frc consts  --      0.3316                 0.4276                 0.5436
 IR Inten    --     11.4825                15.5374                13.5023

                     10                     11                     12
                      A                      A                      A
 Frequencies --    390.7075               494.5565               513.1250
 Red. masses --      1.6302                16.2413                15.8850
 Frc consts  --      0.1466                 2.3405                 2.4642
 IR Inten    --     79.8014                 2.0739                 1.5950

                     13                     14                     15
                      A                      A                      A
 Frequencies --    604.7294               614.4755               683.9737
 Red. masses --     13.1972                16.0011                11.2913
 Frc consts  --      2.8435                 3.5597                 3.1122
 IR Inten    --      2.3474                 1.3673                 4.8062

                     16                     17                     18
                      A                      A                      A
 Frequencies --    756.2367               830.0186               952.1823
 Red. masses --     13.9315                13.3365                16.6604
 Frc consts  --      4.6942                 5.4134                 8.8997
 IR Inten    --     24.1735                22.8552                98.8710

                     19                     20                     21
                      A                      A                      A
 Frequencies --   1064.9655              1170.3090              1221.5686
 Red. masses --      6.9603                 2.7883                13.1235
 Frc consts  --      4.6510                 2.2501                11.5381
 IR Inten    --    127.8878               282.7927               295.1487

                     22                     23                     24
                      A                      A                      A
 Frequencies --   1272.4664              1286.6668              1408.1404
 Red. masses --      5.1949                 4.5210                 8.8139
 Frc consts  --      4.9559                 4.4098                10.2970
 IR Inten    --    302.7238               141.9822               123.9743

                     25                     26                     27
                      A                      A                      A
 Frequencies --   1426.6996              1821.3581              3851.0018
 Red. masses --      4.7769                11.4106                 1.0656
 Frc consts  --      5.7288                22.3022                 9.3108
 IR Inten    --    130.1206               152.0658               123.7188

 - Thermochemistry -
 -------------------
 Temperature   298.150 Kelvin.  Pressure   1.00000 Atm.
 Atom     1 has atomic number  6 and mass  12.00000

 Molecular mass:   163.98967 amu.
 Principal axes and moments of inertia in atomic units:
                           1         2         3
     Eigenvalues --   909.325731779.716312299.81461
           X           -0.44538   0.89533   0.00492
           Y            0.89519   0.44519   0.02101
           Z           -0.01662  -0.01376   0.99977
 This molecule is an asymmetric top.
 Rotational symmetry number  1.
 Warning -- assumption of classical behavior for rotation
           may cause significant error
 Rotational temperatures (Kelvin)      0.09525     0.04867     0.03766
 Rotational constants (GHZ):           1.98470     1.01406     0.78473
 Zero-point vibrational energy     133421.9 (Joules/Mol)
                                   31.88860 (Kcal/Mol)
 Warning -- explicit consideration of  14 degrees of freedom as
           vibrations may cause significant error
 Vibrational temperatures:     40.36   110.42   155.63   263.18   320.59
          (Kelvin)            386.97   456.81   522.98   538.92   562.14
                              711.56   738.27   870.07   884.09   984.09
                             1088.06  1194.21  1369.98  1532.25  1683.81
                             1757.56  1830.80  1851.23  2026.00  2052.70
                             2620.53  5540.73

 Zero-point correction=                           0.050818 (Hartree/Particle)
 Thermal correction to Energy=                    0.060185
 Thermal correction to Enthalpy=                  0.061129
 Thermal correction to Gibbs Free Energy=         0.014689
 Sum of electronic and zero-point Energies=           -764.441151
 Sum of electronic and thermal Energies=              -764.431785
 Sum of electronic and thermal Enthalpies=            -764.430840
 Sum of electronic and thermal Free Energies=         -764.477280

                     E (Thermal)             CV                S
                      KCal/Mol        Cal/Mol-Kelvin    Cal/Mol-Kelvin
 Total                   37.766             31.849             97.741
 Electronic               0.000              0.000              0.000
 Translational            0.889              2.981             41.192
 Rotational               0.889              2.981             29.699
 Vibrational             35.989             25.887             26.849
 Vibration     1          0.593              1.984              5.962
 Vibration     2          0.599              1.965              3.973
 Vibration     3          0.606              1.943              3.301
 Vibration     4          0.630              1.863              2.298
 Vibration     5          0.648              1.806              1.936
 Vibration     6          0.673              1.730              1.603
 Vibration     7          0.704              1.640              1.323
 Vibration     8          0.737              1.547              1.107
 Vibration     9          0.746              1.524              1.061
 Vibration    10          0.758              1.490              0.997
 Vibration    11          0.850              1.262              0.672
 Vibration    12          0.868              1.221              0.626
 Vibration    13          0.963              1.022              0.442
 Vibration    14          0.974              1.001              0.425

 Optimization completed.
    -- Stationary point found.
 Normal termination of Gaussian 16 at Sat May 24 07:03:02 2025.
