 Gaussian 16, Revision C.01,
 Gaussian 16:  ES64L-G16RevC.01  3-Jul-2019

 -----------------------------------------------------------------
 #P M062X/Def2TZVPP Symm(None) scf(xqc) pop(None) freq opt(CalcFC)
 -----------------------------------------------------------------

 ------------------------------
 Gaussian input prepared by ASE
 ------------------------------
 Symbolic Z-matrix:
 Charge =  0 Multiplicity = 1

 SCF Done:  E(RM062X) =  -764.410821938     A.U. after   18 cycles
 SCF Done:  E(RM062X) =  -764.449240716     A.U. after   16 cycles
 SCF Done:  E(RM062X) =  -764.452249822     A.U. after   16 cycles
 SCF Done:  E(RM062X) =  -764.450873243     A.U. after   15 cycles
 SCF Done:  E(RM062X) =  -764.451410702     A.U. after   16 cycles
 SCF Done:  E(RM062X) =  -764.452311017     A.U. after   13 cycles
 SCF Done:  E(RM062X) =  -764.459733454     A.U. after   14 cycles
 SCF Done:  E(RM062X) =  -764.461710729     A.U. after   15 cycles
 SCF Done:  E(RM062X) =  -764.460688988     A.U. after   17 cycles
 SCF Done:  E(RM062X) =  -764.462643621     A.U. after   13 cycles
 SCF Done:  E(RM062X) =  -764.462987250     A.U. after   14 cycles
 SCF Done:  E(RM062X) =  -764.463216406     A.U. after   14 cycles
 SCF Done:  E(RM062X) =  -764.463266080     A.U. after   14 cycles
 SCF Done:  E(RM062X) =  -764.463281157     A.U. after   12 cycles
 SCF Done:  E(RM062X) =  -764.463286225     A.U. after    9 cycles
 SCF Done:  E(RM062X) =  -764.463287720     A.U. after    9 cycles
 SCF Done:  E(RM062X) =  -764.463288002     A.U. after    9 cycles
 Optimization completed.
    -- Stationary point found.
 Normal termination of Gaussian 16 at Sat May 24 09:06:32 2025.

 ---------------------------------------------------------------------
 #P Geom=AllCheck Guess=TCheck SCRF=Check GenChk RM062X/def2TZVPP Freq
 ---------------------------------------------------------------------

 Structure from the checkpoint file:  "/tmp/Gau-180456.chk"
 ------------------------------
 Gaussian input prepared by ASE
 ------------------------------
 Charge =  0 Multiplicity = 1

                          Input orientation:
 ---------------------------------------------------------------------
 Center     Atomic      Atomic             Coordinates (Angstroms)
 Number     Number       Type             X           Y           Z
 ---------------------------------------------------------------------
      1          6           0        2.409550    1.740468   -0.233158
      2          8           0        0.748832   -0.041718   -0.279809
      3          6           0        3.022837    1.115542   -1.489147
      4          6           0        4.033487    0.002680   -1.113757
      5          9           0        4.561787   -0.496913   -2.218588
      6          9           0        5.001224    0.517388   -0.364869
      7          9           0        3.441510   -0.967396   -0.437795
      8          9           0        2.119234    0.625186   -2.340013
      9          9           0        3.708545    2.075309   -2.128288
     10          8           0        1.448402    1.286418    0.326130
     11          1           0        0.169726   -0.211300    0.474206
 ---------------------------------------------------------------------

 SCF Done:  E(RM062X) =  -764.463288002     A.U. after    1 cycles

 Isotropic polarizability for W=    0.000000       54.00 Bohr**3.
 End of Minotr F.D. properties file   721 does not exist.

                      1                      2                      3
                      A                      A                      A
 Frequencies --     41.1034                95.1167               155.7094
 Red. masses --     15.3204                 8.8722                 8.6416
 Frc consts  --      0.0153                 0.0473                 0.1234
 IR Inten    --      0.1616                 0.7791                 7.0556

                      4                      5                      6
                      A                      A                      A
 Frequencies --    189.2759               209.2052               216.6640
 Red. masses --      1.9202                 3.1155                 6.5550
 Frc consts  --      0.0405                 0.0803                 0.1813
 IR Inten    --     61.9769                50.6611                12.7915

                      7                      8                      9
                      A                      A                      A
 Frequencies --    263.6425               286.4865               364.5282
 Red. masses --     15.3882                15.6279                17.6034
 Frc consts  --      0.6302                 0.7557                 1.3782
 IR Inten    --     81.4810                20.9884                 2.5804

                     10                     11                     12
                      A                      A                      A
 Frequencies --    390.7582               460.6590               473.7072
 Red. masses --     16.6120                 9.3622                14.7958
 Frc consts  --      1.4945                 1.1705                 1.9562
 IR Inten    --    173.5239                89.1818                11.2080

                     13                     14                     15
                      A                      A                      A
 Frequencies --    515.6022               565.1848               599.1862
 Red. masses --     13.7519                15.3371                17.2070
 Frc consts  --      2.1540                 2.8865                 3.6398
 IR Inten    --      4.0899                 4.7030                 5.8725

                     16                     17                     18
                      A                      A                      A
 Frequencies --    689.0988               736.9008               803.8621
 Red. masses --     15.0107                10.3345                15.0900
 Frc consts  --      4.1997                 3.3064                 5.7452
 IR Inten    --      9.9730                33.8227                 4.3162

                     19                     20                     21
                      A                      A                      A
 Frequencies --   1047.0880              1190.6686              1211.5415
 Red. masses --     13.0432                 1.1985                10.7957
 Frc consts  --      8.4256                 1.0010                 9.3364
 IR Inten    --    111.6417                80.9169               219.0562

                     22                     23                     24
                      A                      A                      A
 Frequencies --   1251.4209              1286.7173              1302.3559
 Red. masses --     12.8498                13.0722                13.0811
 Frc consts  --     11.8564                12.7517                13.0723
 IR Inten    --    187.6185               229.0523               201.3262

                     25                     26                     27
                      A                      A                      A
 Frequencies --   1365.6154              1702.1341              3841.2886
 Red. masses --     12.5568                12.3065                 1.0683
 Frc consts  --     13.7971                21.0073                 9.2874
 IR Inten    --    133.1059               153.9574               133.8911

 - Thermochemistry -
 -------------------
 Temperature   298.150 Kelvin.  Pressure   1.00000 Atm.
 Atom     1 has atomic number  6 and mass  12.00000

 Molecular mass:   163.98967 amu.
 Principal axes and moments of inertia in atomic units:
                           1         2         3
     Eigenvalues --   942.735931543.327701727.78157
           X            0.92325  -0.05841   0.37974
           Y           -0.16180   0.83736   0.52216
           Z           -0.34848  -0.54352   0.76364
 This molecule is an asymmetric top.
 Rotational symmetry number  1.
 Warning -- assumption of classical behavior for rotation
           may cause significant error
 Rotational temperatures (Kelvin)      0.09188     0.05612     0.05013
 Rotational constants (GHZ):           1.91437     1.16938     1.04454
 Zero-point vibrational energy     127136.3 (Joules/Mol)
                                   30.38629 (Kcal/Mol)
 Warning -- explicit consideration of  15 degrees of freedom as
           vibrations may cause significant error
 Vibrational temperatures:     59.14   136.85   224.03   272.33   301.00
          (Kelvin)            311.73   379.32   412.19   524.47   562.21
                              662.79   681.56   741.84   813.17   862.10
                              991.46  1060.24  1156.58  1506.53  1713.11
                             1743.14  1800.52  1851.30  1873.80  1964.82
                             2448.99  5526.76

 Zero-point correction=                           0.048424 (Hartree/Particle)
 Thermal correction to Energy=                    0.058172
 Thermal correction to Enthalpy=                  0.059117
 Thermal correction to Gibbs Free Energy=         0.012789
 Sum of electronic and zero-point Energies=           -764.414864
 Sum of electronic and thermal Energies=              -764.405116
 Sum of electronic and thermal Enthalpies=            -764.404171
 Sum of electronic and thermal Free Energies=         -764.450499

                     E (Thermal)             CV                S
                      KCal/Mol        Cal/Mol-Kelvin    Cal/Mol-Kelvin
 Total                   36.504             33.385             97.505
 Electronic               0.000              0.000              0.000
 Translational            0.889              2.981             41.192
 Rotational               0.889              2.981             29.309
 Vibrational             34.726             27.424             27.003
 Vibration     1          0.594              1.981              5.205
 Vibration     2          0.603              1.953              3.552
 Vibration     3          0.620              1.896              2.601
 Vibration     4          0.633              1.855              2.235
 Vibration     5          0.642              1.827              2.051
 Vibration     6          0.646              1.816              1.987
 Vibration     7          0.670              1.740              1.638
 Vibration     8          0.684              1.699              1.495
 Vibration     9          0.738              1.545              1.103
 Vibration    10          0.758              1.490              0.997
 Vibration    11          0.818              1.337              0.764
 Vibration    12          0.830              1.308              0.727
 Vibration    13          0.871              1.215              0.620
 Vibration    14          0.921              1.107              0.514
 Vibration    15          0.957              1.034              0.451

 Optimization completed.
    -- Stationary point found.
 Normal termination of Gaussian 16 at Sat May 24 09:11:12 2025.
