 Gaussian 16, Revision C.01,
 Gaussian 16:  ES64L-G16RevC.01  3-Jul-2019

 ------------------------------------------
 #P am1 Symm(None) scf(xqc) pop(None) force
 ------------------------------------------

 ------------------------------
 Gaussian input prepared by ASE
 ------------------------------
 Symbolic Z-matrix:
 Charge =  0 Multiplicity = 1

                          Input orientation:
 ---------------------------------------------------------------------
 Center     Atomic      Atomic             Coordinates (Angstroms)
 Number     Number       Type             X           Y           Z
 ---------------------------------------------------------------------
      1          6           0        0.998609    0.266016    0.245653
      2          8           0        0.420274   -0.537880   -0.486102
      3          6           0        1.542091    1.477696   -0.211254
      4          6           0        1.084057    2.117473   -1.521780
      5          9           0        0.871834    3.429601   -1.364361
      6          9           0        1.987091    2.025747   -2.482526
      7          9           0       -0.033479    1.632729   -1.994310
      8          9           0        1.696090   -0.473451   -1.899078
      9          9           0        2.419926    2.126681    0.465118
     10          8           0        1.300618   -0.105856    1.492546
     11          1           0        1.030184   -1.021271    1.639768
 ---------------------------------------------------------------------

 SCF Done:  E(RAM1) =   3.01843822748     A.U. after   23 cycles
 Normal termination of Gaussian 16 at Sat May 24 06:30:24 2025.
