 Gaussian 16, Revision C.01,
 Gaussian 16:  ES64L-G16RevC.01  3-Jul-2019

 -----------------------------------------------------------------
 #P M062X/Def2TZVPP Symm(None) scf(xqc) pop(None) freq opt(CalcFC)
 -----------------------------------------------------------------

 ------------------------------
 Gaussian input prepared by ASE
 ------------------------------
 Symbolic Z-matrix:
 Charge =  0 Multiplicity = 1

 SCF Done:  E(RM062X) =  -764.486880067     A.U. after   15 cycles
 SCF Done:  E(RM062X) =  -764.491569615     A.U. after   14 cycles
 SCF Done:  E(RM062X) =  -764.491868310     A.U. after   13 cycles
 SCF Done:  E(RM062X) =  -764.491942375     A.U. after   11 cycles
 SCF Done:  E(RM062X) =  -764.491959899     A.U. after   11 cycles
 SCF Done:  E(RM062X) =  -764.491967814     A.U. after    9 cycles
 SCF Done:  E(RM062X) =  -764.491968436     A.U. after    8 cycles
 Optimization completed.
    -- Stationary point found.
 Normal termination of Gaussian 16 at Sat May 24 06:37:03 2025.

 ---------------------------------------------------------------------
 #P Geom=AllCheck Guess=TCheck SCRF=Check GenChk RM062X/def2TZVPP Freq
 ---------------------------------------------------------------------

 Structure from the checkpoint file:  "/tmp/Gau-1042.chk"
 ------------------------------
 Gaussian input prepared by ASE
 ------------------------------
 Charge =  0 Multiplicity = 1

                          Input orientation:
 ---------------------------------------------------------------------
 Center     Atomic      Atomic             Coordinates (Angstroms)
 Number     Number       Type             X           Y           Z
 ---------------------------------------------------------------------
      1          6           0        1.298040   -0.008434   -0.088894
      2          8           0       -0.039757    0.003351    0.032567
      3          6           0        1.947446   -1.167921   -0.166951
      4          6           0        1.440725   -2.566235    0.036154
      5          9           0        1.417761   -3.234247   -1.120144
      6          9           0        2.268941   -3.222215    0.851590
      7          9           0        0.226808   -2.597664    0.560219
      8          9           0       -0.312824    0.634521    1.273460
      9          9           0        3.244197   -1.137657   -0.502089
     10          8           0        1.853405    1.195613   -0.225787
     11          1           0        2.814656    1.120994   -0.231680
 ---------------------------------------------------------------------

 SCF Done:  E(RM062X) =  -764.491968436     A.U. after    1 cycles

 Isotropic polarizability for W=    0.000000       50.45 Bohr**3.
 End of Minotr F.D. properties file   721 does not exist.

                      1                      2                      3
                      A                      A                      A
 Frequencies --     27.8757                75.6752               108.7787
 Red. masses --     17.7299                17.6909                 9.3087
 Frc consts  --      0.0081                 0.0597                 0.0649
 IR Inten    --      0.4555                 0.8384                 1.4735

                      4                      5                      6
                      A                      A                      A
 Frequencies --    183.4500               222.5824               269.5008
 Red. masses --     14.1478                15.2512                 9.6967
 Frc consts  --      0.2805                 0.4452                 0.4150
 IR Inten    --      3.3519                 1.1825                 6.8228

                      7                      8                      9
                      A                      A                      A
 Frequencies --    318.0324               363.7069               375.1473
 Red. masses --      5.8488                 5.7764                 7.1579
 Frc consts  --      0.3485                 0.4502                 0.5935
 IR Inten    --     10.6380                14.2624                11.7998

                     10                     11                     12
                      A                      A                      A
 Frequencies --    392.6015               494.5756               513.2415
 Red. masses --      1.5589                16.2490                15.8699
 Frc consts  --      0.1416                 2.3418                 2.4630
 IR Inten    --     83.4771                 2.0976                 1.5542

                     13                     14                     15
                      A                      A                      A
 Frequencies --    604.7954               614.4244               684.4030
 Red. masses --     13.2804                15.8512                11.2658
 Frc consts  --      2.8620                 3.5257                 3.1091
 IR Inten    --      2.3804                 1.2679                 4.9008

                     16                     17                     18
                      A                      A                      A
 Frequencies --    756.4136               830.2385               952.2035
 Red. masses --     13.9570                13.3559                16.6549
 Frc consts  --      4.7050                 5.4241                 8.8972
 IR Inten    --     24.1973                22.7656                98.9161

                     19                     20                     21
                      A                      A                      A
 Frequencies --   1065.2273              1170.7140              1221.8054
 Red. masses --      6.9737                 2.7634                13.1074
 Frc consts  --      4.6623                 2.2315                11.5285
 IR Inten    --    128.1624               284.3366               294.9954

                     22                     23                     24
                      A                      A                      A
 Frequencies --   1272.5666              1286.7753              1408.5217
 Red. masses --      5.2598                 4.5111                 8.8324
 Frc consts  --      5.0186                 4.4009                10.3242
 IR Inten    --    303.0234               139.2117               125.1823

                     25                     26                     27
                      A                      A                      A
 Frequencies --   1427.1167              1823.3736              3852.0033
 Red. masses --      4.7920                11.4225                 1.0656
 Frc consts  --      5.7502                22.3750                 9.3158
 IR Inten    --    130.3288               151.1017               123.6441

 - Thermochemistry -
 -------------------
 Temperature   298.150 Kelvin.  Pressure   1.00000 Atm.
 Atom     1 has atomic number  6 and mass  12.00000

 Molecular mass:   163.98967 amu.
 Principal axes and moments of inertia in atomic units:
                           1         2         3
     Eigenvalues --   909.778441778.276072298.98370
           X           -0.30599   0.87388   0.37776
           Y            0.94338   0.33169  -0.00316
           Z            0.12806  -0.35540   0.92590
 This molecule is an asymmetric top.
 Rotational symmetry number  1.
 Warning -- assumption of classical behavior for rotation
           may cause significant error
 Rotational temperatures (Kelvin)      0.09520     0.04871     0.03767
 Rotational constants (GHZ):           1.98372     1.01488     0.78502
 Zero-point vibrational energy     133477.8 (Joules/Mol)
                                   31.90197 (Kcal/Mol)
 Warning -- explicit consideration of  14 degrees of freedom as
           vibrations may cause significant error
 Vibrational temperatures:     40.11   108.88   156.51   263.94   320.25
          (Kelvin)            387.75   457.58   523.29   539.75   564.87
                              711.58   738.44   870.17   884.02   984.70
                             1088.31  1194.53  1370.01  1532.62  1684.40
                             1757.91  1830.94  1851.38  2026.55  2053.30
                             2623.43  5542.17

 Zero-point correction=                           0.050839 (Hartree/Particle)
 Thermal correction to Energy=                    0.060202
 Thermal correction to Enthalpy=                  0.061146
 Thermal correction to Gibbs Free Energy=         0.014703
 Sum of electronic and zero-point Energies=           -764.441129
 Sum of electronic and thermal Energies=              -764.431766
 Sum of electronic and thermal Enthalpies=            -764.430822
 Sum of electronic and thermal Free Energies=         -764.477265

                     E (Thermal)             CV                S
                      KCal/Mol        Cal/Mol-Kelvin    Cal/Mol-Kelvin
 Total                   37.777             31.838             97.748
 Electronic               0.000              0.000              0.000
 Translational            0.889              2.981             41.192
 Rotational               0.889              2.981             29.699
 Vibrational             36.000             25.876             26.857
 Vibration     1          0.593              1.984              5.975
 Vibration     2          0.599              1.965              4.000
 Vibration     3          0.606              1.942              3.291
 Vibration     4          0.631              1.862              2.293
 Vibration     5          0.648              1.807              1.938
 Vibration     6          0.674              1.729              1.599
 Vibration     7          0.704              1.639              1.320
 Vibration     8          0.737              1.547              1.106
 Vibration     9          0.746              1.523              1.059
 Vibration    10          0.760              1.486              0.990
 Vibration    11          0.850              1.262              0.672
 Vibration    12          0.868              1.221              0.626
 Vibration    13          0.963              1.022              0.441
 Vibration    14          0.974              1.001              0.426

 Optimization completed.
    -- Stationary point found.
 Normal termination of Gaussian 16 at Sat May 24 06:40:21 2025.
