 Gaussian 16, Revision C.01,
 Gaussian 16:  ES64L-G16RevC.01  3-Jul-2019

 -----------------------------------------------------------------
 #P M062X/Def2TZVPP Symm(None) scf(xqc) pop(None) freq opt(CalcFC)
 -----------------------------------------------------------------

 ------------------------------
 Gaussian input prepared by ASE
 ------------------------------
 Symbolic Z-matrix:
 Charge =  0 Multiplicity = 1

 SCF Done:  E(RM062X) =  -764.555528045     A.U. after   13 cycles
 SCF Done:  E(RM062X) =  -764.576181471     A.U. after   14 cycles
 SCF Done:  E(RM062X) =  -764.540912998     A.U. after   14 cycles
 SCF Done:  E(RM062X) =  -764.575064273     A.U. after   14 cycles
 SCF Done:  E(RM062X) =  -764.576983981     A.U. after   11 cycles
 SCF Done:  E(RM062X) =  -764.581663214     A.U. after   14 cycles
 SCF Done:  E(RM062X) =  -764.581545804     A.U. after   13 cycles
 SCF Done:  E(RM062X) =  -764.581145922     A.U. after   15 cycles
 SCF Done:  E(RM062X) =  -764.580095285     A.U. after   15 cycles
 SCF Done:  E(RM062X) =  -764.582865741     A.U. after   12 cycles
 SCF Done:  E(RM062X) =  -764.585086295     A.U. after   12 cycles
 SCF Done:  E(RM062X) =  -764.584562293     A.U. after   13 cycles
 SCF Done:  E(RM062X) =  -764.585534479     A.U. after   12 cycles
 SCF Done:  E(RM062X) =  -764.585587315     A.U. after   11 cycles
 SCF Done:  E(RM062X) =  -764.585615490     A.U. after   10 cycles
 SCF Done:  E(RM062X) =  -764.585647786     A.U. after   11 cycles
 SCF Done:  E(RM062X) =  -764.585661959     A.U. after    8 cycles
 SCF Done:  E(RM062X) =  -764.585663737     A.U. after    8 cycles
 SCF Done:  E(RM062X) =  -764.585663807     A.U. after    7 cycles
 Optimization completed.
    -- Stationary point found.
 Normal termination of Gaussian 16 at Sat May 24 05:11:18 2025.

 ---------------------------------------------------------------------
 #P Geom=AllCheck Guess=TCheck SCRF=Check GenChk RM062X/def2TZVPP Freq
 ---------------------------------------------------------------------

 Structure from the checkpoint file:  "/tmp/Gau-235766.chk"
 ------------------------------
 Gaussian input prepared by ASE
 ------------------------------
 Charge =  0 Multiplicity = 1

                          Input orientation:
 ---------------------------------------------------------------------
 Center     Atomic      Atomic             Coordinates (Angstroms)
 Number     Number       Type             X           Y           Z
 ---------------------------------------------------------------------
      1          6           0        0.179372   -0.397339   -0.416158
      2          8           0        1.511226   -0.070138   -0.409463
      3          6           0        3.576513    1.090538   -0.418621
      4          6           0        2.036964    1.192553   -0.440763
      5          9           0        4.094571    2.310125   -0.449163
      6          9           0        1.662172    1.858127   -1.546549
      7          9           0        1.635297    1.923008    0.613383
      8          9           0        3.970596    0.479566    0.684974
      9          9           0        3.997335    0.414195   -1.473132
     10          8           0       -0.611778    0.627331   -0.455625
     11          1           0       -0.231121    1.522031   -0.476871
 ---------------------------------------------------------------------

 SCF Done:  E(RM062X) =  -764.585663807     A.U. after    1 cycles

 Isotropic polarizability for W=    0.000000       46.56 Bohr**3.
 End of Minotr F.D. properties file   721 does not exist.

                      1                      2                      3
                      A                      A                      A
 Frequencies --     65.8368                76.2167               143.3928
 Red. masses --     16.0031                 7.7831                13.6404
 Frc consts  --      0.0409                 0.0266                 0.1652
 IR Inten    --      0.0002                 4.4815                 2.3660

                      4                      5                      6
                      A                      A                      A
 Frequencies --    178.2014               229.7255               254.6580
 Red. masses --      4.0571                18.0396                11.2281
 Frc consts  --      0.0759                 0.5609                 0.4290
 IR Inten    --     37.9060                 0.6009                 7.8697

                      7                      8                      9
                      A                      A                      A
 Frequencies --    319.6448               374.9258               387.7871
 Red. masses --     16.2902                18.0530                13.2893
 Frc consts  --      0.9806                 1.4952                 1.1774
 IR Inten    --      1.1852                 0.3331                 2.8347

                     10                     11                     12
                      A                      A                      A
 Frequencies --    516.4238               525.7668               603.0977
 Red. masses --     13.4666                 8.1613                14.3890
 Frc consts  --      2.1160                 1.3292                 3.0836
 IR Inten    --     11.5925                 0.5630                 0.7314

                     13                     14                     15
                      A                      A                      A
 Frequencies --    621.6491               653.6087               690.9308
 Red. masses --      8.3569                 8.4325                 1.7664
 Frc consts  --      1.9028                 2.1225                 0.4968
 IR Inten    --     10.6193                 9.0760                58.4014

                     16                     17                     18
                      A                      A                      A
 Frequencies --    785.2896               846.4232               991.4641
 Red. masses --     10.5228                12.5814                 5.8189
 Frc consts  --      3.8233                 5.3107                 3.3701
 IR Inten    --     28.0331                11.2327                90.1633

                     19                     20                     21
                      A                      A                      A
 Frequencies --   1141.6880              1196.6074              1218.8660
 Red. masses --     11.6467                10.2762                11.7483
 Frc consts  --      8.9443                 8.6693                10.2834
 IR Inten    --    717.7401                68.8479               231.3290

                     22                     23                     24
                      A                      A                      A
 Frequencies --   1296.4896              1309.2061              1314.7155
 Red. masses --     12.2545                13.1340                 1.5822
 Frc consts  --     12.1362                13.2637                 1.6113
 IR Inten    --    281.5172               316.7560               206.3489

                     25                     26                     27
                      A                      A                      A
 Frequencies --   1377.0186              1462.3091              3687.7771
 Red. masses --      8.3736                 9.6461                 1.0633
 Frc consts  --      9.3549                12.1529                 8.5201
 IR Inten    --    183.8064                 7.7506                42.0600

 - Thermochemistry -
 -------------------
 Temperature   298.150 Kelvin.  Pressure   1.00000 Atm.
 Atom     1 has atomic number  6 and mass  12.00000

 Molecular mass:   163.98967 amu.
 Principal axes and moments of inertia in atomic units:
                           1         2         3
     Eigenvalues --   709.019861819.204451895.05506
           X            0.98483  -0.17307  -0.01220
           Y            0.17337   0.98441   0.02978
           Z            0.00685  -0.03144   0.99948
 This molecule is an asymmetric top.
 Rotational symmetry number  1.
 Warning -- assumption of classical behavior for rotation
           may cause significant error
 Rotational temperatures (Kelvin)      0.12216     0.04761     0.04571
 Rotational constants (GHZ):           2.54540     0.99205     0.95234
 Zero-point vibrational energy     133202.5 (Joules/Mol)
                                   31.83616 (Kcal/Mol)
 Warning -- explicit consideration of  12 degrees of freedom as
           vibrations may cause significant error
 Vibrational temperatures:     94.72   109.66   206.31   256.39   330.52
          (Kelvin)            366.40   459.90   539.43   557.94   743.02
                              756.46   867.72   894.41   940.40   994.10
                             1129.86  1217.81  1426.50  1642.63  1721.65
                             1753.68  1865.36  1883.66  1891.58  1981.22
                             2103.94  5305.89

 Zero-point correction=                           0.050734 (Hartree/Particle)
 Thermal correction to Energy=                    0.059709
 Thermal correction to Enthalpy=                  0.060653
 Thermal correction to Gibbs Free Energy=         0.015853
 Sum of electronic and zero-point Energies=           -764.534930
 Sum of electronic and thermal Energies=              -764.525955
 Sum of electronic and thermal Enthalpies=            -764.525010
 Sum of electronic and thermal Free Energies=         -764.569811

                     E (Thermal)             CV                S
                      KCal/Mol        Cal/Mol-Kelvin    Cal/Mol-Kelvin
 Total                   37.468             30.987             94.290
 Electronic               0.000              0.000              0.000
 Translational            0.889              2.981             41.192
 Rotational               0.889              2.981             29.282
 Vibrational             35.691             25.026             23.816
 Vibration     1          0.597              1.971              4.274
 Vibration     2          0.599              1.965              3.986
 Vibration     3          0.616              1.910              2.758
 Vibration     4          0.629              1.869              2.347
 Vibration     5          0.652              1.796              1.881
 Vibration     6          0.665              1.755              1.698
 Vibration     7          0.706              1.636              1.312
 Vibration     8          0.746              1.524              1.060
 Vibration     9          0.756              1.496              1.009
 Vibration    10          0.871              1.214              0.618
 Vibration    11          0.881              1.193              0.597
 Vibration    12          0.961              1.025              0.444

 Optimization completed.
    -- Stationary point found.
 Normal termination of Gaussian 16 at Sat May 24 05:15:36 2025.
