 Gaussian 16, Revision C.01,
 Gaussian 16:  ES64L-G16RevC.01  3-Jul-2019

 -----------------------------------------------------------------
 #P M062X/Def2TZVPP Symm(None) scf(xqc) pop(None) freq opt(CalcFC)
 -----------------------------------------------------------------

 ------------------------------
 Gaussian input prepared by ASE
 ------------------------------
 Symbolic Z-matrix:
 Charge =  0 Multiplicity = 1

 SCF Done:  E(RM062X) =  -764.663975486     A.U. after   13 cycles
 SCF Done:  E(RM062X) =  -764.667262936     A.U. after   15 cycles
 SCF Done:  E(RM062X) =  -764.638494267     A.U. after   14 cycles
 SCF Done:  E(RM062X) =  -764.668173991     A.U. after   12 cycles
 SCF Done:  E(RM062X) =  -764.668263729     A.U. after   11 cycles
 SCF Done:  E(RM062X) =  -764.668268033     A.U. after    9 cycles
 SCF Done:  E(RM062X) =  -764.668268755     A.U. after    8 cycles
 Optimization completed.
    -- Stationary point found.
 Normal termination of Gaussian 16 at Fri May 23 23:26:55 2025.

 ---------------------------------------------------------------------
 #P Geom=AllCheck Guess=TCheck SCRF=Check GenChk RM062X/def2TZVPP Freq
 ---------------------------------------------------------------------

 Structure from the checkpoint file:  "/tmp/Gau-214266.chk"
 ------------------------------
 Gaussian input prepared by ASE
 ------------------------------
 Charge =  0 Multiplicity = 1

                          Input orientation:
 ---------------------------------------------------------------------
 Center     Atomic      Atomic             Coordinates (Angstroms)
 Number     Number       Type             X           Y           Z
 ---------------------------------------------------------------------
      1          6           0        1.547176    0.013473   -0.072212
      2          8           0        2.117882   -0.952581   -0.461992
      3          6           0        0.009206    0.088594    0.043301
      4          6           0       -0.627731    0.960390   -1.061014
      5          9           0       -1.946413    0.867554   -1.003581
      6          9           0       -0.280525    2.230426   -0.914370
      7          9           0       -0.214989    0.537957   -2.251314
      8          9           0       -0.491491   -1.141400   -0.069143
      9          9           0       -0.343312    0.599804    1.232596
     10          8           0        2.100145    1.160264    0.309236
     11          1           0        3.059552    1.083571    0.211480
 ---------------------------------------------------------------------

 SCF Done:  E(RM062X) =  -764.668268755     A.U. after    1 cycles

 Isotropic polarizability for W=    0.000000       43.87 Bohr**3.
 End of Minotr F.D. properties file   721 does not exist.

                      1                      2                      3
                      A                      A                      A
 Frequencies --     22.2962                66.1975               145.0148
 Red. masses --     12.9630                16.5157                10.1918
 Frc consts  --      0.0038                 0.0426                 0.1263
 IR Inten    --      1.4206                 0.4080                 1.0177

                      4                      5                      6
                      A                      A                      A
 Frequencies --    216.9060               248.7647               288.0678
 Red. masses --     17.2892                12.2057                14.6481
 Frc consts  --      0.4793                 0.4450                 0.7162
 IR Inten    --      1.5695                 1.1843                 1.4103

                      7                      8                      9
                      A                      A                      A
 Frequencies --    359.9711               379.9852               384.7968
 Red. masses --     16.5552                15.4457                13.7566
 Frc consts  --      1.2639                 1.3140                 1.2001
 IR Inten    --      0.3574                 0.8779                 0.5793

                     10                     11                     12
                      A                      A                      A
 Frequencies --    502.9504               548.8059               552.9369
 Red. masses --      7.6281                 4.9522                 3.0109
 Frc consts  --      1.1369                 0.8788                 0.5424
 IR Inten    --      5.8217                18.6652                18.4306

                     13                     14                     15
                      A                      A                      A
 Frequencies --    616.6033               636.3810               693.6870
 Red. masses --      6.7386                 3.2883                 4.5650
 Frc consts  --      1.5095                 0.7846                 1.2942
 IR Inten    --     17.8421                73.7893               101.7321

                     16                     17                     18
                      A                      A                      A
 Frequencies --    789.6307               798.0738              1062.7345
 Red. masses --     12.2281                 8.7194                11.7224
 Frc consts  --      4.4922                 3.2721                 7.8004
 IR Inten    --      2.7106                20.9084               124.4967

                     19                     20                     21
                      A                      A                      A
 Frequencies --   1188.4242              1229.7180              1276.8156
 Red. masses --      3.1332                 4.1903                10.5180
 Frc consts  --      2.6073                 3.7334                10.1028
 IR Inten    --    247.2524               188.0162                46.2822

                     22                     23                     24
                      A                      A                      A
 Frequencies --   1290.2688              1297.0154              1383.4017
 Red. masses --     13.2712                 7.3624                 7.8143
 Frc consts  --     13.0173                 7.2973                 8.8112
 IR Inten    --    361.4512               140.8507               126.2668

                     25                     26                     27
                      A                      A                      A
 Frequencies --   1436.3564              1920.9431              3808.5982
 Red. masses --      5.1256                11.7302                 1.0646
 Frc consts  --      6.2304                25.5026                 9.0986
 IR Inten    --     54.0791               331.1160               129.7662

 - Thermochemistry -
 -------------------
 Temperature   298.150 Kelvin.  Pressure   1.00000 Atm.
 Atom     1 has atomic number  6 and mass  12.00000

 Molecular mass:   163.98967 amu.
 Principal axes and moments of inertia in atomic units:
                           1         2         3
     Eigenvalues --   948.185291519.381601603.72008
           X            0.86789   0.45233  -0.20535
           Y           -0.34120   0.84324   0.41537
           Z            0.36104  -0.29043   0.88617
 This molecule is an asymmetric top.
 Rotational symmetry number  1.
 Warning -- assumption of classical behavior for rotation
           may cause significant error
 Rotational temperatures (Kelvin)      0.09135     0.05701     0.05401
 Rotational constants (GHZ):           1.90336     1.18781     1.12535
 Zero-point vibrational energy     138439.9 (Joules/Mol)
                                   33.08793 (Kcal/Mol)
 Warning -- explicit consideration of  13 degrees of freedom as
           vibrations may cause significant error
 Vibrational temperatures:     32.08    95.24   208.64   312.08   357.92
          (Kelvin)            414.47   517.92   546.71   553.64   723.63
                              789.61   795.55   887.15   915.61   998.06
                             1136.10  1148.25  1529.04  1709.88  1769.29
                             1837.05  1856.41  1866.12  1990.41  2066.60
                             2763.81  5479.72

 Zero-point correction=                           0.052729 (Hartree/Particle)
 Thermal correction to Energy=                    0.061651
 Thermal correction to Enthalpy=                  0.062595
 Thermal correction to Gibbs Free Energy=         0.017083
 Sum of electronic and zero-point Energies=           -764.615540
 Sum of electronic and thermal Energies=              -764.606618
 Sum of electronic and thermal Enthalpies=            -764.605673
 Sum of electronic and thermal Free Energies=         -764.651186

                     E (Thermal)             CV                S
                      KCal/Mol        Cal/Mol-Kelvin    Cal/Mol-Kelvin
 Total                   38.687             30.702             95.790
 Electronic               0.000              0.000              0.000
 Translational            0.889              2.981             41.192
 Rotational               0.889              2.981             29.226
 Vibrational             36.909             24.741             25.372
 Vibration     1          0.593              1.985              6.418
 Vibration     2          0.598              1.970              4.263
 Vibration     3          0.616              1.908              2.737
 Vibration     4          0.646              1.815              1.985
 Vibration     5          0.662              1.765              1.739
 Vibration     6          0.685              1.696              1.485
 Vibration     7          0.734              1.555              1.122
 Vibration     8          0.750              1.513              1.039
 Vibration     9          0.754              1.503              1.020
 Vibration    10          0.858              1.243              0.651
 Vibration    11          0.904              1.142              0.547
 Vibration    12          0.908              1.133              0.538
 Vibration    13          0.976              0.997              0.422

                           ! Non-Optimized Parameters !
 Normal termination of Gaussian 16 at Fri May 23 23:30:06 2025.
