 Gaussian 16, Revision C.01,
 Gaussian 16:  ES64L-G16RevC.01  3-Jul-2019

 -----------------------------------------------------------------
 #P M062X/Def2TZVPP Symm(None) scf(xqc) pop(None) freq opt(CalcFC)
 -----------------------------------------------------------------

 ------------------------------
 Gaussian input prepared by ASE
 ------------------------------
 Symbolic Z-matrix:
 Charge =  0 Multiplicity = 1

 SCF Done:  E(RM062X) =  -764.598257913     A.U. after   13 cycles
 SCF Done:  E(RM062X) =  -764.598258266     A.U. after    8 cycles
 Optimization completed.
    -- Stationary point found.
 Normal termination of Gaussian 16 at Sat May 24 05:05:29 2025.

 ---------------------------------------------------------------------
 #P Geom=AllCheck Guess=TCheck SCRF=Check GenChk RM062X/def2TZVPP Freq
 ---------------------------------------------------------------------

 Structure from the checkpoint file:  "/tmp/Gau-166138.chk"
 ------------------------------
 Gaussian input prepared by ASE
 ------------------------------
 Charge =  0 Multiplicity = 1

                          Input orientation:
 ---------------------------------------------------------------------
 Center     Atomic      Atomic             Coordinates (Angstroms)
 Number     Number       Type             X           Y           Z
 ---------------------------------------------------------------------
      1          6           0       -0.000157    0.000647   -0.004263
      2          8           0        1.358829   -0.000344    0.001113
      3          6           0        2.051440    1.855447    1.412808
      4          6           0        1.998144    1.225033    0.000627
      5          9           0        2.754039    2.977390    1.367772
      6          9           0        3.246491    0.994416   -0.394609
      7          9           0        1.431291    2.079863   -0.838327
      8          9           0        0.835098    2.123497    1.853335
      9          9           0        2.638848    1.011332    2.251303
     10          8           0       -0.358139   -1.241090    0.006732
     11          1           0        0.399204   -1.858390    0.016435
 ---------------------------------------------------------------------

 SCF Done:  E(RM062X) =  -764.598258266     A.U. after    1 cycles

 Isotropic polarizability for W=    0.000000       46.91 Bohr**3.
 End of Minotr F.D. properties file   721 does not exist.

                      1                      2                      3
                      A                      A                      A
 Frequencies --     46.4087                95.1232               119.2661
 Red. masses --     14.9482                15.0298                 4.0828
 Frc consts  --      0.0190                 0.0801                 0.0342
 IR Inten    --      2.3181                 0.7010                26.2865

                      4                      5                      6
                      A                      A                      A
 Frequencies --    209.7248               224.6538               245.6878
 Red. masses --     13.9670                16.9090                14.0712
 Frc consts  --      0.3620                 0.5028                 0.5004
 IR Inten    --      1.8711                 1.6236                 7.6271

                      7                      8                      9
                      A                      A                      A
 Frequencies --    354.0984               375.1125               392.5639
 Red. masses --     17.1808                15.5091                14.8747
 Frc consts  --      1.2692                 1.2858                 1.3506
 IR Inten    --      0.4371                 1.4648                 1.2605

                     10                     11                     12
                      A                      A                      A
 Frequencies --    443.0783               529.4665               558.8564
 Red. masses --      9.8098                12.8652                14.4941
 Frc consts  --      1.1347                 2.1249                 2.6671
 IR Inten    --      7.0760                 1.1194                 2.7926

                     13                     14                     15
                      A                      A                      A
 Frequencies --    623.4315               685.6045               759.8881
 Red. masses --     14.5885                15.0097                10.8077
 Frc consts  --      3.3407                 4.1569                 3.6769
 IR Inten    --      2.0318                11.2650                27.6102

                     16                     17                     18
                      A                      A                      A
 Frequencies --    786.3681               864.8620              1084.8663
 Red. masses --      1.3020                 7.9565                 6.5317
 Frc consts  --      0.4744                 3.5064                 4.5292
 IR Inten    --    120.6042                19.8692                79.9243

                     19                     20                     21
                      A                      A                      A
 Frequencies --   1146.0786              1225.0332              1287.9857
 Red. masses --     12.4462                 5.2027                12.2156
 Frc consts  --      9.6320                 4.6002                11.9395
 IR Inten    --    480.7870               552.9703               144.4330

                     22                     23                     24
                      A                      A                      A
 Frequencies --   1297.5102              1304.5413              1363.5301
 Red. masses --      8.3233                11.5637                 2.3268
 Frc consts  --      8.2559                11.5948                 2.5488
 IR Inten    --    258.5591               420.8988               112.0935

                     25                     26                     27
                      A                      A                      A
 Frequencies --   1421.7009              1439.6888              3620.4858
 Red. masses --      6.0405                12.5428                 1.0625
 Frc consts  --      7.1935                15.3173                 8.2053
 IR Inten    --     67.8927                 1.5519                23.2129

 - Thermochemistry -
 -------------------
 Temperature   298.150 Kelvin.  Pressure   1.00000 Atm.
 Atom     1 has atomic number  6 and mass  12.00000

 Molecular mass:   163.98967 amu.
 Principal axes and moments of inertia in atomic units:
                           1         2         3
     Eigenvalues --   877.719971701.607961911.31367
           X            0.59064  -0.46436  -0.65994
           Y            0.71618  -0.07516   0.69386
           Z            0.37180   0.88245  -0.28817
 This molecule is an asymmetric top.
 Rotational symmetry number  1.
 Warning -- assumption of classical behavior for rotation
           may cause significant error
 Rotational temperatures (Kelvin)      0.09868     0.05090     0.04532
 Rotational constants (GHZ):           2.05617     1.06061     0.94424
 Zero-point vibrational energy     134613.5 (Joules/Mol)
                                   32.17339 (Kcal/Mol)
 Warning -- explicit consideration of  12 degrees of freedom as
           vibrations may cause significant error
 Vibrational temperatures:     66.77   136.86   171.60   301.75   323.23
          (Kelvin)            353.49   509.47   539.70   564.81   637.49
                              761.78   804.07   896.98   986.43  1093.31
                             1131.41  1244.34  1560.88  1648.95  1762.55
                             1853.12  1866.83  1876.94  1961.82  2045.51
                             2071.39  5209.07

 Zero-point correction=                           0.051272 (Hartree/Particle)
 Thermal correction to Energy=                    0.060234
 Thermal correction to Enthalpy=                  0.061178
 Thermal correction to Gibbs Free Energy=         0.016154
 Sum of electronic and zero-point Energies=           -764.546987
 Sum of electronic and thermal Energies=              -764.538024
 Sum of electronic and thermal Enthalpies=            -764.537080
 Sum of electronic and thermal Free Energies=         -764.582104

                     E (Thermal)             CV                S
                      KCal/Mol        Cal/Mol-Kelvin    Cal/Mol-Kelvin
 Total                   37.798             30.750             94.762
 Electronic               0.000              0.000              0.000
 Translational            0.889              2.981             41.192
 Rotational               0.889              2.981             29.436
 Vibrational             36.020             24.788             24.133
 Vibration     1          0.595              1.979              4.965
 Vibration     2          0.603              1.953              3.552
 Vibration     3          0.609              1.933              3.112
 Vibration     4          0.642              1.826              2.046
 Vibration     5          0.649              1.804              1.921
 Vibration     6          0.660              1.770              1.761
 Vibration     7          0.730              1.567              1.148
 Vibration     8          0.746              1.523              1.059
 Vibration     9          0.760              1.486              0.990
 Vibration    10          0.803              1.376              0.817
 Vibration    11          0.884              1.185              0.588
 Vibration    12          0.914              1.120              0.526

 Optimization completed.
    -- Stationary point found.
 Normal termination of Gaussian 16 at Sat May 24 05:08:55 2025.
