 Gaussian 16, Revision C.01,
 Gaussian 16:  ES64L-G16RevC.01  3-Jul-2019

 -----------------------------------------------------------------
 #P M062X/Def2TZVPP Symm(None) scf(xqc) pop(None) freq opt(CalcFC)
 -----------------------------------------------------------------

 ------------------------------
 Gaussian input prepared by ASE
 ------------------------------
 Symbolic Z-matrix:
 Charge =  0 Multiplicity = 1

 SCF Done:  E(RM062X) =  -764.615961598     A.U. after   13 cycles
 SCF Done:  E(RM062X) =  -764.621189749     A.U. after   14 cycles
 SCF Done:  E(RM062X) =  -764.610164161     A.U. after   13 cycles
 SCF Done:  E(RM062X) =  -764.621476635     A.U. after   11 cycles
 SCF Done:  E(RM062X) =  -764.621445883     A.U. after   12 cycles
 SCF Done:  E(RM062X) =  -764.621527315     A.U. after   11 cycles
 SCF Done:  E(RM062X) =  -764.621537660     A.U. after   10 cycles
 SCF Done:  E(RM062X) =  -764.621575411     A.U. after   11 cycles
 SCF Done:  E(RM062X) =  -764.620582554     A.U. after   14 cycles
 SCF Done:  E(RM062X) =  -764.621351804     A.U. after   12 cycles
 SCF Done:  E(RM062X) =  -764.621654523     A.U. after   11 cycles
 SCF Done:  E(RM062X) =  -764.621708935     A.U. after   13 cycles
 SCF Done:  E(RM062X) =  -764.621859563     A.U. after   12 cycles
 SCF Done:  E(RM062X) =  -764.621992414     A.U. after   11 cycles
 SCF Done:  E(RM062X) =  -764.622061266     A.U. after   11 cycles
 SCF Done:  E(RM062X) =  -764.622092896     A.U. after   10 cycles
 SCF Done:  E(RM062X) =  -764.622098281     A.U. after   10 cycles
 SCF Done:  E(RM062X) =  -764.622098996     A.U. after    8 cycles
 SCF Done:  E(RM062X) =  -764.622099056     A.U. after    6 cycles
 Optimization completed.
    -- Stationary point found.
 Normal termination of Gaussian 16 at Sat May 24 07:46:54 2025.

 ---------------------------------------------------------------------
 #P Geom=AllCheck Guess=TCheck SCRF=Check GenChk RM062X/def2TZVPP Freq
 ---------------------------------------------------------------------

 Structure from the checkpoint file:  "/tmp/Gau-162187.chk"
 ------------------------------
 Gaussian input prepared by ASE
 ------------------------------
 Charge =  0 Multiplicity = 1

                          Input orientation:
 ---------------------------------------------------------------------
 Center     Atomic      Atomic             Coordinates (Angstroms)
 Number     Number       Type             X           Y           Z
 ---------------------------------------------------------------------
      1          6           0        1.447485    0.140077   -0.144133
      2          8           0        0.100131    0.254243   -0.325047
      3          6           0        1.964465   -0.935715    0.421237
      4          6           0       -0.587466    0.912902    0.653512
      5          9           0       -0.114290    2.134592    0.858773
      6          9           0       -1.841466    0.992159    0.264630
      7          9           0       -0.532403    0.261065    1.809771
      8          9           0        3.271815   -1.098809    0.543825
      9          9           0        1.285373   -1.944650    0.905548
     10          8           0        2.146906    1.172063   -0.657599
     11          1           0        3.088699    1.041693   -0.505830
 ---------------------------------------------------------------------

 SCF Done:  E(RM062X) =  -764.622099056     A.U. after    1 cycles

 Isotropic polarizability for W=    0.000000       45.67 Bohr**3.
 End of Minotr F.D. properties file   721 does not exist.

                      1                      2                      3
                      A                      A                      A
 Frequencies --     29.8238                78.1239               124.2956
 Red. masses --     14.9984                14.4964                16.9230
 Frc consts  --      0.0079                 0.0521                 0.1540
 IR Inten    --      0.2247                 0.5339                 0.9021

                      4                      5                      6
                      A                      A                      A
 Frequencies --    180.4365               205.0465               248.2032
 Red. masses --      1.7208                 8.5967                 2.6683
 Frc consts  --      0.0330                 0.2130                 0.0969
 IR Inten    --     50.5567                12.2462                52.9658

                      7                      8                      9
                      A                      A                      A
 Frequencies --    343.2292               372.0044               435.6746
 Red. masses --      9.8428                17.3104                12.4833
 Frc consts  --      0.6832                 1.4114                 1.3961
 IR Inten    --      6.3660                 0.5146                 6.6828

                     10                     11                     12
                      A                      A                      A
 Frequencies --    466.8711               540.4877               557.8930
 Red. masses --     14.6342                13.9663                15.8336
 Frc consts  --      1.8794                 2.4038                 2.9036
 IR Inten    --      2.4844                 2.7694                 0.7885

                     13                     14                     15
                      A                      A                      A
 Frequencies --    604.5059               645.2194               651.4223
 Red. masses --     12.8570                10.3695                15.9255
 Frc consts  --      2.7681                 2.5435                 3.9817
 IR Inten    --      2.5236                11.7955                 5.4199

                     16                     17                     18
                      A                      A                      A
 Frequencies --    735.7240               849.5195               939.4084
 Red. masses --     14.3318                15.7764                12.5368
 Frc consts  --      4.5707                 6.7082                 6.5184
 IR Inten    --      8.0141                 7.9442                26.1451

                     19                     20                     21
                      A                      A                      A
 Frequencies --   1157.6348              1254.7510              1261.3467
 Red. masses --      2.5001                 6.4022                 8.8351
 Frc consts  --      1.9740                 5.9388                 8.2819
 IR Inten    --    110.4478                92.2922               413.3773

                     22                     23                     24
                      A                      A                      A
 Frequencies --   1276.3803              1343.0977              1380.4248
 Red. masses --      4.4290                12.9620                10.8221
 Frc consts  --      4.2512                13.7764                12.1503
 IR Inten    --    747.9652               411.1438               308.6054

                     25                     26                     27
                      A                      A                      A
 Frequencies --   1416.6883              1927.5280              3870.9884
 Red. masses --      4.2739                11.6411                 1.0657
 Frc consts  --      5.0539                25.4828                 9.4089
 IR Inten    --     28.0005                 7.7506               106.1457

 - Thermochemistry -
 -------------------
 Temperature   298.150 Kelvin.  Pressure   1.00000 Atm.
 Atom     1 has atomic number  6 and mass  12.00000

 Molecular mass:   163.98967 amu.
 Principal axes and moments of inertia in atomic units:
                           1         2         3
     Eigenvalues --   756.156921943.589572334.93398
           X            0.84357   0.44171   0.30540
           Y           -0.53248   0.76173   0.36910
           Z           -0.06960  -0.47398   0.87778
 This molecule is an asymmetric top.
 Rotational symmetry number  1.
 Warning -- assumption of classical behavior for rotation
           may cause significant error
 Rotational temperatures (Kelvin)      0.11454     0.04456     0.03709
 Rotational constants (GHZ):           2.38673     0.92856     0.77293
 Zero-point vibrational energy     136952.9 (Joules/Mol)
                                   32.73252 (Kcal/Mol)
 Warning -- explicit consideration of  13 degrees of freedom as
           vibrations may cause significant error
 Vibrational temperatures:     42.91   112.40   178.83   259.61   295.02
          (Kelvin)            357.11   493.83   535.23   626.84   671.72
                              777.64   802.68   869.75   928.33   937.25
                             1058.54  1222.27  1351.60  1665.58  1805.31
                             1814.80  1836.43  1932.42  1986.12  2038.30
                             2773.28  5569.49

 Zero-point correction=                           0.052163 (Hartree/Particle)
 Thermal correction to Energy=                    0.061309
 Thermal correction to Enthalpy=                  0.062253
 Thermal correction to Gibbs Free Energy=         0.016320
 Sum of electronic and zero-point Energies=           -764.569936
 Sum of electronic and thermal Energies=              -764.560790
 Sum of electronic and thermal Enthalpies=            -764.559846
 Sum of electronic and thermal Free Energies=         -764.605779

                     E (Thermal)             CV                S
                      KCal/Mol        Cal/Mol-Kelvin    Cal/Mol-Kelvin
 Total                   38.472             31.180             96.675
 Electronic               0.000              0.000              0.000
 Translational            0.889              2.981             41.192
 Rotational               0.889              2.981             29.619
 Vibrational             36.695             25.218             25.864
 Vibration     1          0.594              1.984              5.841
 Vibration     2          0.599              1.964              3.937
 Vibration     3          0.610              1.929              3.032
 Vibration     4          0.629              1.866              2.324
 Vibration     5          0.640              1.833              2.087
 Vibration     6          0.662              1.766              1.743
 Vibration     7          0.722              1.589              1.197
 Vibration     8          0.744              1.530              1.072
 Vibration     9          0.796              1.392              0.840
 Vibration    10          0.824              1.324              0.746
 Vibration    11          0.896              1.161              0.564
 Vibration    12          0.913              1.122              0.528
 Vibration    13          0.963              1.022              0.442

 Optimization completed.
    -- Stationary point found.
 Normal termination of Gaussian 16 at Sat May 24 07:50:22 2025.
