 Gaussian 16, Revision C.01,
 Gaussian 16:  ES64L-G16RevC.01  3-Jul-2019

 -----------------------------------------------------------------
 #P M062X/Def2TZVPP Symm(None) scf(xqc) pop(None) freq opt(CalcFC)
 -----------------------------------------------------------------

 ------------------------------
 Gaussian input prepared by ASE
 ------------------------------
 Symbolic Z-matrix:
 Charge =  0 Multiplicity = 1

 SCF Done:  E(RM062X) =  -764.653088092     A.U. after   14 cycles
 SCF Done:  E(RM062X) =  -764.662552955     A.U. after   14 cycles
 SCF Done:  E(RM062X) =  -764.663458454     A.U. after   13 cycles
 SCF Done:  E(RM062X) =  -764.663712652     A.U. after   13 cycles
 SCF Done:  E(RM062X) =  -764.663696326     A.U. after   11 cycles
 SCF Done:  E(RM062X) =  -764.663935646     A.U. after   13 cycles
 SCF Done:  E(RM062X) =  -764.664310323     A.U. after   15 cycles
 SCF Done:  E(RM062X) =  -764.664409879     A.U. after   11 cycles
 SCF Done:  E(RM062X) =  -764.664421343     A.U. after   13 cycles
 SCF Done:  E(RM062X) =  -764.664451714     A.U. after   13 cycles
 SCF Done:  E(RM062X) =  -764.664548992     A.U. after   13 cycles
 SCF Done:  E(RM062X) =  -764.664498754     A.U. after   13 cycles
 SCF Done:  E(RM062X) =  -764.664563265     A.U. after   12 cycles
 SCF Done:  E(RM062X) =  -764.664565459     A.U. after    9 cycles
 Optimization completed.
    -- Stationary point found.
 Normal termination of Gaussian 16 at Fri May 23 23:32:18 2025.

 ---------------------------------------------------------------------
 #P Geom=AllCheck Guess=TCheck SCRF=Check GenChk RM062X/def2TZVPP Freq
 ---------------------------------------------------------------------

 Structure from the checkpoint file:  "/tmp/Gau-41166.chk"
 ------------------------------
 Gaussian input prepared by ASE
 ------------------------------
 Charge =  0 Multiplicity = 1

                          Input orientation:
 ---------------------------------------------------------------------
 Center     Atomic      Atomic             Coordinates (Angstroms)
 Number     Number       Type             X           Y           Z
 ---------------------------------------------------------------------
      1          6           0        1.555588    0.026849    0.176703
      2          8           0        2.171205   -0.645001    0.934058
      3          6           0        0.006409    0.000775    0.184070
      4          6           0       -0.552110   -1.281416   -0.465557
      5          9           0       -1.872587   -1.217254   -0.531202
      6          9           0       -0.064705   -1.384984   -1.701151
      7          9           0       -0.203342   -2.348407    0.227353
      8          9           0       -0.444334    0.081612    1.433980
      9          9           0       -0.481575    1.048616   -0.522407
     10          8           0        2.103770    0.823568   -0.734744
     11          1           0        1.433426    1.315303   -1.224570
 ---------------------------------------------------------------------

 SCF Done:  E(RM062X) =  -764.664565459     A.U. after    1 cycles

 Isotropic polarizability for W=    0.000000       43.65 Bohr**3.
 End of Minotr F.D. properties file   721 does not exist.

                      1                      2                      3
                      A                      A                      A
 Frequencies --     30.7538                63.9037               142.6464
 Red. masses --      9.2994                15.1409                16.6763
 Frc consts  --      0.0052                 0.0364                 0.1999
 IR Inten    --      4.2361                 0.7862                 2.2895

                      4                      5                      6
                      A                      A                      A
 Frequencies --    214.7862               268.1481               293.6855
 Red. masses --     17.0133                13.8917                17.3611
 Frc consts  --      0.4624                 0.5885                 0.8823
 IR Inten    --      3.8078                 5.3734                 6.1172

                      7                      8                      9
                      A                      A                      A
 Frequencies --    360.3209               377.7434               395.6792
 Red. masses --     16.9669                 9.4641                15.8573
 Frc consts  --      1.2979                 0.7957                 1.4627
 IR Inten    --      0.4662                 6.9009                 2.6499

                     10                     11                     12
                      A                      A                      A
 Frequencies --    515.5095               527.1263               549.1656
 Red. masses --      7.2794                 1.4285                 7.6352
 Frc consts  --      1.1398                 0.2339                 1.3567
 IR Inten    --     25.5629                89.2279                19.0024

                     13                     14                     15
                      A                      A                      A
 Frequencies --    593.3320               625.5377               710.9179
 Red. masses --      8.3715                14.3790                 9.2462
 Frc consts  --      1.7364                 3.3150                 2.7533
 IR Inten    --      4.3958                 2.8727                34.0471

                     16                     17                     18
                      A                      A                      A
 Frequencies --    781.3826               798.6855              1055.7613
 Red. masses --     12.1637                13.0171                13.3072
 Frc consts  --      4.3757                 4.8923                 8.7391
 IR Inten    --      1.5371                14.9150               146.2951

                     19                     20                     21
                      A                      A                      A
 Frequencies --   1178.1274              1251.0105              1266.7133
 Red. masses --      5.2394                 2.2536                11.0490
 Frc consts  --      4.2846                 2.0780                10.4455
 IR Inten    --     96.7530               115.0868               311.2887

                     22                     23                     24
                      A                      A                      A
 Frequencies --   1282.2050              1309.6486              1377.1767
 Red. masses --      5.1786                13.1230                 6.6393
 Frc consts  --      5.0162                13.2615                 7.4191
 IR Inten    --     63.6361               263.0106               321.6953

                     25                     26                     27
                      A                      A                      A
 Frequencies --   1414.2777              1942.2839              3835.7106
 Red. masses --      6.0323                11.4698                 1.0657
 Frc consts  --      7.1089                25.4935                 9.2379
 IR Inten    --     98.2919               292.0701               138.4962

 - Thermochemistry -
 -------------------
 Temperature   298.150 Kelvin.  Pressure   1.00000 Atm.
 Atom     1 has atomic number  6 and mass  12.00000

 Molecular mass:   163.98967 amu.
 Principal axes and moments of inertia in atomic units:
                           1         2         3
     Eigenvalues --   948.495961533.843161593.43238
           X            0.83010  -0.50621  -0.23383
           Y            0.52839   0.84806   0.03986
           Z            0.17813  -0.15664   0.97146
 This molecule is an asymmetric top.
 Rotational symmetry number  1.
 Warning -- assumption of classical behavior for rotation
           may cause significant error
 Rotational temperatures (Kelvin)      0.09132     0.05647     0.05436
 Rotational constants (GHZ):           1.90274     1.17661     1.13261
 Zero-point vibrational energy     138541.0 (Joules/Mol)
                                   33.11208 (Kcal/Mol)
 Warning -- explicit consideration of  13 degrees of freedom as
           vibrations may cause significant error
 Vibrational temperatures:     44.25    91.94   205.24   309.03   385.81
          (Kelvin)            422.55   518.42   543.49   569.29   741.70
                              758.42   790.13   853.67   900.01  1022.85
                             1124.24  1149.13  1519.00  1695.06  1799.93
                             1822.52  1844.81  1884.29  1981.45  2034.83
                             2794.51  5518.73

 Zero-point correction=                           0.052767 (Hartree/Particle)
 Thermal correction to Energy=                    0.061663
 Thermal correction to Enthalpy=                  0.062607
 Thermal correction to Gibbs Free Energy=         0.017400
 Sum of electronic and zero-point Energies=           -764.611798
 Sum of electronic and thermal Energies=              -764.602902
 Sum of electronic and thermal Enthalpies=            -764.601958
 Sum of electronic and thermal Free Energies=         -764.647165

                     E (Thermal)             CV                S
                      KCal/Mol        Cal/Mol-Kelvin    Cal/Mol-Kelvin
 Total                   38.694             30.737             95.146
 Electronic               0.000              0.000              0.000
 Translational            0.889              2.981             41.192
 Rotational               0.889              2.981             29.229
 Vibrational             36.917             24.776             24.725
 Vibration     1          0.594              1.984              5.780
 Vibration     2          0.597              1.972              4.333
 Vibration     3          0.616              1.911              2.768
 Vibration     4          0.645              1.818              2.003
 Vibration     5          0.673              1.732              1.608
 Vibration     6          0.688              1.686              1.453
 Vibration     7          0.735              1.554              1.121
 Vibration     8          0.748              1.518              1.048
 Vibration     9          0.762              1.479              0.979
 Vibration    10          0.871              1.216              0.620
 Vibration    11          0.882              1.190              0.594
 Vibration    12          0.904              1.142              0.546
 Vibration    13          0.951              1.046              0.461

                           ! Non-Optimized Parameters !
 Normal termination of Gaussian 16 at Fri May 23 23:35:50 2025.
