 Gaussian 16, Revision C.01,
 Gaussian 16:  ES64L-G16RevC.01  3-Jul-2019

 -----------------------------------------------------------------
 #P M062X/Def2TZVPP Symm(None) scf(xqc) pop(None) freq opt(CalcFC)
 -----------------------------------------------------------------

 ------------------------------
 Gaussian input prepared by ASE
 ------------------------------
 Symbolic Z-matrix:
 Charge =  0 Multiplicity = 1

 SCF Done:  E(RM062X) =  -764.619651918     A.U. after   13 cycles
 SCF Done:  E(RM062X) =  -764.621420230     A.U. after   14 cycles
 SCF Done:  E(RM062X) =  -764.621879449     A.U. after   14 cycles
 SCF Done:  E(RM062X) =  -764.622072697     A.U. after   12 cycles
 SCF Done:  E(RM062X) =  -764.622095618     A.U. after    9 cycles
 SCF Done:  E(RM062X) =  -764.622101493     A.U. after    8 cycles
 SCF Done:  E(RM062X) =  -764.622101621     A.U. after    7 cycles
 Optimization completed.
    -- Stationary point found.
 Normal termination of Gaussian 16 at Sat May 24 07:38:21 2025.

 ---------------------------------------------------------------------
 #P Geom=AllCheck Guess=TCheck SCRF=Check GenChk RM062X/def2TZVPP Freq
 ---------------------------------------------------------------------

 Structure from the checkpoint file:  "/tmp/Gau-167183.chk"
 ------------------------------
 Gaussian input prepared by ASE
 ------------------------------
 Charge =  0 Multiplicity = 1

                          Input orientation:
 ---------------------------------------------------------------------
 Center     Atomic      Atomic             Coordinates (Angstroms)
 Number     Number       Type             X           Y           Z
 ---------------------------------------------------------------------
      1          6           0        1.382287   -0.023665    0.038816
      2          8           0        0.019386    0.029375    0.007304
      3          6           0        2.010103   -1.177885    0.172203
      4          6           0       -0.557155    0.015306   -1.230284
      5          9           0       -0.318199   -1.126871   -1.865208
      6          9           0       -1.854473    0.148138   -1.059006
      7          9           0       -0.113369    1.001495   -1.997823
      8          9           0        3.327472   -1.247471    0.274259
      9          9           0        1.439666   -2.354830    0.228097
     10          8           0        1.967760    1.190144   -0.003311
     11          1           0        2.925771    1.096517    0.018312
 ---------------------------------------------------------------------

 SCF Done:  E(RM062X) =  -764.622101621     A.U. after    1 cycles

 Isotropic polarizability for W=    0.000000       45.67 Bohr**3.
 End of Minotr F.D. properties file   721 does not exist.

                      1                      2                      3
                      A                      A                      A
 Frequencies --     34.9825                76.9039               125.0587
 Red. masses --     14.8556                14.9584                16.9642
 Frc consts  --      0.0107                 0.0521                 0.1563
 IR Inten    --      0.2267                 0.4500                 0.8619

                      4                      5                      6
                      A                      A                      A
 Frequencies --    183.0058               205.6402               250.2870
 Red. masses --      1.8314                 8.3189                 2.4557
 Frc consts  --      0.0361                 0.2073                 0.0906
 IR Inten    --     46.0456                12.5240                57.0265

                      7                      8                      9
                      A                      A                      A
 Frequencies --    343.2755               371.9071               436.4495
 Red. masses --      9.8637                17.3093                12.4755
 Frc consts  --      0.6848                 1.4106                 1.4002
 IR Inten    --      6.3697                 0.4968                 6.7409

                     10                     11                     12
                      A                      A                      A
 Frequencies --    466.9764               540.6261               558.0896
 Red. masses --     14.6214                13.9838                15.8287
 Frc consts  --      1.8786                 2.4081                 2.9047
 IR Inten    --      2.4728                 2.7436                 0.8011

                     13                     14                     15
                      A                      A                      A
 Frequencies --    604.6550               645.2389               651.4554
 Red. masses --     12.8371                10.3465                16.0365
 Frc consts  --      2.7652                 2.5380                 4.0099
 IR Inten    --      2.5250                12.0629                 5.1697

                     16                     17                     18
                      A                      A                      A
 Frequencies --    735.8187               849.4440               939.5261
 Red. masses --     14.3385                15.7906                12.6138
 Frc consts  --      4.5740                 6.7130                 6.5602
 IR Inten    --      7.9473                 7.8314                25.9046

                     19                     20                     21
                      A                      A                      A
 Frequencies --   1158.3952              1255.3080              1261.1223
 Red. masses --      2.5409                 6.6122                 8.9601
 Frc consts  --      2.0088                 6.1390                 8.3961
 IR Inten    --    112.6024               104.2598               402.6077

                     22                     23                     24
                      A                      A                      A
 Frequencies --   1277.0945              1343.2903              1380.4324
 Red. masses --      4.2267                12.9656                10.7904
 Frc consts  --      4.0616                13.7843                12.1149
 IR Inten    --    745.2439               413.0573               306.6774

                     25                     26                     27
                      A                      A                      A
 Frequencies --   1416.6916              1927.4569              3869.7855
 Red. masses --      4.2176                11.6374                 1.0657
 Frc consts  --      4.9873                25.4728                 9.4032
 IR Inten    --     27.7600                 7.8724               106.4526

 - Thermochemistry -
 -------------------
 Temperature   298.150 Kelvin.  Pressure   1.00000 Atm.
 Atom     1 has atomic number  6 and mass  12.00000

 Molecular mass:   163.98967 amu.
 Principal axes and moments of inertia in atomic units:
                           1         2         3
     Eigenvalues --   756.166631943.083682334.38739
           X            0.84671   0.34596  -0.40423
           Y           -0.33142   0.93728   0.10799
           Z            0.41623   0.04253   0.90826
 This molecule is an asymmetric top.
 Rotational symmetry number  1.
 Warning -- assumption of classical behavior for rotation
           may cause significant error
 Rotational temperatures (Kelvin)      0.11454     0.04458     0.03710
 Rotational constants (GHZ):           2.38670     0.92880     0.77311
 Zero-point vibrational energy     137025.8 (Joules/Mol)
                                   32.74994 (Kcal/Mol)
 Warning -- explicit consideration of  13 degrees of freedom as
           vibrations may cause significant error
 Vibrational temperatures:     50.33   110.65   179.93   263.30   295.87
          (Kelvin)            360.11   493.90   535.09   627.95   671.87
                              777.84   802.97   869.96   928.35   937.30
                             1058.68  1222.16  1351.77  1666.67  1806.11
                             1814.47  1837.45  1932.70  1986.13  2038.30
                             2773.18  5567.76

 Zero-point correction=                           0.052190 (Hartree/Particle)
 Thermal correction to Energy=                    0.061318
 Thermal correction to Enthalpy=                  0.062262
 Thermal correction to Gibbs Free Energy=         0.016494
 Sum of electronic and zero-point Energies=           -764.569911
 Sum of electronic and thermal Energies=              -764.560784
 Sum of electronic and thermal Enthalpies=            -764.559840
 Sum of electronic and thermal Free Energies=         -764.605608

                     E (Thermal)             CV                S
                      KCal/Mol        Cal/Mol-Kelvin    Cal/Mol-Kelvin
 Total                   38.477             31.166             96.327
 Electronic               0.000              0.000              0.000
 Translational            0.889              2.981             41.192
 Rotational               0.889              2.981             29.618
 Vibrational             36.700             25.205             25.516
 Vibration     1          0.594              1.982              5.525
 Vibration     2          0.599              1.965              3.968
 Vibration     3          0.610              1.928              3.021
 Vibration     4          0.631              1.863              2.298
 Vibration     5          0.640              1.832              2.082
 Vibration     6          0.663              1.762              1.729
 Vibration     7          0.722              1.589              1.197
 Vibration     8          0.744              1.530              1.072
 Vibration     9          0.797              1.391              0.838
 Vibration    10          0.824              1.323              0.746
 Vibration    11          0.896              1.160              0.564
 Vibration    12          0.914              1.122              0.528
 Vibration    13          0.963              1.022              0.442

 Optimization completed.
    -- Stationary point found.
 Normal termination of Gaussian 16 at Sat May 24 07:41:38 2025.
