 Gaussian 16, Revision C.01,
 Gaussian 16:  ES64L-G16RevC.01  3-Jul-2019

 -----------------------------------------------------------------
 #P M062X/Def2TZVPP Symm(None) scf(xqc) pop(None) freq opt(CalcFC)
 -----------------------------------------------------------------

 ------------------------------
 Gaussian input prepared by ASE
 ------------------------------
 Symbolic Z-matrix:
 Charge =  0 Multiplicity = 1

 SCF Done:  E(RM062X) =  -764.307523831     A.U. after   16 cycles
 SCF Done:  E(RM062X) =  -764.359790980     A.U. after   15 cycles
 SCF Done:  E(RM062X) =  -764.411808699     A.U. after   14 cycles
 SCF Done:  E(RM062X) =  -764.461464390     A.U. after   14 cycles
 SCF Done:  E(RM062X) =  -764.475221542     A.U. after   15 cycles
 SCF Done:  E(RM062X) =  -764.474648776     A.U. after   15 cycles
 SCF Done:  E(RM062X) =  -764.481615442     A.U. after   14 cycles
 SCF Done:  E(RM062X) =  -764.482165407     A.U. after   11 cycles
 SCF Done:  E(RM062X) =  -764.482411755     A.U. after   12 cycles
 SCF Done:  E(RM062X) =  -764.482635447     A.U. after   12 cycles
 SCF Done:  E(RM062X) =  -764.491815712     A.U. after   12 cycles
 SCF Done:  E(RM062X) =  -764.491847243     A.U. after   11 cycles
 SCF Done:  E(RM062X) =  -764.491881792     A.U. after   11 cycles
 SCF Done:  E(RM062X) =  -764.491913776     A.U. after   12 cycles
 SCF Done:  E(RM062X) =  -764.491939439     A.U. after   11 cycles
 SCF Done:  E(RM062X) =  -764.491961722     A.U. after   11 cycles
 SCF Done:  E(RM062X) =  -764.491963616     A.U. after   11 cycles
 SCF Done:  E(RM062X) =  -764.491963635     A.U. after    7 cycles
 SCF Done:  E(RM062X) =  -764.491963657     A.U. after    7 cycles
 Optimization completed.
    -- Stationary point found.
 Normal termination of Gaussian 16 at Sat May 24 07:02:06 2025.

 ---------------------------------------------------------------------
 #P Geom=AllCheck Guess=TCheck SCRF=Check GenChk RM062X/def2TZVPP Freq
 ---------------------------------------------------------------------

 Structure from the checkpoint file:  "/tmp/Gau-301112.chk"
 ------------------------------
 Gaussian input prepared by ASE
 ------------------------------
 Charge =  0 Multiplicity = 1

                          Input orientation:
 ---------------------------------------------------------------------
 Center     Atomic      Atomic             Coordinates (Angstroms)
 Number     Number       Type             X           Y           Z
 ---------------------------------------------------------------------
      1          6           0        1.273816   -0.183414    0.006430
      2          8           0        0.051925   -0.248769    0.560900
      3          6           0        2.000990   -1.289833   -0.132606
      4          6           0        1.616024   -2.724907    0.079909
      5          9           0        1.996171   -3.445978   -0.976988
      6          9           0        2.243259   -3.229922    1.145409
      7          9           0        0.313951   -2.884178    0.247799
      8          9           0       -0.853110    0.191339   -0.439008
      9          9           0        3.285405   -1.153118   -0.488981
     10          8           0        1.692227    1.051711   -0.269404
     11          1           0        2.538739    1.021787   -0.730041
 ---------------------------------------------------------------------

 SCF Done:  E(RM062X) =  -764.491963657     A.U. after    1 cycles

 Isotropic polarizability for W=    0.000000       50.45 Bohr**3.
 End of Minotr F.D. properties file   721 does not exist.

                      1                      2                      3
                      A                      A                      A
 Frequencies --     26.7846                73.9983               108.3433
 Red. masses --     17.6600                17.7074                 9.1464
 Frc consts  --      0.0075                 0.0571                 0.0633
 IR Inten    --      0.4610                 0.8249                 1.5924

                      4                      5                      6
                      A                      A                      A
 Frequencies --    183.8981               222.2587               268.3910
 Red. masses --     14.1066                15.3294                 9.7304
 Frc consts  --      0.2811                 0.4462                 0.4130
 IR Inten    --      3.3655                 1.1814                 6.8432

                      7                      8                      9
                      A                      A                      A
 Frequencies --    317.1461               362.7625               374.3375
 Red. masses --      5.2340                 4.8020                 5.9921
 Frc consts  --      0.3102                 0.3723                 0.4947
 IR Inten    --     12.8615                19.1755                15.6323

                     10                     11                     12
                      A                      A                      A
 Frequencies --    388.1013               494.5036               513.2717
 Red. masses --      1.7915                16.2485                15.9047
 Frc consts  --      0.1590                 2.3410                 2.4687
 IR Inten    --     72.5338                 2.0722                 1.6063

                     13                     14                     15
                      A                      A                      A
 Frequencies --    604.8010               614.4332               683.9954
 Red. masses --     13.2623                15.9011                11.2686
 Frc consts  --      2.8582                 3.5369                 3.1062
 IR Inten    --      2.4097                 1.2890                 4.8388

                     16                     17                     18
                      A                      A                      A
 Frequencies --    756.4083               830.0652               952.7422
 Red. masses --     13.9302                13.3190                16.6613
 Frc consts  --      4.6959                 5.4069                 8.9106
 IR Inten    --     24.2695                22.8489                98.8106

                     19                     20                     21
                      A                      A                      A
 Frequencies --   1065.0200              1169.5417              1221.9597
 Red. masses --      6.9269                 2.7659                13.1206
 Frc consts  --      4.6292                 2.2290                11.5429
 IR Inten    --    127.3715               284.9435               295.1650

                     22                     23                     24
                      A                      A                      A
 Frequencies --   1272.2354              1286.4768              1407.7725
 Red. masses --      5.0289                 4.6934                 9.0746
 Frc consts  --      4.7958                 4.5766                10.5960
 IR Inten    --    297.3804               145.6513               126.4638

                     25                     26                     27
                      A                      A                      A
 Frequencies --   1426.6377              1822.6491              3852.5054
 Red. masses --      4.7563                11.4174                 1.0656
 Frc consts  --      5.7036                22.3473                 9.3182
 IR Inten    --    128.1898               151.8795               123.5400

 - Thermochemistry -
 -------------------
 Temperature   298.150 Kelvin.  Pressure   1.00000 Atm.
 Atom     1 has atomic number  6 and mass  12.00000

 Molecular mass:   163.98967 amu.
 Principal axes and moments of inertia in atomic units:
                           1         2         3
     Eigenvalues --   909.226431779.830982299.86447
           X           -0.43016   0.89467   0.12051
           Y            0.90123   0.41783   0.11493
           Z           -0.05247  -0.15804   0.98604
 This molecule is an asymmetric top.
 Rotational symmetry number  1.
 Warning -- assumption of classical behavior for rotation
           may cause significant error
 Rotational temperatures (Kelvin)      0.09526     0.04866     0.03766
 Rotational constants (GHZ):           1.98492     1.01400     0.78472
 Zero-point vibrational energy     133389.8 (Joules/Mol)
                                   31.88094 (Kcal/Mol)
 Warning -- explicit consideration of  14 degrees of freedom as
           vibrations may cause significant error
 Vibrational temperatures:     38.54   106.47   155.88   264.59   319.78
          (Kelvin)            386.15   456.30   521.93   538.59   558.39
                              711.48   738.48   870.17   884.03   984.12
                             1088.30  1194.28  1370.78  1532.33  1682.71
                             1758.13  1830.46  1850.95  2025.47  2052.61
                             2622.39  5542.90

 Zero-point correction=                           0.050806 (Hartree/Particle)
 Thermal correction to Energy=                    0.060184
 Thermal correction to Enthalpy=                  0.061128
 Thermal correction to Gibbs Free Energy=         0.014606
 Sum of electronic and zero-point Energies=           -764.441158
 Sum of electronic and thermal Energies=              -764.431780
 Sum of electronic and thermal Enthalpies=            -764.430835
 Sum of electronic and thermal Free Energies=         -764.477358

                     E (Thermal)             CV                S
                      KCal/Mol        Cal/Mol-Kelvin    Cal/Mol-Kelvin
 Total                   37.766             31.858             97.915
 Electronic               0.000              0.000              0.000
 Translational            0.889              2.981             41.192
 Rotational               0.889              2.981             29.699
 Vibrational             35.989             25.897             27.023
 Vibration     1          0.593              1.984              6.054
 Vibration     2          0.599              1.966              4.044
 Vibration     3          0.606              1.943              3.298
 Vibration     4          0.631              1.862              2.288
 Vibration     5          0.648              1.807              1.941
 Vibration     6          0.673              1.731              1.607
 Vibration     7          0.704              1.641              1.325
 Vibration     8          0.737              1.549              1.110
 Vibration     9          0.745              1.525              1.062
 Vibration    10          0.756              1.496              1.007
 Vibration    11          0.850              1.262              0.672
 Vibration    12          0.868              1.221              0.626
 Vibration    13          0.963              1.022              0.441
 Vibration    14          0.974              1.001              0.425

 Optimization completed.
    -- Stationary point found.
 Normal termination of Gaussian 16 at Sat May 24 07:05:29 2025.
