 Gaussian 16, Revision C.01,
 Gaussian 16:  ES64L-G16RevC.01  3-Jul-2019

 -----------------------------------------------------------------
 #P M062X/Def2TZVPP Symm(None) scf(xqc) pop(None) freq opt(CalcFC)
 -----------------------------------------------------------------

 ------------------------------
 Gaussian input prepared by ASE
 ------------------------------
 Symbolic Z-matrix:
 Charge =  0 Multiplicity = 1

 SCF Done:  E(RM062X) =  -764.462704403     A.U. after   15 cycles
 SCF Done:  E(RM062X) =  -764.462704449     A.U. after    8 cycles
 Optimization completed.
    -- Stationary point found.
 Normal termination of Gaussian 16 at Sat May 24 08:46:40 2025.

 ---------------------------------------------------------------------
 #P Geom=AllCheck Guess=TCheck SCRF=Check GenChk RM062X/def2TZVPP Freq
 ---------------------------------------------------------------------

 Structure from the checkpoint file:  "/tmp/Gau-229839.chk"
 ------------------------------
 Gaussian input prepared by ASE
 ------------------------------
 Charge =  0 Multiplicity = 1

                          Input orientation:
 ---------------------------------------------------------------------
 Center     Atomic      Atomic             Coordinates (Angstroms)
 Number     Number       Type             X           Y           Z
 ---------------------------------------------------------------------
      1          6           0        2.433473    1.681574    0.001021
      2          8           0        0.968551    0.000007    0.000604
      3          6           0        2.563070    3.220728    0.001101
      4          6           0        1.298584    4.104988    0.000761
      5          9           0        1.633885    5.387140    0.000877
      6          9           0        0.564366    3.861050   -1.080287
      7          9           0        0.563758    3.861014    1.081388
      8          9           0        3.267932    3.543401    1.096268
      9          9           0        3.268563    3.543462   -1.093640
     10          8           0        1.208656    1.422894    0.000712
     11          1           0        0.000092   -0.000078    0.000423
 ---------------------------------------------------------------------

 SCF Done:  E(RM062X) =  -764.462704449     A.U. after    1 cycles

 Isotropic polarizability for W=    0.000000       50.74 Bohr**3.
 End of Minotr F.D. properties file   721 does not exist.

                      1                      2                      3
                      A                      A                      A
 Frequencies --     41.9198                83.1072               129.0952
 Red. masses --      9.4402                16.4770                10.1013
 Frc consts  --      0.0098                 0.0671                 0.0992
 IR Inten    --      7.1038                 0.0766                 1.8873

                      4                      5                      6
                      A                      A                      A
 Frequencies --    203.2473               236.6892               257.7894
 Red. masses --     12.1393                 2.3605                13.1242
 Frc consts  --      0.2955                 0.0779                 0.5139
 IR Inten    --     27.9678                57.3131                 0.9348

                      7                      8                      9
                      A                      A                      A
 Frequencies --    274.6982               347.4127               375.7131
 Red. masses --      1.9317                15.9918                14.1914
 Frc consts  --      0.0859                 1.1372                 1.1803
 IR Inten    --     40.1193                 0.1358                 0.3061

                     10                     11                     12
                      A                      A                      A
 Frequencies --    389.7436               399.0411               505.8250
 Red. masses --     12.3536                16.7681                15.1296
 Frc consts  --      1.1056                 1.5731                 2.2808
 IR Inten    --      0.1286                 0.0044                 4.3423

                     13                     14                     15
                      A                      A                      A
 Frequencies --    542.6785               610.7035               662.4281
 Red. masses --     17.0887                17.4183                16.2308
 Frc consts  --      2.9651                 3.8275                 4.1963
 IR Inten    --      9.9074                 0.0592                13.5505

                     16                     17                     18
                      A                      A                      A
 Frequencies --    713.6090               808.8511               903.9148
 Red. masses --     12.6989                15.5915                11.6874
 Frc consts  --      3.8101                 6.0100                 5.6263
 IR Inten    --     77.4545                20.9882                61.7876

                     19                     20                     21
                      A                      A                      A
 Frequencies --   1110.8334              1229.5161              1241.3571
 Red. masses --     10.7996                13.1722                12.0709
 Frc consts  --      7.8516                11.7321                10.9593
 IR Inten    --    105.4922               127.8386               200.1414

                     22                     23                     24
                      A                      A                      A
 Frequencies --   1278.6289              1281.1032              1389.1613
 Red. masses --     13.1664                11.6253                 2.0200
 Frc consts  --     12.6825                11.2415                 2.2967
 IR Inten    --    334.5588               176.4564                98.2101

                     25                     26                     27
                      A                      A                      A
 Frequencies --   1401.0656              1511.6037              3804.8551
 Red. masses --      6.7199                 2.7774                 1.0677
 Frc consts  --      7.7720                 3.7391                 9.1072
 IR Inten    --     42.2056                22.7122               110.4287

 - Thermochemistry -
 -------------------
 Temperature   298.150 Kelvin.  Pressure   1.00000 Atm.
 Atom     1 has atomic number  6 and mass  12.00000

 Molecular mass:   163.98967 amu.
 Principal axes and moments of inertia in atomic units:
                           1         2         3
     Eigenvalues --   930.554561669.693371957.85963
           X            0.14192   0.98988  -0.00028
           Y            0.98988  -0.14192  -0.00001
           Z            0.00005   0.00027   1.00000
 This molecule is an asymmetric top.
 Rotational symmetry number  1.
 Warning -- assumption of classical behavior for rotation
           may cause significant error
 Rotational temperatures (Kelvin)      0.09308     0.05187     0.04424
 Rotational constants (GHZ):           1.93943     1.08088     0.92179
 Zero-point vibrational energy     130001.7 (Joules/Mol)
                                   31.07116 (Kcal/Mol)
 Warning -- explicit consideration of  14 degrees of freedom as
           vibrations may cause significant error
 Vibrational temperatures:     60.31   119.57   185.74   292.43   340.54
          (Kelvin)            370.90   395.23   499.85   540.57   560.75
                              574.13   727.77   780.79   878.67   953.09
                             1026.72  1163.76  1300.53  1598.24  1769.00
                             1786.04  1839.66  1843.22  1998.69  2015.82
                             2174.86  5474.34

 Zero-point correction=                           0.049515 (Hartree/Particle)
 Thermal correction to Energy=                    0.058995
 Thermal correction to Enthalpy=                  0.059939
 Thermal correction to Gibbs Free Energy=         0.013916
 Sum of electronic and zero-point Energies=           -764.413189
 Sum of electronic and thermal Energies=              -764.403709
 Sum of electronic and thermal Enthalpies=            -764.402765
 Sum of electronic and thermal Free Energies=         -764.448788

                     E (Thermal)             CV                S
                      KCal/Mol        Cal/Mol-Kelvin    Cal/Mol-Kelvin
 Total                   37.020             32.463             96.864
 Electronic               0.000              0.000              0.000
 Translational            0.889              2.981             41.192
 Rotational               0.889              2.981             29.499
 Vibrational             35.243             26.501             26.173
 Vibration     1          0.595              1.980              5.166
 Vibration     2          0.600              1.961              3.816
 Vibration     3          0.612              1.924              2.959
 Vibration     4          0.639              1.835              2.104
 Vibration     5          0.656              1.785              1.828
 Vibration     6          0.667              1.750              1.677
 Vibration     7          0.677              1.720              1.566
 Vibration     8          0.725              1.581              1.178
 Vibration     9          0.747              1.522              1.056
 Vibration    10          0.758              1.492              1.001
 Vibration    11          0.765              1.472              0.966
 Vibration    12          0.861              1.237              0.644
 Vibration    13          0.898              1.156              0.560
 Vibration    14          0.970              1.009              0.432

 Optimization completed.
    -- Stationary point found.
 Normal termination of Gaussian 16 at Sat May 24 08:49:21 2025.
