 Gaussian 16, Revision C.01,
 Gaussian 16:  ES64L-G16RevC.01  3-Jul-2019

 ----------------------------------------------------------------------
 #P M062X/Def2TZVPP Symm(None) scf(xqc) pop(None) opt(NoFreeze,TS,CalcA
 ll,NoEigentest,MaxCycle=999)
 ----------------------------------------------------------------------

 ------------------------------
 Gaussian input prepared by ASE
 ------------------------------
 Symbolic Z-matrix:
 Charge =  0 Multiplicity = 1

 SCF Done:  E(RM062X) =  -764.529106672     A.U. after   17 cycles
 SCF Done:  E(RM062X) =  -764.529106851     A.U. after    7 cycles

 Isotropic polarizability for W=    0.000000       51.13 Bohr**3.
 End of Minotr F.D. properties file   721 does not exist.

 Optimization completed.
    -- Stationary point found.

                          Input orientation:
 ---------------------------------------------------------------------
 Center     Atomic      Atomic             Coordinates (Angstroms)
 Number     Number       Type             X           Y           Z
 ---------------------------------------------------------------------
      1          6           0        1.554838   -0.000301    0.000071
      2          8           0        2.146997   -0.849697    0.672724
      3          6           0       -0.000250    0.000695   -0.000260
      4          6           0        1.588946   -0.415488   -1.664836
      5          9           0        1.116565   -1.638316   -1.870397
      6          9           0        0.947967    0.423816   -2.480058
      7          9           0        2.869702   -0.388179   -1.958713
      8          9           0       -0.627163   -1.082931    0.145856
      9          9           0       -0.728141    0.910118   -0.492143
     10          8           0        1.926855    1.346231    0.000800
     11          1           0        2.759819    1.357635    0.486492
 ---------------------------------------------------------------------

 ******    1 imaginary frequencies (negative Signs) ******

                      1                      2                      3
                      A                      A                      A
 Frequencies --   -300.9848                49.7784               110.1551
 Red. masses --      8.4599                18.1181                14.7698
 Frc consts  --      0.4515                 0.0265                 0.1056
 IR Inten    --     89.7401                 0.2288                 1.9130

                      4                      5                      6
                      A                      A                      A
 Frequencies --    158.0486               201.2627               214.4663
 Red. masses --     11.8721                14.7981                14.7964
 Frc consts  --      0.1747                 0.3532                 0.4010
 IR Inten    --      3.1918                 0.5095                 1.6983

                      7                      8                      9
                      A                      A                      A
 Frequencies --    265.3858               282.1086               333.2312
 Red. masses --      2.5124                 3.3042                13.8959
 Frc consts  --      0.1043                 0.1549                 0.9091
 IR Inten    --     24.8651                35.2902                10.2743

                     10                     11                     12
                      A                      A                      A
 Frequencies --    362.6961               476.0296               515.7686
 Red. masses --      3.6881                14.5993                 9.4708
 Frc consts  --      0.2858                 1.9492                 1.4844
 IR Inten    --     14.2673                 4.6051                19.4127

                     13                     14                     15
                      A                      A                      A
 Frequencies --    550.1672               589.3061               631.6899
 Red. masses --      7.0830                15.6796                 9.3328
 Frc consts  --      1.2631                 3.2082                 2.1942
 IR Inten    --     56.0375                 3.7074                42.1334

                     16                     17                     18
                      A                      A                      A
 Frequencies --    676.6200               754.1061               762.9292
 Red. masses --     12.0409                15.6526                 9.6538
 Frc consts  --      3.2479                 5.2445                 3.3107
 IR Inten    --      0.5563                25.4235                 7.8446

                     19                     20                     21
                      A                      A                      A
 Frequencies --   1025.7549              1094.9614              1246.8136
 Red. masses --      5.6930                13.7158                12.8911
 Frc consts  --      3.5292                 9.6888                11.8071
 IR Inten    --    286.0615               395.8858               182.3454

                     22                     23                     24
                      A                      A                      A
 Frequencies --   1283.4671              1308.7489              1440.8983
 Red. masses --      2.3268                 3.9169                11.5354
 Frc consts  --      2.2583                 3.9528                14.1108
 IR Inten    --     34.1723               205.7777               271.9163

                     25                     26                     27
                      A                      A                      A
 Frequencies --   1481.8838              1585.9190              3854.7000
 Red. masses --     12.2785                 8.2875                 1.0654
 Frc consts  --     15.8864                12.2811                 9.3271
 IR Inten    --    271.6979               472.9451               130.6407

 - Thermochemistry -
 -------------------
 Temperature   298.150 Kelvin.  Pressure   1.00000 Atm.
 Atom     1 has atomic number  6 and mass  12.00000

 Molecular mass:   163.98967 amu.
 Principal axes and moments of inertia in atomic units:
                           1         2         3
     Eigenvalues --  1032.170901415.516211523.25983
           X            0.81640   0.57192  -0.07992
           Y           -0.12492   0.31003   0.94248
           Z           -0.56381   0.75946  -0.32455
 This molecule is an asymmetric top.
 Rotational symmetry number  1.
 Warning -- assumption of classical behavior for rotation
           may cause significant error
 Rotational temperatures (Kelvin)      0.08391     0.06119     0.05686
 Rotational constants (GHZ):           1.74849     1.27497     1.18479
    1 imaginary frequencies ignored.
 Zero-point vibrational energy     127144.5 (Joules/Mol)
                                   30.38826 (Kcal/Mol)
 Warning -- explicit consideration of  13 degrees of freedom as
           vibrations may cause significant error
 Vibrational temperatures:     71.62   158.49   227.40   289.57   308.57
          (Kelvin)            381.83   405.89   479.45   521.84   684.90
                              742.08   791.57   847.88   908.86   973.51
                             1084.99  1097.68  1475.83  1575.41  1793.89
                             1846.62  1883.00  2073.13  2132.10  2281.78
                             5546.05

 Zero-point correction=                           0.048427 (Hartree/Particle)
 Thermal correction to Energy=                    0.057542
 Thermal correction to Enthalpy=                  0.058486
 Thermal correction to Gibbs Free Energy=         0.013575
 Sum of electronic and zero-point Energies=           -764.480680
 Sum of electronic and thermal Energies=              -764.471565
 Sum of electronic and thermal Enthalpies=            -764.470621
 Sum of electronic and thermal Free Energies=         -764.515531

                     E (Thermal)             CV                S
                      KCal/Mol        Cal/Mol-Kelvin    Cal/Mol-Kelvin
 Total                   36.108             31.365             94.522
 Electronic               0.000              0.000              0.000
 Translational            0.889              2.981             41.192
 Rotational               0.889              2.981             29.188
 Vibrational             34.331             25.404             24.142
 Vibration     1          0.595              1.978              4.826
 Vibration     2          0.606              1.941              3.266
 Vibration     3          0.621              1.894              2.573
 Vibration     4          0.638              1.838              2.122
 Vibration     5          0.644              1.819              2.005
 Vibration     6          0.671              1.737              1.626
 Vibration     7          0.681              1.707              1.521
 Vibration     8          0.715              1.609              1.244
 Vibration     9          0.737              1.549              1.111
 Vibration    10          0.833              1.303              0.721
 Vibration    11          0.871              1.215              0.620
 Vibration    12          0.905              1.139              0.544
 Vibration    13          0.947              1.055              0.468

 Normal termination of Gaussian 16 at Sat May 24 05:14:22 2025.
