 Gaussian 16, Revision C.01,
 Gaussian 16:  ES64L-G16RevC.01  3-Jul-2019

 ----------------------------------------------------------------------
 #P M062X/Def2TZVPP Symm(None) scf(xqc) pop(None) opt(NoFreeze,TS,CalcA
 ll,NoEigentest,MaxCycle=999)
 ----------------------------------------------------------------------

 ------------------------------
 Gaussian input prepared by ASE
 ------------------------------
 Symbolic Z-matrix:
 Charge =  0 Multiplicity = 1

 SCF Done:  E(RM062X) =  -764.514541953     A.U. after   18 cycles
 SCF Done:  E(RM062X) =  -764.515936437     A.U. after   14 cycles
 SCF Done:  E(RM062X) =  -764.516019162     A.U. after   14 cycles
 SCF Done:  E(RM062X) =  -764.516021088     A.U. after   12 cycles

 Isotropic polarizability for W=    0.000000       49.38 Bohr**3.
 End of Minotr F.D. properties file   721 does not exist.

 Optimization completed.
    -- Stationary point found.

                          Input orientation:
 ---------------------------------------------------------------------
 Center     Atomic      Atomic             Coordinates (Angstroms)
 Number     Number       Type             X           Y           Z
 ---------------------------------------------------------------------
      1          6           0        1.527592    0.011029    0.036236
      2          8           0        1.938105   -0.810495    0.837019
      3          6           0        0.003438   -0.008460   -0.014252
      4          6           0       -0.945534    1.210594    0.071572
      5          9           0       -2.208354    0.828177    0.034620
      6          9           0       -0.701421    1.828885    1.209321
      7          9           0       -0.697894    2.007398   -0.949714
      8          9           0        1.499373   -0.379268   -1.479259
      9          9           0       -0.588440   -1.107450   -0.027297
     10          8           0        2.016155    1.293358   -0.003564
     11          1           0        2.127264    1.553356   -0.923869
 ---------------------------------------------------------------------

 ******    1 imaginary frequencies (negative Signs) ******

                      1                      2                      3
                      A                      A                      A
 Frequencies --   -380.5983                48.7742                83.4007
 Red. masses --     13.4853                15.8806                13.8101
 Frc consts  --      1.1509                 0.0223                 0.0566
 IR Inten    --     12.9915                 0.4064                 1.3212

                      4                      5                      6
                      A                      A                      A
 Frequencies --    138.4988               193.6264               221.9471
 Red. masses --     13.6287                12.9479                12.2799
 Frc consts  --      0.1540                 0.2860                 0.3564
 IR Inten    --      4.3746                 5.1503                 2.2167

                      7                      8                      9
                      A                      A                      A
 Frequencies --    280.4844               314.2766               352.5956
 Red. masses --     10.4417                 1.2930                10.4179
 Frc consts  --      0.4840                 0.0752                 0.7631
 IR Inten    --     20.0142                81.2052                 2.8696

                     10                     11                     12
                      A                      A                      A
 Frequencies --    403.2994               453.0293               498.7176
 Red. masses --     11.6084                14.3924                 5.8749
 Frc consts  --      1.1124                 1.7403                 0.8609
 IR Inten    --     33.7052                29.1143                 8.1448

                     13                     14                     15
                      A                      A                      A
 Frequencies --    524.6207               577.6884               644.0824
 Red. masses --     13.6986                12.8218                13.0078
 Frc consts  --      2.2214                 2.5211                 3.1793
 IR Inten    --     21.7848                50.9478                33.2824

                     16                     17                     18
                      A                      A                      A
 Frequencies --    734.1448               766.1147               808.0039
 Red. masses --     12.8429                13.1135                12.5380
 Frc consts  --      4.0783                 4.5348                 4.8229
 IR Inten    --    137.9361                32.2724                15.2497

                     19                     20                     21
                      A                      A                      A
 Frequencies --   1022.4201              1138.3730              1243.6853
 Red. masses --     13.5650                11.3237                 1.2919
 Frc consts  --      8.3547                 8.6458                 1.1774
 IR Inten    --    159.8706               114.0017               156.3014

                     22                     23                     24
                      A                      A                      A
 Frequencies --   1291.6241              1296.2814              1330.8806
 Red. masses --     10.5520                12.9651                12.2483
 Frc consts  --     10.3719                12.8358                12.7821
 IR Inten    --    244.1998               247.8914               232.8286

                     25                     26                     27
                      A                      A                      A
 Frequencies --   1555.0478              1626.4591              3868.5847
 Red. masses --     13.1229                11.1353                 1.0654
 Frc consts  --     18.6969                17.3556                 9.3946
 IR Inten    --    194.2934               235.0203               100.9810

 - Thermochemistry -
 -------------------
 Temperature   298.150 Kelvin.  Pressure   1.00000 Atm.
 Atom     1 has atomic number  6 and mass  12.00000

 Molecular mass:   163.98967 amu.
 Principal axes and moments of inertia in atomic units:
                           1         2         3
     Eigenvalues --   874.205931673.560061862.62733
           X            0.89085   0.44752   0.07815
           Y           -0.44548   0.89427  -0.04280
           Z           -0.08904   0.00332   0.99602
 This molecule is an asymmetric top.
 Rotational symmetry number  1.
 Warning -- assumption of classical behavior for rotation
           may cause significant error
 Rotational temperatures (Kelvin)      0.09908     0.05175     0.04650
 Rotational constants (GHZ):           2.06443     1.07838     0.96892
    1 imaginary frequencies ignored.
 Zero-point vibrational energy     128100.1 (Joules/Mol)
                                   30.61665 (Kcal/Mol)
 Warning -- explicit consideration of  13 degrees of freedom as
           vibrations may cause significant error
 Vibrational temperatures:     70.18   119.99   199.27   278.59   319.33
          (Kelvin)            403.55   452.17   507.31   580.26   651.81
                              717.54   754.81   831.16   926.69  1056.27
                             1102.27  1162.54  1471.03  1637.86  1789.39
                             1858.36  1865.06  1914.84  2237.37  2340.11
                             5566.03

 Zero-point correction=                           0.048791 (Hartree/Particle)
 Thermal correction to Energy=                    0.057878
 Thermal correction to Enthalpy=                  0.058822
 Thermal correction to Gibbs Free Energy=         0.013643
 Sum of electronic and zero-point Energies=           -764.467230
 Sum of electronic and thermal Energies=              -764.458144
 Sum of electronic and thermal Enthalpies=            -764.457199
 Sum of electronic and thermal Free Energies=         -764.502378

                     E (Thermal)             CV                S
                      KCal/Mol        Cal/Mol-Kelvin    Cal/Mol-Kelvin
 Total                   36.319             31.119             95.086
 Electronic               0.000              0.000              0.000
 Translational            0.889              2.981             41.192
 Rotational               0.889              2.981             29.390
 Vibrational             34.541             25.157             24.504
 Vibration     1          0.595              1.978              4.866
 Vibration     2          0.600              1.961              3.809
 Vibration     3          0.614              1.915              2.825
 Vibration     4          0.635              1.849              2.193
 Vibration     5          0.648              1.808              1.943
 Vibration     6          0.680              1.710              1.531
 Vibration     7          0.702              1.646              1.340
 Vibration     8          0.729              1.570              1.155
 Vibration     9          0.769              1.463              0.951
 Vibration    10          0.812              1.354              0.787
 Vibration    11          0.854              1.253              0.661
 Vibration    12          0.880              1.195              0.599
 Vibration    13          0.934              1.080              0.490

 Normal termination of Gaussian 16 at Sat May 24 05:29:56 2025.
