 Gaussian 16, Revision C.01,
 Gaussian 16:  ES64L-G16RevC.01  3-Jul-2019

 -----------------------------------------------------------------
 #P M062X/Def2TZVPP Symm(None) scf(xqc) pop(None) freq opt(CalcFC)
 -----------------------------------------------------------------

 ------------------------------
 Gaussian input prepared by ASE
 ------------------------------
 Symbolic Z-matrix:
 Charge =  0 Multiplicity = 1

 SCF Done:  E(RM062X) =  -764.668262344     A.U. after   13 cycles
 SCF Done:  E(RM062X) =  -764.668262537     A.U. after    8 cycles
 Optimization completed.
    -- Stationary point found.
 Normal termination of Gaussian 16 at Fri May 23 23:26:35 2025.

 ---------------------------------------------------------------------
 #P Geom=AllCheck Guess=TCheck SCRF=Check GenChk RM062X/def2TZVPP Freq
 ---------------------------------------------------------------------

 Structure from the checkpoint file:  "/tmp/Gau-78688.chk"
 ------------------------------
 Gaussian input prepared by ASE
 ------------------------------
 Charge =  0 Multiplicity = 1

                          Input orientation:
 ---------------------------------------------------------------------
 Center     Atomic      Atomic             Coordinates (Angstroms)
 Number     Number       Type             X           Y           Z
 ---------------------------------------------------------------------
      1          6           0        1.544169    0.000332    0.000259
      2          8           0        2.188791   -0.997335    0.010284
      3          6           0       -0.000090   -0.000400    0.000056
      4          6           0       -0.594031    0.388093    1.371614
      5          9           0       -1.908545    0.237901    1.352139
      6          9           0       -0.082109   -0.395825    2.314205
      7          9           0       -0.310572    1.648965    1.663967
      8          9           0       -0.466017    0.863156   -0.914788
      9          9           0       -0.429956   -1.226369   -0.297757
     10          8           0        2.010622    1.244818   -0.001082
     11          1           0        2.977236    1.208068    0.013204
 ---------------------------------------------------------------------

 SCF Done:  E(RM062X) =  -764.668262537     A.U. after    1 cycles

 Isotropic polarizability for W=    0.000000       43.86 Bohr**3.
 End of Minotr F.D. properties file   721 does not exist.

                      1                      2                      3
                      A                      A                      A
 Frequencies --     19.3792                65.3810               144.7566
 Red. masses --     12.9462                16.4021                10.2735
 Frc consts  --      0.0029                 0.0413                 0.1268
 IR Inten    --      1.4232                 0.4307                 0.9769

                      4                      5                      6
                      A                      A                      A
 Frequencies --    216.1893               248.6831               287.8205
 Red. masses --     17.3614                12.1743                14.7444
 Frc consts  --      0.4781                 0.4436                 0.7196
 IR Inten    --      1.5538                 1.1613                 1.4253

                      7                      8                      9
                      A                      A                      A
 Frequencies --    359.9142               380.0258               384.4856
 Red. masses --     16.5158                15.5864                13.6726
 Frc consts  --      1.2605                 1.3262                 1.1909
 IR Inten    --      0.3836                 0.8309                 0.6176

                     10                     11                     12
                      A                      A                      A
 Frequencies --    504.1540               548.8619               553.9812
 Red. masses --      8.1633                 6.6048                 2.7021
 Frc consts  --      1.2225                 1.1723                 0.4886
 IR Inten    --      5.9529                15.7878                18.5201

                     13                     14                     15
                      A                      A                      A
 Frequencies --    617.0210               637.5858               692.8859
 Red. masses --      7.2527                 2.9914                 4.5182
 Frc consts  --      1.6269                 0.7165                 1.2780
 IR Inten    --     15.0291                78.5504               102.5236

                     16                     17                     18
                      A                      A                      A
 Frequencies --    789.5736               798.0247              1062.4372
 Red. masses --     12.2052                 8.6411                11.7399
 Frc consts  --      4.4831                 3.2423                 7.8077
 IR Inten    --      2.5049                21.4606               124.3348

                     19                     20                     21
                      A                      A                      A
 Frequencies --   1187.3379              1229.6581              1277.3992
 Red. masses --      3.0466                 4.2997                10.3542
 Frc consts  --      2.5305                 3.8305                 9.9545
 IR Inten    --    245.3611               186.4627                41.9407

                     22                     23                     24
                      A                      A                      A
 Frequencies --   1290.0551              1297.0221              1383.0650
 Red. masses --     13.3152                 7.5960                 7.8304
 Frc consts  --     13.0561                 7.5288                 8.8251
 IR Inten    --    361.1530               147.7117               127.3306

                     25                     26                     27
                      A                      A                      A
 Frequencies --   1435.9832              1920.6886              3808.3818
 Red. masses --      5.1487                11.7413                 1.0646
 Frc consts  --      6.2553                25.5199                 9.0977
 IR Inten    --     54.0025               330.8246               129.6390

 - Thermochemistry -
 -------------------
 Temperature   298.150 Kelvin.  Pressure   1.00000 Atm.
 Atom     1 has atomic number  6 and mass  12.00000

 Molecular mass:   163.98967 amu.
 Principal axes and moments of inertia in atomic units:
                           1         2         3
     Eigenvalues --   948.464141520.885271602.07831
           X            0.85441   0.42886  -0.29338
           Y           -0.13050   0.72362   0.67775
           Z           -0.50295   0.54079  -0.67423
 This molecule is an asymmetric top.
 Rotational symmetry number  1.
 Warning -- assumption of classical behavior for rotation
           may cause significant error
 Rotational temperatures (Kelvin)      0.09132     0.05695     0.05406
 Rotational constants (GHZ):           1.90280     1.18664     1.12650
 Zero-point vibrational energy     138412.4 (Joules/Mol)
                                   33.08136 (Kcal/Mol)
 Warning -- explicit consideration of  13 degrees of freedom as
           vibrations may cause significant error
 Vibrational temperatures:     27.88    94.07   208.27   311.05   357.80
          (Kelvin)            414.11   517.84   546.77   553.19   725.37
                              789.69   797.06   887.76   917.34   996.91
                             1136.02  1148.18  1528.61  1708.31  1769.20
                             1837.89  1856.10  1866.13  1989.92  2066.06
                             2763.44  5479.41

 Zero-point correction=                           0.052719 (Hartree/Particle)
 Thermal correction to Energy=                    0.061649
 Thermal correction to Enthalpy=                  0.062593
 Thermal correction to Gibbs Free Energy=         0.016934
 Sum of electronic and zero-point Energies=           -764.615544
 Sum of electronic and thermal Energies=              -764.606613
 Sum of electronic and thermal Enthalpies=            -764.605669
 Sum of electronic and thermal Free Energies=         -764.651329

                     E (Thermal)             CV                S
                      KCal/Mol        Cal/Mol-Kelvin    Cal/Mol-Kelvin
 Total                   38.685             30.700             96.099
 Electronic               0.000              0.000              0.000
 Translational            0.889              2.981             41.192
 Rotational               0.889              2.981             29.226
 Vibrational             36.908             24.739             25.681
 Vibration     1          0.593              1.986              6.697
 Vibration     2          0.597              1.971              4.288
 Vibration     3          0.616              1.908              2.740
 Vibration     4          0.645              1.816              1.991
 Vibration     5          0.662              1.765              1.740
 Vibration     6          0.685              1.696              1.487
 Vibration     7          0.734              1.555              1.122
 Vibration     8          0.750              1.513              1.039
 Vibration     9          0.753              1.503              1.021
 Vibration    10          0.859              1.241              0.648
 Vibration    11          0.904              1.142              0.547
 Vibration    12          0.909              1.131              0.536
 Vibration    13          0.977              0.996              0.421

 Optimization completed.
    -- Stationary point found.
 Normal termination of Gaussian 16 at Fri May 23 23:30:03 2025.
