 Gaussian 16, Revision C.01,
 Gaussian 16:  ES64L-G16RevC.01  3-Jul-2019

 -----------------------------------------------------------------
 #P M062X/Def2TZVPP Symm(None) scf(xqc) pop(None) freq opt(CalcFC)
 -----------------------------------------------------------------

 ------------------------------
 Gaussian input prepared by ASE
 ------------------------------
 Symbolic Z-matrix:
 Charge =  0 Multiplicity = 1

 SCF Done:  E(RM062X) =  -764.400434488     A.U. after   19 cycles
 SCF Done:  E(RM062X) =  -764.433914242     A.U. after   18 cycles
 SCF Done:  E(RM062X) =  -764.440246068     A.U. after   17 cycles
 SCF Done:  E(RM062X) =  -764.457386391     A.U. after   16 cycles
 SCF Done:  E(RM062X) =  -764.458499587     A.U. after   16 cycles
 SCF Done:  E(RM062X) =  -764.461434564     A.U. after   15 cycles
 SCF Done:  E(RM062X) =  -764.462623887     A.U. after   14 cycles
 SCF Done:  E(RM062X) =  -764.463107218     A.U. after   13 cycles
 SCF Done:  E(RM062X) =  -764.463412784     A.U. after   14 cycles
 SCF Done:  E(RM062X) =  -764.463643386     A.U. after   14 cycles
 SCF Done:  E(RM062X) =  -764.464644555     A.U. after   13 cycles
 SCF Done:  E(RM062X) =  -764.464726003     A.U. after   12 cycles
 SCF Done:  E(RM062X) =  -764.464779959     A.U. after   12 cycles
 SCF Done:  E(RM062X) =  -764.464819763     A.U. after   12 cycles
 SCF Done:  E(RM062X) =  -764.464847157     A.U. after   12 cycles
 SCF Done:  E(RM062X) =  -764.464870161     A.U. after   12 cycles
 SCF Done:  E(RM062X) =  -764.464875231     A.U. after   10 cycles
 SCF Done:  E(RM062X) =  -764.464875508     A.U. after    8 cycles
 SCF Done:  E(RM062X) =  -764.464875569     A.U. after    8 cycles
 Optimization completed.
    -- Stationary point found.
 Normal termination of Gaussian 16 at Sat May 24 08:57:25 2025.

 ---------------------------------------------------------------------
 #P Geom=AllCheck Guess=TCheck SCRF=Check GenChk RM062X/def2TZVPP Freq
 ---------------------------------------------------------------------

 Structure from the checkpoint file:  "/tmp/Gau-266798.chk"
 ------------------------------
 Gaussian input prepared by ASE
 ------------------------------
 Charge =  0 Multiplicity = 1

                          Input orientation:
 ---------------------------------------------------------------------
 Center     Atomic      Atomic             Coordinates (Angstroms)
 Number     Number       Type             X           Y           Z
 ---------------------------------------------------------------------
      1          6           0        2.024582    1.964616    0.549279
      2          8           0        0.983067   -0.119278   -0.046269
      3          6           0        2.824481    1.075812    1.520448
      4          6           0        3.820287    1.929526    2.326915
      5          9           0        4.503624    1.159754    3.161302
      6          9           0        4.668675    2.532129    1.505298
      7          9           0        3.166748    2.847184    3.026026
      8          9           0        1.999056    0.479898    2.387267
      9          9           0        3.524293    0.162285    0.839608
     10          8           0        1.193691    1.456539   -0.164473
     11          1           0        0.291341   -0.202474   -0.715051
 ---------------------------------------------------------------------

 SCF Done:  E(RM062X) =  -764.464875569     A.U. after    1 cycles

 Isotropic polarizability for W=    0.000000       53.44 Bohr**3.
 End of Minotr F.D. properties file   721 does not exist.

                      1                      2                      3
                      A                      A                      A
 Frequencies --     63.5242                84.6827               138.8634
 Red. masses --     16.9983                16.4104                11.7623
 Frc consts  --      0.0404                 0.0693                 0.1336
 IR Inten    --      1.2977                 1.7563                 0.6963

                      4                      5                      6
                      A                      A                      A
 Frequencies --    164.8575               223.2246               226.4369
 Red. masses --      1.1654                 6.6929                10.3839
 Frc consts  --      0.0187                 0.1965                 0.3137
 IR Inten    --     97.9650                27.6635                21.6992

                      7                      8                      9
                      A                      A                      A
 Frequencies --    250.1538               293.6901               372.0047
 Red. masses --     17.8903                17.8316                17.8743
 Frc consts  --      0.6596                 0.9062                 1.4574
 IR Inten    --      0.2207                39.6449                46.1033

                     10                     11                     12
                      A                      A                      A
 Frequencies --    401.8407               421.4126               467.9975
 Red. masses --     16.1096                16.6955                 9.3258
 Frc consts  --      1.5326                 1.7469                 1.2034
 IR Inten    --    233.6502                 3.2727                80.0347

                     13                     14                     15
                      A                      A                      A
 Frequencies --    554.3456               560.3951               605.6768
 Red. masses --     13.3186                14.2554                15.0177
 Frc consts  --      2.4114                 2.6377                 3.2459
 IR Inten    --      3.3829                 0.5420                 0.1767

                     16                     17                     18
                      A                      A                      A
 Frequencies --    626.8181               766.9079               824.5755
 Red. masses --     15.7607                13.4753                12.1764
 Frc consts  --      3.6484                 4.6696                 4.8778
 IR Inten    --      0.1858                40.0127                 5.9697

                     19                     20                     21
                      A                      A                      A
 Frequencies --   1071.1886              1214.0369              1227.6798
 Red. masses --     11.9549                 1.2832                 7.4854
 Frc consts  --      8.0822                 1.1143                 6.6471
 IR Inten    --    201.7831               192.1537                95.6027

                     22                     23                     24
                      A                      A                      A
 Frequencies --   1242.9279              1292.7865              1293.8725
 Red. masses --     13.1763                13.1889                12.3934
 Frc consts  --     11.9933                12.9871                12.2243
 IR Inten    --    124.1380               336.9949               191.2051

                     25                     26                     27
                      A                      A                      A
 Frequencies --   1423.6672              1666.1912              3842.1813
 Red. masses --     12.4144                11.9672                 1.0684
 Frc consts  --     14.8249                19.5746                 9.2929
 IR Inten    --     34.2473               122.8633               145.4621

 - Thermochemistry -
 -------------------
 Temperature   298.150 Kelvin.  Pressure   1.00000 Atm.
 Atom     1 has atomic number  6 and mass  12.00000

 Molecular mass:   163.98967 amu.
 Principal axes and moments of inertia in atomic units:
                           1         2         3
     Eigenvalues --   721.303801912.536811989.98676
           X            0.69831  -0.17328  -0.69450
           Y            0.37186   0.91687   0.14514
           Z            0.61162  -0.35961   0.70470
 This molecule is an asymmetric top.
 Rotational symmetry number  1.
 Warning -- assumption of classical behavior for rotation
           may cause significant error
 Rotational temperatures (Kelvin)      0.12008     0.04529     0.04352
 Rotational constants (GHZ):           2.50205     0.94364     0.90691
 Zero-point vibrational energy     127533.5 (Joules/Mol)
                                   30.48124 (Kcal/Mol)
 Warning -- explicit consideration of  15 degrees of freedom as
           vibrations may cause significant error
 Vibrational temperatures:     91.40   121.84   199.79   237.19   321.17
          (Kelvin)            325.79   359.92   422.55   535.23   578.16
                              606.32   673.34   797.58   806.28   871.43
                              901.85  1103.41  1186.38  1541.20  1746.73
                             1766.36  1788.30  1860.03  1861.59  2048.34
                             2397.28  5528.04

 Zero-point correction=                           0.048575 (Hartree/Particle)
 Thermal correction to Energy=                    0.058341
 Thermal correction to Enthalpy=                  0.059285
 Thermal correction to Gibbs Free Energy=         0.013058
 Sum of electronic and zero-point Energies=           -764.416301
 Sum of electronic and thermal Energies=              -764.406535
 Sum of electronic and thermal Enthalpies=            -764.405591
 Sum of electronic and thermal Free Energies=         -764.451818

                     E (Thermal)             CV                S
                      KCal/Mol        Cal/Mol-Kelvin    Cal/Mol-Kelvin
 Total                   36.609             33.358             97.293
 Electronic               0.000              0.000              0.000
 Translational            0.889              2.981             41.192
 Rotational               0.889              2.981             29.397
 Vibrational             34.832             27.396             26.703
 Vibration     1          0.597              1.972              4.345
 Vibration     2          0.601              1.960              3.779
 Vibration     3          0.614              1.914              2.819
 Vibration     4          0.623              1.886              2.493
 Vibration     5          0.649              1.806              1.933
 Vibration     6          0.650              1.801              1.907
 Vibration     7          0.663              1.763              1.729
 Vibration     8          0.688              1.685              1.453
 Vibration     9          0.744              1.530              1.072
 Vibration    10          0.767              1.466              0.956
 Vibration    11          0.784              1.424              0.887
 Vibration    12          0.825              1.321              0.743
 Vibration    13          0.910              1.130              0.535
 Vibration    14          0.916              1.117              0.523
 Vibration    15          0.964              1.020              0.440

 Optimization completed.
    -- Stationary point found.
 Normal termination of Gaussian 16 at Sat May 24 09:00:39 2025.
