 Gaussian 16, Revision C.01,
 Gaussian 16:  ES64L-G16RevC.01  3-Jul-2019

 -----------------------------------------------------------------
 #P M062X/Def2TZVPP Symm(None) scf(xqc) pop(None) freq opt(CalcFC)
 -----------------------------------------------------------------

 ------------------------------
 Gaussian input prepared by ASE
 ------------------------------
 Symbolic Z-matrix:
 Charge =  0 Multiplicity = 1

 SCF Done:  E(RM062X) =  -764.570129706     A.U. after   13 cycles
 SCF Done:  E(RM062X) =  -764.583045157     A.U. after   15 cycles
 SCF Done:  E(RM062X) =  -764.584086928     A.U. after   11 cycles
 SCF Done:  E(RM062X) =  -764.584587547     A.U. after   11 cycles
 SCF Done:  E(RM062X) =  -764.584784222     A.U. after   10 cycles
 SCF Done:  E(RM062X) =  -764.584878314     A.U. after   10 cycles
 SCF Done:  E(RM062X) =  -764.584969576     A.U. after   10 cycles
 SCF Done:  E(RM062X) =  -764.585060391     A.U. after    9 cycles
 SCF Done:  E(RM062X) =  -764.585179000     A.U. after   11 cycles
 SCF Done:  E(RM062X) =  -764.585318534     A.U. after   10 cycles
 SCF Done:  E(RM062X) =  -764.585475234     A.U. after   11 cycles
 SCF Done:  E(RM062X) =  -764.585587487     A.U. after   10 cycles
 SCF Done:  E(RM062X) =  -764.585653969     A.U. after   10 cycles
 SCF Done:  E(RM062X) =  -764.585665996     A.U. after    9 cycles
 SCF Done:  E(RM062X) =  -764.585667048     A.U. after    8 cycles
 SCF Done:  E(RM062X) =  -764.585667181     A.U. after    7 cycles
 Optimization completed.
    -- Stationary point found.
 Normal termination of Gaussian 16 at Sat May 24 05:00:58 2025.

 ---------------------------------------------------------------------
 #P Geom=AllCheck Guess=TCheck SCRF=Check GenChk RM062X/def2TZVPP Freq
 ---------------------------------------------------------------------

 Structure from the checkpoint file:  "/tmp/Gau-84627.chk"
 ------------------------------
 Gaussian input prepared by ASE
 ------------------------------
 Charge =  0 Multiplicity = 1

                          Input orientation:
 ---------------------------------------------------------------------
 Center     Atomic      Atomic             Coordinates (Angstroms)
 Number     Number       Type             X           Y           Z
 ---------------------------------------------------------------------
      1          6           0        0.230539   -0.399624    0.460691
      2          8           0        1.476883   -0.049995    0.007479
      3          6           0        3.453719    1.128732   -0.554005
      4          6           0        2.046436    1.192058    0.075836
      5          9           0        4.013310    2.328614   -0.491756
      6          9           0        1.317334    2.109065   -0.582918
      7          9           0        2.158162    1.616751    1.345927
      8          9           0        4.204136    0.265512    0.108009
      9          9           0        3.363606    0.757388   -1.819116
     10          8           0       -0.426830    0.580396    0.994462
     11          1           0       -0.016149    1.460892    1.038061
 ---------------------------------------------------------------------

 SCF Done:  E(RM062X) =  -764.585667181     A.U. after    1 cycles

 Isotropic polarizability for W=    0.000000       46.53 Bohr**3.
 End of Minotr F.D. properties file   721 does not exist.

                      1                      2                      3
                      A                      A                      A
 Frequencies --     67.3991                75.8744               143.4433
 Red. masses --     16.1640                 7.3915                13.6230
 Frc consts  --      0.0433                 0.0251                 0.1652
 IR Inten    --      0.0014                 5.2080                 2.3356

                      4                      5                      6
                      A                      A                      A
 Frequencies --    173.5624               229.1827               254.7140
 Red. masses --      4.0038                18.1475                11.2365
 Frc consts  --      0.0711                 0.5616                 0.4295
 IR Inten    --     38.4358                 0.6730                 7.9364

                      7                      8                      9
                      A                      A                      A
 Frequencies --    319.8688               375.0388               387.3684
 Red. masses --     16.3011                18.0520                13.1762
 Frc consts  --      0.9827                 1.4960                 1.1649
 IR Inten    --      1.1744                 0.3257                 2.8903

                     10                     11                     12
                      A                      A                      A
 Frequencies --    516.5131               524.9694               603.0759
 Red. masses --     13.4932                 7.8635                14.4072
 Frc consts  --      2.1209                 1.2768                 3.0873
 IR Inten    --     11.5807                 0.7304                 0.7288

                     13                     14                     15
                      A                      A                      A
 Frequencies --    621.0125               653.7475               685.8618
 Red. masses --      7.7708                 8.4641                 1.8422
 Frc consts  --      1.7657                 2.1313                 0.5106
 IR Inten    --     12.0352                 9.1474                55.9563

                     16                     17                     18
                      A                      A                      A
 Frequencies --    785.5468               846.2522               991.6528
 Red. masses --     10.5383                12.5904                 5.8571
 Frc consts  --      3.8315                 5.3124                 3.3935
 IR Inten    --     27.9967                11.1739                91.2894

                     19                     20                     21
                      A                      A                      A
 Frequencies --   1141.4358              1196.3643              1218.6496
 Red. masses --     11.6279                10.3213                11.7717
 Frc consts  --      8.9259                 8.7039                10.3002
 IR Inten    --    715.7344                68.1815               232.0571

                     22                     23                     24
                      A                      A                      A
 Frequencies --   1297.4582              1309.5536              1315.9270
 Red. masses --     12.3424                13.0859                 1.5875
 Frc consts  --     12.2416                13.2221                 1.6197
 IR Inten    --    281.1172               315.5372               211.3881

                     25                     26                     27
                      A                      A                      A
 Frequencies --   1376.3438              1462.1030              3690.2357
 Red. masses --      8.1016                 9.5792                 1.0633
 Frc consts  --      9.0422                12.0652                 8.5314
 IR Inten    --    179.9394                 7.6274                42.4990

 - Thermochemistry -
 -------------------
 Temperature   298.150 Kelvin.  Pressure   1.00000 Atm.
 Atom     1 has atomic number  6 and mass  12.00000

 Molecular mass:   163.98967 amu.
 Principal axes and moments of inertia in atomic units:
                           1         2         3
     Eigenvalues --   709.050551819.148811895.07052
           X            0.91682  -0.09158   0.38865
           Y            0.19175   0.95474  -0.22739
           Z           -0.35024   0.28300   0.89289
 This molecule is an asymmetric top.
 Rotational symmetry number  1.
 Warning -- assumption of classical behavior for rotation
           may cause significant error
 Rotational temperatures (Kelvin)      0.12215     0.04761     0.04570
 Rotational constants (GHZ):           2.54529     0.99208     0.95233
 Zero-point vibrational energy     133163.2 (Joules/Mol)
                                   31.82678 (Kcal/Mol)
 Warning -- explicit consideration of  12 degrees of freedom as
           vibrations may cause significant error
 Vibrational temperatures:     96.97   109.17   206.38   249.72   329.74
          (Kelvin)            366.48   460.22   539.60   557.34   743.15
                              755.31   867.69   893.50   940.60   986.80
                             1130.23  1217.57  1426.77  1642.27  1721.30
                             1753.36  1866.75  1884.16  1893.33  1980.25
                             2103.64  5309.43

 Zero-point correction=                           0.050719 (Hartree/Particle)
 Thermal correction to Energy=                    0.059703
 Thermal correction to Enthalpy=                  0.060647
 Thermal correction to Gibbs Free Energy=         0.015835
 Sum of electronic and zero-point Energies=           -764.534948
 Sum of electronic and thermal Energies=              -764.525964
 Sum of electronic and thermal Enthalpies=            -764.525020
 Sum of electronic and thermal Free Energies=         -764.569832

                     E (Thermal)             CV                S
                      KCal/Mol        Cal/Mol-Kelvin    Cal/Mol-Kelvin
 Total                   37.464             31.005             94.314
 Electronic               0.000              0.000              0.000
 Translational            0.889              2.981             41.192
 Rotational               0.889              2.981             29.282
 Vibrational             35.687             25.044             23.840
 Vibration     1          0.598              1.970              4.228
 Vibration     2          0.599              1.965              3.995
 Vibration     3          0.616              1.910              2.757
 Vibration     4          0.627              1.875              2.397
 Vibration     5          0.652              1.796              1.885
 Vibration     6          0.665              1.755              1.698
 Vibration     7          0.706              1.636              1.311
 Vibration     8          0.746              1.523              1.059
 Vibration     9          0.756              1.497              1.010
 Vibration    10          0.872              1.213              0.618
 Vibration    11          0.880              1.195              0.599
 Vibration    12          0.961              1.025              0.444

 Optimization completed.
    -- Stationary point found.
 Normal termination of Gaussian 16 at Sat May 24 05:04:18 2025.
