 Gaussian 16, Revision C.01,
 Gaussian 16:  ES64L-G16RevC.01  3-Jul-2019

 -----------------------------------------------------------------
 #P M062X/Def2TZVPP Symm(None) scf(xqc) pop(None) freq opt(CalcFC)
 -----------------------------------------------------------------

 ------------------------------
 Gaussian input prepared by ASE
 ------------------------------
 Symbolic Z-matrix:
 Charge =  0 Multiplicity = 1

 SCF Done:  E(RM062X) =  -764.545225427     A.U. after   13 cycles
 SCF Done:  E(RM062X) =  -764.582524465     A.U. after   15 cycles
 SCF Done:  E(RM062X) =  -764.587950332     A.U. after   14 cycles
 SCF Done:  E(RM062X) =  -764.591133708     A.U. after   12 cycles
 SCF Done:  E(RM062X) =  -764.591785595     A.U. after   12 cycles
 SCF Done:  E(RM062X) =  -764.591968254     A.U. after   11 cycles
 SCF Done:  E(RM062X) =  -764.591997813     A.U. after   11 cycles
 SCF Done:  E(RM062X) =  -764.592004999     A.U. after    8 cycles
 SCF Done:  E(RM062X) =  -764.592011564     A.U. after    8 cycles
 SCF Done:  E(RM062X) =  -764.592018175     A.U. after    8 cycles
 SCF Done:  E(RM062X) =  -764.592022432     A.U. after    8 cycles
 SCF Done:  E(RM062X) =  -764.592023288     A.U. after    8 cycles
 Optimization completed.
    -- Stationary point found.
 Normal termination of Gaussian 16 at Sat May 24 04:56:51 2025.

 ---------------------------------------------------------------------
 #P Geom=AllCheck Guess=TCheck SCRF=Check GenChk RM062X/def2TZVPP Freq
 ---------------------------------------------------------------------

 Structure from the checkpoint file:  "/tmp/Gau-25406.chk"
 ------------------------------
 Gaussian input prepared by ASE
 ------------------------------
 Charge =  0 Multiplicity = 1

                          Input orientation:
 ---------------------------------------------------------------------
 Center     Atomic      Atomic             Coordinates (Angstroms)
 Number     Number       Type             X           Y           Z
 ---------------------------------------------------------------------
      1          6           0        0.201977   -0.426499    0.414690
      2          8           0        1.328405    0.021253   -0.156593
      3          6           0        1.304182    2.340113   -0.939131
      4          6           0        1.933629    1.266278   -0.017329
      5          9           0        1.978972    3.473490   -0.811630
      6          9           0        1.945342    1.703501    1.237659
      7          9           0        3.193007    1.099705   -0.410722
      8          9           0        1.372084    1.935252   -2.198173
      9          9           0        0.036048    2.561386   -0.629026
     10          8           0       -0.319637    0.515781    1.154531
     11          1           0       -1.126257    0.162509    1.544253
 ---------------------------------------------------------------------

 SCF Done:  E(RM062X) =  -764.592023288     A.U. after    1 cycles

 Isotropic polarizability for W=    0.000000       46.36 Bohr**3.
 End of Minotr F.D. properties file   721 does not exist.

                      1                      2                      3
                      A                      A                      A
 Frequencies --     42.6743               106.9920               162.8548
 Red. masses --     14.4245                 8.8132                13.4053
 Frc consts  --      0.0155                 0.0594                 0.2095
 IR Inten    --      0.7033                 3.3114                 2.1814

                      4                      5                      6
                      A                      A                      A
 Frequencies --    219.0238               228.6749               264.1376
 Red. masses --     15.6860                10.1288                13.5333
 Frc consts  --      0.4433                 0.3121                 0.5563
 IR Inten    --      1.7350                 1.8781                 1.6324

                      7                      8                      9
                      A                      A                      A
 Frequencies --    344.1731               360.9679               401.6967
 Red. masses --     15.9722                15.2917                13.2693
 Frc consts  --      1.1147                 1.1739                 1.2615
 IR Inten    --      0.5453                 0.5952                 0.8909

                     10                     11                     12
                      A                      A                      A
 Frequencies --    469.6245               518.9257               597.1420
 Red. masses --     15.1921                14.1443                13.1168
 Frc consts  --      1.9741                 2.2441                 2.7557
 IR Inten    --      2.3019                 7.6918                 2.2389

                     13                     14                     15
                      A                      A                      A
 Frequencies --    604.2684               701.1084               729.5144
 Red. masses --     17.3912                 4.9916                 1.3665
 Frc consts  --      3.7415                 1.4456                 0.4285
 IR Inten    --      1.8788                83.5315                42.2312

                     16                     17                     18
                      A                      A                      A
 Frequencies --    788.0328               814.7055              1088.9982
 Red. masses --      8.5039                13.8823                 8.2080
 Frc consts  --      3.1114                 5.4289                 5.7351
 IR Inten    --     22.7312                 8.4055               237.4959

                     19                     20                     21
                      A                      A                      A
 Frequencies --   1121.2529              1201.0060              1276.7048
 Red. masses --      3.5337                 8.9570                10.1504
 Frc consts  --      2.6175                 7.6120                 9.7480
 IR Inten    --    301.5006               241.2235               139.9619

                     22                     23                     24
                      A                      A                      A
 Frequencies --   1291.6411              1293.6603              1351.3703
 Red. masses --     12.3232                12.9277                 7.2749
 Frc consts  --     12.1131                12.7472                 7.8276
 IR Inten    --    228.0825               177.6517               447.9333

                     25                     26                     27
                      A                      A                      A
 Frequencies --   1368.5012              1428.0701              3865.5274
 Red. masses --      2.2681                12.1553                 1.0666
 Frc consts  --      2.5027                14.6054                 9.3904
 IR Inten    --    201.3502                16.1026               204.4297

 - Thermochemistry -
 -------------------
 Temperature   298.150 Kelvin.  Pressure   1.00000 Atm.
 Atom     1 has atomic number  6 and mass  12.00000

 Molecular mass:   163.98967 amu.
 Principal axes and moments of inertia in atomic units:
                           1         2         3
     Eigenvalues --   920.517271437.350241647.03190
           X            0.40810   0.91189   0.04381
           Y            0.70805  -0.34644   0.61534
           Z           -0.57630   0.22010   0.78704
 This molecule is an asymmetric top.
 Rotational symmetry number  1.
 Warning -- assumption of classical behavior for rotation
           may cause significant error
 Rotational temperatures (Kelvin)      0.09409     0.06026     0.05259
 Rotational constants (GHZ):           1.96057     1.25560     1.09575
 Zero-point vibrational energy     135424.7 (Joules/Mol)
                                   32.36729 (Kcal/Mol)
 Warning -- explicit consideration of  13 degrees of freedom as
           vibrations may cause significant error
 Vibrational temperatures:     61.40   153.94   234.31   315.13   329.01
          (Kelvin)            380.04   495.19   519.35   577.95   675.68
                              746.62   859.15   869.41  1008.74  1049.61
                             1133.80  1172.18  1566.83  1613.23  1727.98
                             1836.89  1858.38  1861.29  1944.32  1968.97
                             2054.67  5561.63

 Zero-point correction=                           0.051581 (Hartree/Particle)
 Thermal correction to Energy=                    0.060419
 Thermal correction to Enthalpy=                  0.061363
 Thermal correction to Gibbs Free Energy=         0.016874
 Sum of electronic and zero-point Energies=           -764.540443
 Sum of electronic and thermal Energies=              -764.531605
 Sum of electronic and thermal Enthalpies=            -764.530661
 Sum of electronic and thermal Free Energies=         -764.575150

                     E (Thermal)             CV                S
                      KCal/Mol        Cal/Mol-Kelvin    Cal/Mol-Kelvin
 Total                   37.913             30.770             93.635
 Electronic               0.000              0.000              0.000
 Translational            0.889              2.981             41.192
 Rotational               0.889              2.981             29.168
 Vibrational             36.136             24.808             23.275
 Vibration     1          0.595              1.980              5.131
 Vibration     2          0.606              1.944              3.323
 Vibration     3          0.623              1.888              2.516
 Vibration     4          0.647              1.812              1.967
 Vibration     5          0.651              1.797              1.889
 Vibration     6          0.671              1.739              1.634
 Vibration     7          0.723              1.587              1.193
 Vibration     8          0.735              1.553              1.118
 Vibration     9          0.767              1.466              0.956
 Vibration    10          0.827              1.317              0.739
 Vibration    11          0.874              1.208              0.612
 Vibration    12          0.955              1.038              0.455
 Vibration    13          0.963              1.023              0.442

                           ! Non-Optimized Parameters !
 Normal termination of Gaussian 16 at Sat May 24 05:00:07 2025.
