 Gaussian 16, Revision C.01,
 Gaussian 16:  ES64L-G16RevC.01  3-Jul-2019

 -----------------------------------------------------------------
 #P M062X/Def2TZVPP Symm(None) scf(xqc) pop(None) freq opt(CalcFC)
 -----------------------------------------------------------------

 ------------------------------
 Gaussian input prepared by ASE
 ------------------------------
 Symbolic Z-matrix:
 Charge =  0 Multiplicity = 1

 SCF Done:  E(RM062X) =  -764.542005473     A.U. after   14 cycles
 SCF Done:  E(RM062X) =  -764.581406359     A.U. after   14 cycles
 SCF Done:  E(RM062X) =  -764.585673074     A.U. after   14 cycles
 SCF Done:  E(RM062X) =  -764.590410134     A.U. after   12 cycles
 SCF Done:  E(RM062X) =  -764.591402128     A.U. after   11 cycles
 SCF Done:  E(RM062X) =  -764.591583904     A.U. after   12 cycles
 SCF Done:  E(RM062X) =  -764.591944966     A.U. after   11 cycles
 SCF Done:  E(RM062X) =  -764.592000829     A.U. after   10 cycles
 SCF Done:  E(RM062X) =  -764.592004909     A.U. after    8 cycles
 SCF Done:  E(RM062X) =  -764.592008122     A.U. after    8 cycles
 SCF Done:  E(RM062X) =  -764.592011331     A.U. after    8 cycles
 SCF Done:  E(RM062X) =  -764.592014058     A.U. after    8 cycles
 SCF Done:  E(RM062X) =  -764.592017010     A.U. after    8 cycles
 SCF Done:  E(RM062X) =  -764.592018746     A.U. after    8 cycles
 SCF Done:  E(RM062X) =  -764.592020975     A.U. after    8 cycles
 SCF Done:  E(RM062X) =  -764.592021764     A.U. after    8 cycles
 SCF Done:  E(RM062X) =  -764.592021863     A.U. after    7 cycles
 Optimization completed.
    -- Stationary point found.
 Normal termination of Gaussian 16 at Sat May 24 04:57:27 2025.

 ---------------------------------------------------------------------
 #P Geom=AllCheck Guess=TCheck SCRF=Check GenChk RM062X/def2TZVPP Freq
 ---------------------------------------------------------------------

 Structure from the checkpoint file:  "/tmp/Gau-233606.chk"
 ------------------------------
 Gaussian input prepared by ASE
 ------------------------------
 Charge =  0 Multiplicity = 1

                          Input orientation:
 ---------------------------------------------------------------------
 Center     Atomic      Atomic             Coordinates (Angstroms)
 Number     Number       Type             X           Y           Z
 ---------------------------------------------------------------------
      1          6           0       -0.004023   -0.192231    0.320094
      2          8           0        1.194075    0.122967   -0.190431
      3          6           0        1.457628    2.412371   -1.013491
      4          6           0        1.917348    1.301726   -0.036894
      5          9           0        2.240424    3.471696   -0.868156
      6          9           0        1.901839    1.765195    1.208670
      7          9           0        3.173069    0.996715   -0.350830
      8          9           0        1.552358    1.971774   -2.258748
      9          9           0        0.204764    2.772586   -0.781337
     10          8           0       -0.465104    0.815613    1.012130
     11          1           0       -1.325299    0.556732    1.359193
 ---------------------------------------------------------------------

 SCF Done:  E(RM062X) =  -764.592021863     A.U. after    1 cycles

 Isotropic polarizability for W=    0.000000       46.37 Bohr**3.
 End of Minotr F.D. properties file   721 does not exist.

                      1                      2                      3
                      A                      A                      A
 Frequencies --     40.8316               107.0248               163.1599
 Red. masses --     14.3743                 8.7808                13.4443
 Frc consts  --      0.0141                 0.0593                 0.2109
 IR Inten    --      0.7106                 3.2740                 2.2353

                      4                      5                      6
                      A                      A                      A
 Frequencies --    217.6879               227.9257               264.2840
 Red. masses --     16.3607                 9.8369                13.5562
 Frc consts  --      0.4568                 0.3011                 0.5579
 IR Inten    --      1.7168                 1.7715                 1.6464

                      7                      8                      9
                      A                      A                      A
 Frequencies --    344.2208               361.1054               401.7397
 Red. masses --     15.9598                15.2928                13.2331
 Frc consts  --      1.1142                 1.1749                 1.2583
 IR Inten    --      0.5378                 0.5995                 0.9107

                     10                     11                     12
                      A                      A                      A
 Frequencies --    469.4333               518.5868               596.9099
 Red. masses --     15.1817                14.1127                13.0724
 Frc consts  --      1.9711                 2.2362                 2.7442
 IR Inten    --      2.3173                 7.7858                 2.3116

                     13                     14                     15
                      A                      A                      A
 Frequencies --    604.0626               700.6535               728.5451
 Red. masses --     17.3821                 4.7219                 1.3893
 Frc consts  --      3.7369                 1.3657                 0.4345
 IR Inten    --      1.8826                85.3256                40.1067

                     16                     17                     18
                      A                      A                      A
 Frequencies --    787.6665               814.5459              1088.9880
 Red. masses --      8.4474                13.9239                 8.1146
 Frc consts  --      3.0879                 5.4431                 5.6697
 IR Inten    --     23.2627                 8.4165               235.6238

                     19                     20                     21
                      A                      A                      A
 Frequencies --   1121.0644              1200.4472              1276.3863
 Red. masses --      3.5319                 8.9725                10.1146
 Frc consts  --      2.6153                 7.6182                 9.7087
 IR Inten    --    301.6666               242.3521               137.4841

                     22                     23                     24
                      A                      A                      A
 Frequencies --   1292.5885              1293.9137              1350.8420
 Red. masses --     12.0694                13.1098                 7.3390
 Frc consts  --     11.8811                12.9317                 7.8904
 IR Inten    --    191.9449               212.3561               450.3859

                     25                     26                     27
                      A                      A                      A
 Frequencies --   1367.4343              1427.3556              3866.1184
 Red. masses --      2.2811                12.1555                 1.0666
 Frc consts  --      2.5130                14.5911                 9.3932
 IR Inten    --    201.8606                16.4573               204.2751

 - Thermochemistry -
 -------------------
 Temperature   298.150 Kelvin.  Pressure   1.00000 Atm.
 Atom     1 has atomic number  6 and mass  12.00000

 Molecular mass:   163.98967 amu.
 Principal axes and moments of inertia in atomic units:
                           1         2         3
     Eigenvalues --   920.413451437.346581646.77910
           X            0.51238   0.85650   0.06235
           Y            0.64813  -0.43331   0.62623
           Z           -0.56338   0.28046   0.77714
 This molecule is an asymmetric top.
 Rotational symmetry number  1.
 Warning -- assumption of classical behavior for rotation
           may cause significant error
 Rotational temperatures (Kelvin)      0.09410     0.06026     0.05260
 Rotational constants (GHZ):           1.96079     1.25561     1.09592
 Zero-point vibrational energy     135378.5 (Joules/Mol)
                                   32.35624 (Kcal/Mol)
 Warning -- explicit consideration of  13 degrees of freedom as
           vibrations may cause significant error
 Vibrational temperatures:     58.75   153.98   234.75   313.20   327.93
          (Kelvin)            380.25   495.26   519.55   578.01   675.41
                              746.13   858.82   869.11  1008.08  1048.21
                             1133.28  1171.95  1566.81  1612.96  1727.18
                             1836.44  1859.75  1861.65  1943.56  1967.43
                             2053.65  5562.48

 Zero-point correction=                           0.051563 (Hartree/Particle)
 Thermal correction to Energy=                    0.060408
 Thermal correction to Enthalpy=                  0.061353
 Thermal correction to Gibbs Free Energy=         0.016815
 Sum of electronic and zero-point Energies=           -764.540459
 Sum of electronic and thermal Energies=              -764.531613
 Sum of electronic and thermal Enthalpies=            -764.530669
 Sum of electronic and thermal Free Energies=         -764.575207

                     E (Thermal)             CV                S
                      KCal/Mol        Cal/Mol-Kelvin    Cal/Mol-Kelvin
 Total                   37.907             30.779             93.737
 Electronic               0.000              0.000              0.000
 Translational            0.889              2.981             41.192
 Rotational               0.889              2.981             29.167
 Vibrational             36.129             24.818             23.378
 Vibration     1          0.594              1.981              5.218
 Vibration     2          0.606              1.944              3.322
 Vibration     3          0.623              1.888              2.513
 Vibration     4          0.646              1.814              1.978
 Vibration     5          0.651              1.798              1.895
 Vibration     6          0.671              1.738              1.633
 Vibration     7          0.723              1.587              1.193
 Vibration     8          0.735              1.552              1.117
 Vibration     9          0.767              1.466              0.956
 Vibration    10          0.827              1.318              0.739
 Vibration    11          0.874              1.209              0.613
 Vibration    12          0.955              1.038              0.455
 Vibration    13          0.963              1.023              0.443

 Optimization completed.
    -- Stationary point found.
 Normal termination of Gaussian 16 at Sat May 24 05:01:02 2025.
