 Gaussian 16, Revision C.01,
 Gaussian 16:  ES64L-G16RevC.01  3-Jul-2019

 ------------------------------------------
 #P am1 Symm(None) scf(xqc) pop(None) force
 ------------------------------------------

 ------------------------------
 Gaussian input prepared by ASE
 ------------------------------
 Symbolic Z-matrix:
 Charge =  0 Multiplicity = 1

                          Input orientation:
 ---------------------------------------------------------------------
 Center     Atomic      Atomic             Coordinates (Angstroms)
 Number     Number       Type             X           Y           Z
 ---------------------------------------------------------------------
      1          6           0        2.417080    1.126102   -0.126129
      2          8           0        1.995519    1.486051    0.973315
      3          6           0        1.966876   -0.201317   -0.037635
      4          6           0        1.749410   -0.899036    1.304954
      5          9           0        1.783346   -2.229094    1.159192
      6          9           0        2.660561   -0.619278    2.198683
      7          9           0        0.574860   -0.633332    1.849607
      8          9           0        0.267840    1.730836    0.208759
      9          9           0        1.750797   -0.942237   -1.064036
     10          8           0        2.945091    1.847613   -1.118539
     11          1           0        2.777556    2.779976   -0.930250
 ---------------------------------------------------------------------

 SCF Done:  E(RAM1) =   3.06993838923     A.U. after   23 cycles
 Normal termination of Gaussian 16 at Sat May 24 07:31:35 2025.
