 Gaussian 16, Revision C.01,
 Gaussian 16:  ES64L-G16RevC.01  3-Jul-2019

 -----------------------------------------------------------------
 #P M062X/Def2TZVPP Symm(None) scf(xqc) pop(None) freq opt(CalcFC)
 -----------------------------------------------------------------

 ------------------------------
 Gaussian input prepared by ASE
 ------------------------------
 Symbolic Z-matrix:
 Charge =  0 Multiplicity = 1

 SCF Done:  E(RM062X) =  -764.404798924     A.U. after   18 cycles
 SCF Done:  E(RM062X) =  -764.436416214     A.U. after   16 cycles
 SCF Done:  E(RM062X) =  -764.419410607     A.U. after   17 cycles
 SCF Done:  E(RM062X) =  -764.454566606     A.U. after   17 cycles
 SCF Done:  E(RM062X) =  -764.443241104     A.U. after   19 cycles
 SCF Done:  E(RM062X) =  -764.458498057     A.U. after   16 cycles
 SCF Done:  E(RM062X) =  -764.460806302     A.U. after   14 cycles
 SCF Done:  E(RM062X) =  -764.461514570     A.U. after   14 cycles
 SCF Done:  E(RM062X) =  -764.462213541     A.U. after   14 cycles
 SCF Done:  E(RM062X) =  -764.462588940     A.U. after   14 cycles
 SCF Done:  E(RM062X) =  -764.462956819     A.U. after   14 cycles
 SCF Done:  E(RM062X) =  -764.463129555     A.U. after   13 cycles
 SCF Done:  E(RM062X) =  -764.463237470     A.U. after   14 cycles
 SCF Done:  E(RM062X) =  -764.463262615     A.U. after   12 cycles
 SCF Done:  E(RM062X) =  -764.463271155     A.U. after   10 cycles
 SCF Done:  E(RM062X) =  -764.463274819     A.U. after   10 cycles
 SCF Done:  E(RM062X) =  -764.463277854     A.U. after   10 cycles
 SCF Done:  E(RM062X) =  -764.463280236     A.U. after   10 cycles
 SCF Done:  E(RM062X) =  -764.463280988     A.U. after   10 cycles
 Optimization completed.
    -- Stationary point found.
 Normal termination of Gaussian 16 at Sat May 24 08:57:20 2025.

 ---------------------------------------------------------------------
 #P Geom=AllCheck Guess=TCheck SCRF=Check GenChk RM062X/def2TZVPP Freq
 ---------------------------------------------------------------------

 Structure from the checkpoint file:  "/tmp/Gau-209353.chk"
 ------------------------------
 Gaussian input prepared by ASE
 ------------------------------
 Charge =  0 Multiplicity = 1

                          Input orientation:
 ---------------------------------------------------------------------
 Center     Atomic      Atomic             Coordinates (Angstroms)
 Number     Number       Type             X           Y           Z
 ---------------------------------------------------------------------
      1          6           0        0.790469    2.010999    1.174273
      2          8           0        0.805301   -0.138654    0.027438
      3          6           0        1.542697    1.333019    2.322655
      4          6           0        0.553219    0.666957    3.311715
      5          9           0        1.232923    0.117904    4.304585
      6          9           0       -0.266924    1.586997    3.804837
      7          9           0       -0.164814   -0.265276    2.708697
      8          9           0        2.439994    0.431441    1.919129
      9          9           0        2.198210    2.287949    2.999643
     10          8           0        0.445875    1.433078    0.179540
     11          1           0        0.252665   -0.300924   -0.747780
 ---------------------------------------------------------------------

 SCF Done:  E(RM062X) =  -764.463280988     A.U. after    1 cycles

 Isotropic polarizability for W=    0.000000       53.98 Bohr**3.
 End of Minotr F.D. properties file   721 does not exist.

                      1                      2                      3
                      A                      A                      A
 Frequencies --     40.2933                95.2946               155.1364
 Red. masses --     15.4098                 8.9252                 9.0626
 Frc consts  --      0.0147                 0.0478                 0.1285
 IR Inten    --      0.1541                 0.6915                 6.3757

                      4                      5                      6
                      A                      A                      A
 Frequencies --    189.2455               210.1767               217.0793
 Red. masses --      2.3902                 2.6942                 4.8081
 Frc consts  --      0.0504                 0.0701                 0.1335
 IR Inten    --     48.7403                54.3806                20.6902

                      7                      8                      9
                      A                      A                      A
 Frequencies --    263.8242               286.5343               364.2121
 Red. masses --     14.6790                15.7093                17.5936
 Frc consts  --      0.6020                 0.7599                 1.3750
 IR Inten    --     82.9466                21.2008                 2.5889

                     10                     11                     12
                      A                      A                      A
 Frequencies --    390.9918               460.2849               473.5344
 Red. masses --     16.5975                 9.3448                14.7836
 Frc consts  --      1.4950                 1.1665                 1.9531
 IR Inten    --    175.2685                87.9752                11.6573

                     13                     14                     15
                      A                      A                      A
 Frequencies --    515.2942               565.0580               599.1106
 Red. masses --     13.7643                15.3411                17.2114
 Frc consts  --      2.1533                 2.8860                 3.6398
 IR Inten    --      4.0840                 4.6942                 5.8885

                     16                     17                     18
                      A                      A                      A
 Frequencies --    688.9292               736.7571               803.7121
 Red. masses --     15.0231                10.3839                15.1175
 Frc consts  --      4.2011                 3.3209                 5.7535
 IR Inten    --      9.9983                33.6061                 4.4011

                     19                     20                     21
                      A                      A                      A
 Frequencies --   1046.9913              1191.9839              1211.5297
 Red. masses --     13.0454                 1.2000                10.5879
 Frc consts  --      8.4255                 1.0045                 9.1565
 IR Inten    --    111.9426                80.9694               219.0646

                     22                     23                     24
                      A                      A                      A
 Frequencies --   1250.7829              1287.3618              1302.3365
 Red. masses --     12.8282                13.0815                13.0768
 Frc consts  --     11.8244                12.7735                13.0676
 IR Inten    --    186.4263               234.1839               199.1324

                     25                     26                     27
                      A                      A                      A
 Frequencies --   1365.4950              1703.9480              3844.1278
 Red. masses --     12.5568                12.3164                 1.0683
 Frc consts  --     13.7946                21.0691                 9.3011
 IR Inten    --    132.8473               154.8644               133.8396

 - Thermochemistry -
 -------------------
 Temperature   298.150 Kelvin.  Pressure   1.00000 Atm.
 Atom     1 has atomic number  6 and mass  12.00000

 Molecular mass:   163.98967 amu.
 Principal axes and moments of inertia in atomic units:
                           1         2         3
     Eigenvalues --   942.768411544.120381728.27793
           X           -0.02086   0.76267  -0.64645
           Y            0.03916   0.64672   0.76173
           Z            0.99902  -0.00943  -0.04336
 This molecule is an asymmetric top.
 Rotational symmetry number  1.
 Warning -- assumption of classical behavior for rotation
           may cause significant error
 Rotational temperatures (Kelvin)      0.09187     0.05609     0.05012
 Rotational constants (GHZ):           1.91430     1.16878     1.04424
 Zero-point vibrational energy     127163.2 (Joules/Mol)
                                   30.39273 (Kcal/Mol)
 Warning -- explicit consideration of  15 degrees of freedom as
           vibrations may cause significant error
 Vibrational temperatures:     57.97   137.11   223.21   272.28   302.40
          (Kelvin)            312.33   379.58   412.26   524.02   562.55
                              662.25   681.31   741.39   812.99   861.99
                              991.22  1060.03  1156.36  1506.39  1715.00
                             1743.12  1799.60  1852.23  1873.77  1964.64
                             2451.60  5530.84

 Zero-point correction=                           0.048434 (Hartree/Particle)
 Thermal correction to Energy=                    0.058184
 Thermal correction to Enthalpy=                  0.059128
 Thermal correction to Gibbs Free Energy=         0.012784
 Sum of electronic and zero-point Energies=           -764.414847
 Sum of electronic and thermal Energies=              -764.405097
 Sum of electronic and thermal Enthalpies=            -764.404153
 Sum of electronic and thermal Free Energies=         -764.450497

                     E (Thermal)             CV                S
                      KCal/Mol        Cal/Mol-Kelvin    Cal/Mol-Kelvin
 Total                   36.511             33.386             97.538
 Electronic               0.000              0.000              0.000
 Translational            0.889              2.981             41.192
 Rotational               0.889              2.981             29.310
 Vibrational             34.733             27.424             27.036
 Vibration     1          0.594              1.981              5.245
 Vibration     2          0.603              1.953              3.548
 Vibration     3          0.620              1.897              2.608
 Vibration     4          0.633              1.855              2.235
 Vibration     5          0.642              1.825              2.042
 Vibration     6          0.646              1.815              1.983
 Vibration     7          0.670              1.739              1.636
 Vibration     8          0.684              1.699              1.494
 Vibration     9          0.738              1.546              1.104
 Vibration    10          0.759              1.489              0.996
 Vibration    11          0.818              1.338              0.765
 Vibration    12          0.830              1.309              0.728
 Vibration    13          0.870              1.216              0.621
 Vibration    14          0.921              1.107              0.514
 Vibration    15          0.957              1.034              0.451

                           ! Non-Optimized Parameters !
 Normal termination of Gaussian 16 at Sat May 24 09:00:49 2025.
