 Gaussian 16, Revision C.01,
 Gaussian 16:  ES64L-G16RevC.01  3-Jul-2019

 ------------------------------------------
 #P am1 Symm(None) scf(xqc) pop(None) force
 ------------------------------------------

 ------------------------------
 Gaussian input prepared by ASE
 ------------------------------
 Symbolic Z-matrix:
 Charge =  0 Multiplicity = 1

                          Input orientation:
 ---------------------------------------------------------------------
 Center     Atomic      Atomic             Coordinates (Angstroms)
 Number     Number       Type             X           Y           Z
 ---------------------------------------------------------------------
      1          6           0        2.341383    1.219335   -0.092588
      2          8           0        1.878336    2.177395    0.526898
      3          6           0        1.903619   -0.114849   -0.063060
      4          6           0        1.631572   -0.886114    1.228369
      5          9           0        2.092044   -2.139615    1.138079
      6          9           0        2.209651   -0.372688    2.281664
      7          9           0        0.346686   -1.011798    1.511366
      8          9           0        0.457294    1.356172    1.494147
      9          9           0        1.820283   -0.789612   -1.152509
     10          8           0        3.071295    1.525820   -1.168481
     11          1           0        3.136773    2.482236   -1.285966
 ---------------------------------------------------------------------

 SCF Done:  E(RAM1) =   3.04119728908     A.U. after   25 cycles
 Normal termination of Gaussian 16 at Sat May 24 07:31:15 2025.
