 Gaussian 16, Revision C.01,
 Gaussian 16:  ES64L-G16RevC.01  3-Jul-2019

 -----------------------------------------------------------------
 #P M062X/Def2TZVPP Symm(None) scf(xqc) pop(None) freq opt(CalcFC)
 -----------------------------------------------------------------

 ------------------------------
 Gaussian input prepared by ASE
 ------------------------------
 Symbolic Z-matrix:
 Charge =  0 Multiplicity = 1

 SCF Done:  E(RM062X) =  -764.400588349     A.U. after   19 cycles
 SCF Done:  E(RM062X) =  -764.433946317     A.U. after   18 cycles
 SCF Done:  E(RM062X) =  -764.440959387     A.U. after   17 cycles
 SCF Done:  E(RM062X) =  -764.457559043     A.U. after   16 cycles
 SCF Done:  E(RM062X) =  -764.458674884     A.U. after   16 cycles
 SCF Done:  E(RM062X) =  -764.461554764     A.U. after   14 cycles
 SCF Done:  E(RM062X) =  -764.462681381     A.U. after   14 cycles
 SCF Done:  E(RM062X) =  -764.463150695     A.U. after   13 cycles
 SCF Done:  E(RM062X) =  -764.463452063     A.U. after   14 cycles
 SCF Done:  E(RM062X) =  -764.463665617     A.U. after   14 cycles
 SCF Done:  E(RM062X) =  -764.464578902     A.U. after   13 cycles
 SCF Done:  E(RM062X) =  -764.464675662     A.U. after   12 cycles
 SCF Done:  E(RM062X) =  -764.464747415     A.U. after   12 cycles
 SCF Done:  E(RM062X) =  -764.464793243     A.U. after   11 cycles
 SCF Done:  E(RM062X) =  -764.464821246     A.U. after   12 cycles
 SCF Done:  E(RM062X) =  -764.464846785     A.U. after   12 cycles
 SCF Done:  E(RM062X) =  -764.464865601     A.U. after   12 cycles
 SCF Done:  E(RM062X) =  -764.464874654     A.U. after   10 cycles
 SCF Done:  E(RM062X) =  -764.464874981     A.U. after    9 cycles
 Optimization completed.
    -- Stationary point found.
 Normal termination of Gaussian 16 at Sat May 24 08:58:09 2025.

 ---------------------------------------------------------------------
 #P Geom=AllCheck Guess=TCheck SCRF=Check GenChk RM062X/def2TZVPP Freq
 ---------------------------------------------------------------------

 Structure from the checkpoint file:  "/tmp/Gau-66727.chk"
 ------------------------------
 Gaussian input prepared by ASE
 ------------------------------
 Charge =  0 Multiplicity = 1

                          Input orientation:
 ---------------------------------------------------------------------
 Center     Atomic      Atomic             Coordinates (Angstroms)
 Number     Number       Type             X           Y           Z
 ---------------------------------------------------------------------
      1          6           0        2.031580    1.963088   -0.543123
      2          8           0        0.978829   -0.118198    0.043763
      3          6           0        2.833153    1.072576   -1.511446
      4          6           0        3.835705    1.923863   -2.312103
      5          9           0        4.520293    1.152791   -3.144255
      6          9           0        3.188590    2.844664   -3.013080
      7          9           0        4.682290    2.522514   -1.485764
      8          9           0        3.526588    0.156246   -0.827928
      9          9           0        2.010165    0.480264   -2.382965
     10          8           0        1.195097    1.457232    0.165387
     11          1           0        0.287253   -0.200579    0.712803
 ---------------------------------------------------------------------

 SCF Done:  E(RM062X) =  -764.464874981     A.U. after    1 cycles

 Isotropic polarizability for W=    0.000000       53.46 Bohr**3.
 End of Minotr F.D. properties file   721 does not exist.

                      1                      2                      3
                      A                      A                      A
 Frequencies --     63.4728                84.7771               138.8498
 Red. masses --     17.0279                16.3760                11.7672
 Frc consts  --      0.0404                 0.0693                 0.1337
 IR Inten    --      1.3294                 1.8506                 0.7001

                      4                      5                      6
                      A                      A                      A
 Frequencies --    164.6627               223.3308               226.5193
 Red. masses --      1.1659                 6.6646                10.4116
 Frc consts  --      0.0186                 0.1959                 0.3148
 IR Inten    --     97.7816                27.7304                21.8393

                      7                      8                      9
                      A                      A                      A
 Frequencies --    250.2086               293.6263               371.9801
 Red. masses --     17.8943                17.8329                17.8649
 Frc consts  --      0.6600                 0.9059                 1.4564
 IR Inten    --      0.2236                39.9601                47.1451

                     10                     11                     12
                      A                      A                      A
 Frequencies --    401.5352               421.4066               467.6782
 Red. masses --     16.1150                16.6917                 9.3091
 Frc consts  --      1.5308                 1.7464                 1.1996
 IR Inten    --    233.5406                 3.2831                78.7335

                     13                     14                     15
                      A                      A                      A
 Frequencies --    554.2680               560.3921               605.6128
 Red. masses --     13.3189                14.2527                15.0213
 Frc consts  --      2.4108                 2.6371                 3.2460
 IR Inten    --      3.4177                 0.5376                 0.1772

                     16                     17                     18
                      A                      A                      A
 Frequencies --    626.8257               766.8209               824.4170
 Red. masses --     15.7589                13.4612                12.1819
 Frc consts  --      3.6481                 4.6636                 4.8782
 IR Inten    --      0.1870                40.1302                 5.9464

                     19                     20                     21
                      A                      A                      A
 Frequencies --   1071.0924              1213.3309              1227.5324
 Red. masses --     11.9519                 1.2732                 7.8490
 Frc consts  --      8.0787                 1.1044                 6.9683
 IR Inten    --    201.8573               188.0931                99.5070

                     22                     23                     24
                      A                      A                      A
 Frequencies --   1243.0774              1292.7708              1293.8340
 Red. masses --     13.1747                13.1905                12.4023
 Frc consts  --     11.9947                12.9883                12.2323
 IR Inten    --    123.8071               337.5519               191.1976

                     25                     26                     27
                      A                      A                      A
 Frequencies --   1423.6499              1666.7606              3842.2140
 Red. masses --     12.4155                11.9826                 1.0684
 Frc consts  --     14.8259                19.6132                 9.2930
 IR Inten    --     34.2599               123.7450               145.4439

 - Thermochemistry -
 -------------------
 Temperature   298.150 Kelvin.  Pressure   1.00000 Atm.
 Atom     1 has atomic number  6 and mass  12.00000

 Molecular mass:   163.98967 amu.
 Principal axes and moments of inertia in atomic units:
                           1         2         3
     Eigenvalues --   721.333031912.564441990.03261
           X            0.70267  -0.17183   0.69045
           Y            0.37021   0.91700  -0.14854
           Z           -0.60762   0.35999   0.70796
 This molecule is an asymmetric top.
 Rotational symmetry number  1.
 Warning -- assumption of classical behavior for rotation
           may cause significant error
 Rotational temperatures (Kelvin)      0.12007     0.04529     0.04352
 Rotational constants (GHZ):           2.50195     0.94362     0.90689
 Zero-point vibrational energy     127525.8 (Joules/Mol)
                                   30.47939 (Kcal/Mol)
 Warning -- explicit consideration of  15 degrees of freedom as
           vibrations may cause significant error
 Vibrational temperatures:     91.32   121.98   199.77   236.91   321.32
          (Kelvin)            325.91   359.99   422.46   535.20   577.72
                              606.31   672.88   797.47   806.28   871.34
                              901.86  1103.28  1186.15  1541.06  1745.71
                             1766.15  1788.51  1860.01  1861.54  2048.31
                             2398.10  5528.09

 Zero-point correction=                           0.048572 (Hartree/Particle)
 Thermal correction to Energy=                    0.058338
 Thermal correction to Enthalpy=                  0.059283
 Thermal correction to Gibbs Free Energy=         0.013054
 Sum of electronic and zero-point Energies=           -764.416303
 Sum of electronic and thermal Energies=              -764.406537
 Sum of electronic and thermal Enthalpies=            -764.405592
 Sum of electronic and thermal Free Energies=         -764.451821

                     E (Thermal)             CV                S
                      KCal/Mol        Cal/Mol-Kelvin    Cal/Mol-Kelvin
 Total                   36.608             33.360             97.296
 Electronic               0.000              0.000              0.000
 Translational            0.889              2.981             41.192
 Rotational               0.889              2.981             29.397
 Vibrational             34.830             27.399             26.706
 Vibration     1          0.597              1.972              4.346
 Vibration     2          0.601              1.960              3.777
 Vibration     3          0.614              1.914              2.820
 Vibration     4          0.623              1.886              2.496
 Vibration     5          0.649              1.806              1.932
 Vibration     6          0.650              1.801              1.906
 Vibration     7          0.663              1.762              1.729
 Vibration     8          0.688              1.686              1.453
 Vibration     9          0.744              1.530              1.072
 Vibration    10          0.767              1.467              0.957
 Vibration    11          0.784              1.424              0.887
 Vibration    12          0.825              1.322              0.744
 Vibration    13          0.910              1.130              0.535
 Vibration    14          0.916              1.117              0.523
 Vibration    15          0.964              1.020              0.440

                           ! Non-Optimized Parameters !
 Normal termination of Gaussian 16 at Sat May 24 09:01:25 2025.
