 Gaussian 16, Revision C.01,
 Gaussian 16:  ES64L-G16RevC.01  3-Jul-2019

 ----------------------------------------------------------------------
 #P M062X/Def2TZVPP Symm(None) scf(xqc) pop(None) opt(NoFreeze,TS,CalcA
 ll,NoEigentest,MaxCycle=999)
 ----------------------------------------------------------------------

 ------------------------------
 Gaussian input prepared by ASE
 ------------------------------
 Symbolic Z-matrix:
 Charge =  0 Multiplicity = 1

 SCF Done:  E(RM062X) =  -764.529106813     A.U. after   17 cycles
 SCF Done:  E(RM062X) =  -764.529106883     A.U. after    7 cycles

 Isotropic polarizability for W=    0.000000       51.13 Bohr**3.
 End of Minotr F.D. properties file   721 does not exist.

 Optimization completed.
    -- Stationary point found.

                          Input orientation:
 ---------------------------------------------------------------------
 Center     Atomic      Atomic             Coordinates (Angstroms)
 Number     Number       Type             X           Y           Z
 ---------------------------------------------------------------------
      1          6           0        1.554992   -0.000126    0.000054
      2          8           0        2.147544   -0.849135   -0.672742
      3          6           0       -0.000097    0.000282    0.000216
      4          6           0        1.589075   -0.415703    1.664866
      5          9           0        0.947709    0.423175    2.480219
      6          9           0        1.117112   -1.638750    1.870086
      7          9           0        2.869790   -0.388005    1.958883
      8          9           0       -0.728383    0.909313    0.492241
      9          9           0       -0.626587   -1.083543   -0.146233
     10          8           0        1.926500    1.346546   -0.000307
     11          1           0        2.759502    1.358388   -0.485922
 ---------------------------------------------------------------------

 ******    1 imaginary frequencies (negative Signs) ******

                      1                      2                      3
                      A                      A                      A
 Frequencies --   -300.9814                49.7923               110.1655
 Red. masses --      8.4615                18.1176                14.7712
 Frc consts  --      0.4516                 0.0265                 0.1056
 IR Inten    --     89.7322                 0.2288                 1.9126

                      4                      5                      6
                      A                      A                      A
 Frequencies --    158.0547               201.2665               214.4694
 Red. masses --     11.8762                14.7999                14.7953
 Frc consts  --      0.1748                 0.3532                 0.4010
 IR Inten    --      3.1911                 0.5090                 1.6986

                      7                      8                      9
                      A                      A                      A
 Frequencies --    265.4079               282.1322               333.2315
 Red. masses --      2.5180                 3.2959                13.8956
 Frc consts  --      0.1045                 0.1546                 0.9091
 IR Inten    --     24.7808                35.3672                10.2741

                     10                     11                     12
                      A                      A                      A
 Frequencies --    362.7070               476.0314               515.7705
 Red. masses --      3.6857                14.5982                 9.4706
 Frc consts  --      0.2857                 1.9490                 1.4844
 IR Inten    --     14.2831                 4.6051                19.4092

                     13                     14                     15
                      A                      A                      A
 Frequencies --    550.1697               589.3075               631.6917
 Red. masses --      7.0829                15.6795                 9.3328
 Frc consts  --      1.2632                 3.2082                 2.1942
 IR Inten    --     56.0379                 3.7068                42.1318

                     16                     17                     18
                      A                      A                      A
 Frequencies --    676.6204               754.1052               762.9338
 Red. masses --     12.0407                15.6540                 9.6536
 Frc consts  --      3.2478                 5.2449                 3.3107
 IR Inten    --      0.5565                25.4274                 7.8403

                     19                     20                     21
                      A                      A                      A
 Frequencies --   1025.7573              1094.9668              1246.8194
 Red. masses --      5.6932                13.7158                12.8911
 Frc consts  --      3.5294                 9.6889                11.8072
 IR Inten    --    286.0619               395.8908               182.3432

                     22                     23                     24
                      A                      A                      A
 Frequencies --   1283.4691              1308.7494              1440.8967
 Red. masses --      2.3271                 3.9159                11.5355
 Frc consts  --      2.2586                 3.9518                14.1108
 IR Inten    --     34.1908               205.7535               271.9101

                     25                     26                     27
                      A                      A                      A
 Frequencies --   1481.8910              1585.9229              3854.6950
 Red. masses --     12.2784                 8.2874                 1.0654
 Frc consts  --     15.8863                12.2809                 9.3271
 IR Inten    --    271.7034               472.9467               130.6417

 - Thermochemistry -
 -------------------
 Temperature   298.150 Kelvin.  Pressure   1.00000 Atm.
 Atom     1 has atomic number  6 and mass  12.00000

 Molecular mass:   163.98967 amu.
 Principal axes and moments of inertia in atomic units:
                           1         2         3
     Eigenvalues --  1032.171121415.516871523.26086
           X            0.81639  -0.57189  -0.08031
           Y           -0.12475  -0.31042   0.94238
           Z            0.56387   0.75933   0.32477
 This molecule is an asymmetric top.
 Rotational symmetry number  1.
 Warning -- assumption of classical behavior for rotation
           may cause significant error
 Rotational temperatures (Kelvin)      0.08391     0.06119     0.05686
 Rotational constants (GHZ):           1.74849     1.27497     1.18479
    1 imaginary frequencies ignored.
 Zero-point vibrational energy     127145.2 (Joules/Mol)
                                   30.38844 (Kcal/Mol)
 Warning -- explicit consideration of  13 degrees of freedom as
           vibrations may cause significant error
 Vibrational temperatures:     71.64   158.50   227.41   289.58   308.57
          (Kelvin)            381.86   405.93   479.45   521.85   684.90
                              742.08   791.57   847.88   908.86   973.51
                             1084.99  1097.69  1475.84  1575.41  1793.90
                             1846.63  1883.00  2073.13  2132.11  2281.79
                             5546.05

 Zero-point correction=                           0.048427 (Hartree/Particle)
 Thermal correction to Energy=                    0.057542
 Thermal correction to Enthalpy=                  0.058486
 Thermal correction to Gibbs Free Energy=         0.013576
 Sum of electronic and zero-point Energies=           -764.480680
 Sum of electronic and thermal Energies=              -764.471565
 Sum of electronic and thermal Enthalpies=            -764.470621
 Sum of electronic and thermal Free Energies=         -764.515531

                     E (Thermal)             CV                S
                      KCal/Mol        Cal/Mol-Kelvin    Cal/Mol-Kelvin
 Total                   36.108             31.365             94.521
 Electronic               0.000              0.000              0.000
 Translational            0.889              2.981             41.192
 Rotational               0.889              2.981             29.188
 Vibrational             34.331             25.404             24.140
 Vibration     1          0.595              1.978              4.826
 Vibration     2          0.606              1.941              3.266
 Vibration     3          0.621              1.894              2.573
 Vibration     4          0.638              1.838              2.121
 Vibration     5          0.644              1.819              2.005
 Vibration     6          0.671              1.736              1.626
 Vibration     7          0.681              1.707              1.521
 Vibration     8          0.715              1.609              1.244
 Vibration     9          0.737              1.549              1.110
 Vibration    10          0.833              1.303              0.721
 Vibration    11          0.871              1.215              0.620
 Vibration    12          0.905              1.139              0.544
 Vibration    13          0.947              1.055              0.468

 Normal termination of Gaussian 16 at Sat May 24 05:10:20 2025.
