 Gaussian 16, Revision C.01,
 Gaussian 16:  ES64L-G16RevC.01  3-Jul-2019

 ----------------------------------------------------------------------
 #P M062X/Def2TZVPP Symm(None) scf(xqc) pop(None) opt(NoFreeze,TS,CalcA
 ll,NoEigentest,MaxCycle=999)
 ----------------------------------------------------------------------

 ------------------------------
 Gaussian input prepared by ASE
 ------------------------------
 Symbolic Z-matrix:
 Charge =  0 Multiplicity = 1

 SCF Done:  E(RM062X) =  -764.496039500     A.U. after   15 cycles
 SCF Done:  E(RM062X) =  -764.512203887     A.U. after   16 cycles
 SCF Done:  E(RM062X) =  -764.512294023     A.U. after   12 cycles
 SCF Done:  E(RM062X) =  -764.512294161     A.U. after    8 cycles

 Isotropic polarizability for W=    0.000000       48.59 Bohr**3.
 End of Minotr F.D. properties file   721 does not exist.

 Optimization completed.
    -- Stationary point found.

                          Input orientation:
 ---------------------------------------------------------------------
 Center     Atomic      Atomic             Coordinates (Angstroms)
 Number     Number       Type             X           Y           Z
 ---------------------------------------------------------------------
      1          6           0        1.796860   -0.148154    0.042522
      2          8           0        1.237866   -0.373130    1.149884
      3          6           0       -0.006769   -0.010784    0.026581
      4          6           0       -0.178588    0.888531   -1.241766
      5          9           0        0.322653    0.300379   -2.313610
      6          9           0       -1.468869    1.116211   -1.458562
      7          9           0        0.433403    2.051060   -1.054154
      8          9           0       -0.472510   -1.209056   -0.239845
      9          9           0       -0.781150    0.593491    0.940303
     10          8           0        3.102685   -0.002820    0.096281
     11          1           0        3.444775    0.152500   -0.791201
 ---------------------------------------------------------------------

 ******    1 imaginary frequencies (negative Signs) ******

                      1                      2                      3
                      A                      A                      A
 Frequencies --   -778.7530                64.2843                71.0494
 Red. masses --     12.5179                13.4425                 9.3283
 Frc consts  --      4.4728                 0.0327                 0.0277
 IR Inten    --     65.2866                 0.3650                 7.0186

                      4                      5                      6
                      A                      A                      A
 Frequencies --    121.6264               219.1265               257.5420
 Red. masses --     12.6410                12.5083                13.0887
 Frc consts  --      0.1102                 0.3539                 0.5115
 IR Inten    --      2.1032                 9.2150                 6.0869

                      7                      8                      9
                      A                      A                      A
 Frequencies --    329.0194               365.6796               376.7911
 Red. masses --     11.8305                14.6410                14.6735
 Frc consts  --      0.7546                 1.1535                 1.2274
 IR Inten    --      8.3250                14.3928                 8.6503

                     10                     11                     12
                      A                      A                      A
 Frequencies --    420.2364               474.7994               562.7135
 Red. masses --     16.6864                16.7342                11.5230
 Frc consts  --      1.7362                 2.2227                 2.1498
 IR Inten    --     13.8456                 4.2366                29.1693

                     13                     14                     15
                      A                      A                      A
 Frequencies --    599.9155               611.8870               629.5897
 Red. masses --     13.4016                 2.1042                 2.3885
 Frc consts  --      2.8417                 0.4642                 0.5578
 IR Inten    --      4.3186                37.5364                63.1575

                     16                     17                     18
                      A                      A                      A
 Frequencies --    689.7742               753.4151               854.3653
 Red. masses --      9.7159                12.2181                14.0752
 Frc consts  --      2.7236                 4.0862                 6.0533
 IR Inten    --    104.9206               127.6318               237.0822

                     19                     20                     21
                      A                      A                      A
 Frequencies --   1025.8160              1183.6530              1244.2084
 Red. masses --      9.7415                 1.4212                11.9414
 Frc consts  --      6.0397                 1.1732                10.8916
 IR Inten    --    237.8072                79.6000               195.6038

                     22                     23                     24
                      A                      A                      A
 Frequencies --   1271.9694              1298.1329              1328.0886
 Red. masses --     10.6837                12.9992                 9.6714
 Frc consts  --     10.1841                12.9064                10.0507
 IR Inten    --    443.6613               270.4786               131.2976

                     25                     26                     27
                      A                      A                      A
 Frequencies --   1358.3299              1622.6520              3858.3635
 Red. masses --      9.7196                 8.5638                 1.0663
 Frc consts  --     10.5659                13.2853                 9.3529
 IR Inten    --    183.1731               132.9492               186.0237

 - Thermochemistry -
 -------------------
 Temperature   298.150 Kelvin.  Pressure   1.00000 Atm.
 Atom     1 has atomic number  6 and mass  12.00000

 Molecular mass:   163.98967 amu.
 Principal axes and moments of inertia in atomic units:
                           1         2         3
     Eigenvalues --   953.671921491.166611799.49879
           X            0.80243  -0.59645   0.01889
           Y           -0.33280  -0.42100   0.84380
           Z            0.49534   0.68338   0.53632
 This molecule is an asymmetric top.
 Rotational symmetry number  1.
 Warning -- assumption of classical behavior for rotation
           may cause significant error
 Rotational temperatures (Kelvin)      0.09082     0.05808     0.04813
 Rotational constants (GHZ):           1.89241     1.21029     1.00291
    1 imaginary frequencies ignored.
 Zero-point vibrational energy     129155.0 (Joules/Mol)
                                   30.86878 (Kcal/Mol)
 Warning -- explicit consideration of  13 degrees of freedom as
           vibrations may cause significant error
 Vibrational temperatures:     92.49   102.22   174.99   315.27   370.55
          (Kelvin)            473.39   526.13   542.12   604.63   683.13
                              809.62   863.14   880.37   905.84   992.43
                             1084.00  1229.24  1475.92  1703.01  1790.14
                             1830.08  1867.72  1910.82  1954.33  2334.63
                             5551.32

 Zero-point correction=                           0.049193 (Hartree/Particle)
 Thermal correction to Energy=                    0.057943
 Thermal correction to Enthalpy=                  0.058887
 Thermal correction to Gibbs Free Energy=         0.014452
 Sum of electronic and zero-point Energies=           -764.463102
 Sum of electronic and thermal Energies=              -764.454351
 Sum of electronic and thermal Enthalpies=            -764.453407
 Sum of electronic and thermal Free Energies=         -764.497842

                     E (Thermal)             CV                S
                      KCal/Mol        Cal/Mol-Kelvin    Cal/Mol-Kelvin
 Total                   36.360             30.431             93.522
 Electronic               0.000              0.000              0.000
 Translational            0.889              2.981             41.192
 Rotational               0.889              2.981             29.327
 Vibrational             34.582             24.469             23.002
 Vibration     1          0.597              1.971              4.321
 Vibration     2          0.598              1.968              4.124
 Vibration     3          0.609              1.931              3.074
 Vibration     4          0.647              1.812              1.966
 Vibration     5          0.667              1.750              1.678
 Vibration     6          0.712              1.618              1.265
 Vibration     7          0.739              1.543              1.098
 Vibration     8          0.747              1.520              1.052
 Vibration     9          0.783              1.426              0.891
 Vibration    10          0.832              1.306              0.724
 Vibration    11          0.918              1.112              0.518
 Vibration    12          0.958              1.032              0.450
 Vibration    13          0.971              1.007              0.430

 Normal termination of Gaussian 16 at Sat May 24 05:22:02 2025.
