 Gaussian 16, Revision C.01,
 Gaussian 16:  ES64L-G16RevC.01  3-Jul-2019

 -----------------------------------------------------------------
 #P M062X/Def2TZVPP Symm(None) scf(xqc) pop(None) freq opt(CalcFC)
 -----------------------------------------------------------------

 ------------------------------
 Gaussian input prepared by ASE
 ------------------------------
 Symbolic Z-matrix:
 Charge =  0 Multiplicity = 1

 SCF Done:  E(RM062X) =  -764.472080707     A.U. after   13 cycles
 SCF Done:  E(RM062X) =  -764.529586609     A.U. after   15 cycles
 SCF Done:  E(RM062X) =  -764.504059151     A.U. after   15 cycles
 SCF Done:  E(RM062X) =  -764.538545523     A.U. after   15 cycles
 SCF Done:  E(RM062X) =  -764.549329704     A.U. after   13 cycles
 SCF Done:  E(RM062X) =  -764.567794605     A.U. after   14 cycles
 SCF Done:  E(RM062X) =  -764.550208474     A.U. after   15 cycles
 SCF Done:  E(RM062X) =  -764.579716272     A.U. after   14 cycles
 SCF Done:  E(RM062X) =  -764.568954372     A.U. after   15 cycles
 SCF Done:  E(RM062X) =  -764.582468787     A.U. after   14 cycles
 SCF Done:  E(RM062X) =  -764.591688803     A.U. after   11 cycles
 SCF Done:  E(RM062X) =  -764.591799775     A.U. after   11 cycles
 SCF Done:  E(RM062X) =  -764.591901821     A.U. after   11 cycles
 SCF Done:  E(RM062X) =  -764.591979104     A.U. after   11 cycles
 SCF Done:  E(RM062X) =  -764.592014047     A.U. after   10 cycles
 SCF Done:  E(RM062X) =  -764.592022521     A.U. after   10 cycles
 SCF Done:  E(RM062X) =  -764.592028195     A.U. after   11 cycles
 SCF Done:  E(RM062X) =  -764.592028708     A.U. after    7 cycles
 SCF Done:  E(RM062X) =  -764.592028863     A.U. after    6 cycles
 Optimization completed.
    -- Stationary point found.
 Normal termination of Gaussian 16 at Sat May 24 05:22:19 2025.

 ---------------------------------------------------------------------
 #P Geom=AllCheck Guess=TCheck SCRF=Check GenChk RM062X/def2TZVPP Freq
 ---------------------------------------------------------------------

 Structure from the checkpoint file:  "/tmp/Gau-166675.chk"
 ------------------------------
 Gaussian input prepared by ASE
 ------------------------------
 Charge =  0 Multiplicity = 1

                          Input orientation:
 ---------------------------------------------------------------------
 Center     Atomic      Atomic             Coordinates (Angstroms)
 Number     Number       Type             X           Y           Z
 ---------------------------------------------------------------------
      1          6           0       -0.022692   -0.246856   -0.478600
      2          8           0        1.261625    0.128335   -0.552227
      3          6           0        1.679744    2.459874   -1.164921
      4          6           0        1.840548    1.320472   -0.128359
      5          9           0        2.318702    3.536853   -0.731480
      6          9           0        1.394110    1.725399    1.056204
      7          9           0        3.141779    1.069374   -0.017933
      8          9           0        2.203694    2.081877   -2.320869
      9          9           0        0.405331    2.766362   -1.352803
     10          8           0       -0.730478    0.713129    0.055075
     11          1           0       -1.644610    0.412042    0.088510
 ---------------------------------------------------------------------

 SCF Done:  E(RM062X) =  -764.592028863     A.U. after    1 cycles

 Isotropic polarizability for W=    0.000000       46.34 Bohr**3.
 End of Minotr F.D. properties file   721 does not exist.

                      1                      2                      3
                      A                      A                      A
 Frequencies --     45.0171               106.7363               164.0721
 Red. masses --     14.4661                 8.7228                13.5560
 Frc consts  --      0.0173                 0.0586                 0.2150
 IR Inten    --      0.6828                 3.2566                 2.2969

                      4                      5                      6
                      A                      A                      A
 Frequencies --    220.4448               228.8816               264.8276
 Red. masses --     16.2297                 9.9160                13.6187
 Frc consts  --      0.4647                 0.3061                 0.5627
 IR Inten    --      1.7872                 1.7929                 1.6276

                      7                      8                      9
                      A                      A                      A
 Frequencies --    344.1434               361.1939               401.9895
 Red. masses --     15.9362                15.3637                13.2887
 Frc consts  --      1.1120                 1.1809                 1.2652
 IR Inten    --      0.5384                 0.5734                 0.8680

                     10                     11                     12
                      A                      A                      A
 Frequencies --    469.3168               518.7953               597.1562
 Red. masses --     15.1973                14.1623                13.0971
 Frc consts  --      1.9722                 2.2458                 2.7517
 IR Inten    --      2.2978                 7.8361                 2.2258

                     13                     14                     15
                      A                      A                      A
 Frequencies --    604.1493               701.3368               730.9228
 Red. masses --     17.3863                 5.3464                 1.3402
 Frc consts  --      3.7389                 1.5494                 0.4219
 IR Inten    --      1.9515                81.0273                44.7391

                     16                     17                     18
                      A                      A                      A
 Frequencies --    787.7355               814.4881              1089.0298
 Red. masses --      8.4490                13.8976                 7.9438
 Frc consts  --      3.0890                 5.4320                 5.5508
 IR Inten    --     22.8009                 8.3744               231.1640

                     19                     20                     21
                      A                      A                      A
 Frequencies --   1120.3881              1200.4743              1277.0069
 Red. masses --      3.5905                 8.9216                10.1372
 Frc consts  --      2.6555                 7.5753                 9.7399
 IR Inten    --    306.2255               241.5275               139.6244

                     22                     23                     24
                      A                      A                      A
 Frequencies --   1292.5239              1294.8046              1350.9718
 Red. masses --     12.0641                13.1223                 6.9066
 Frc consts  --     11.8747                12.9619                 7.4269
 IR Inten    --    180.3865               224.1267               444.0406

                     25                     26                     27
                      A                      A                      A
 Frequencies --   1367.4360              1428.6799              3866.3514
 Red. masses --      2.3154                12.1862                 1.0666
 Frc consts  --      2.5509                14.6551                 9.3943
 IR Inten    --    206.2461                15.9274               204.5418

 - Thermochemistry -
 -------------------
 Temperature   298.150 Kelvin.  Pressure   1.00000 Atm.
 Atom     1 has atomic number  6 and mass  12.00000

 Molecular mass:   163.98967 amu.
 Principal axes and moments of inertia in atomic units:
                           1         2         3
     Eigenvalues --   920.428511437.166861646.62547
           X            0.64030   0.73424  -0.22563
           Y            0.68881  -0.41886   0.59170
           Z           -0.33994   0.53428   0.77394
 This molecule is an asymmetric top.
 Rotational symmetry number  1.
 Warning -- assumption of classical behavior for rotation
           may cause significant error
 Rotational temperatures (Kelvin)      0.09410     0.06027     0.05260
 Rotational constants (GHZ):           1.96076     1.25576     1.09602
 Zero-point vibrational energy     135470.3 (Joules/Mol)
                                   32.37819 (Kcal/Mol)
 Warning -- explicit consideration of  13 degrees of freedom as
           vibrations may cause significant error
 Vibrational temperatures:     64.77   153.57   236.06   317.17   329.31
          (Kelvin)            381.03   495.15   519.68   578.37   675.24
                              746.43   859.17   869.24  1009.07  1051.63
                             1133.38  1171.87  1566.87  1611.99  1727.21
                             1837.33  1859.65  1862.94  1943.75  1967.44
                             2055.55  5562.82

 Zero-point correction=                           0.051598 (Hartree/Particle)
 Thermal correction to Energy=                    0.060425
 Thermal correction to Enthalpy=                  0.061370
 Thermal correction to Gibbs Free Energy=         0.016945
 Sum of electronic and zero-point Energies=           -764.540431
 Sum of electronic and thermal Energies=              -764.531603
 Sum of electronic and thermal Enthalpies=            -764.530659
 Sum of electronic and thermal Free Energies=         -764.575084

                     E (Thermal)             CV                S
                      KCal/Mol        Cal/Mol-Kelvin    Cal/Mol-Kelvin
 Total                   37.918             30.763             93.500
 Electronic               0.000              0.000              0.000
 Translational            0.889              2.981             41.192
 Rotational               0.889              2.981             29.167
 Vibrational             36.140             24.801             23.140
 Vibration     1          0.595              1.979              5.025
 Vibration     2          0.606              1.944              3.327
 Vibration     3          0.623              1.887              2.502
 Vibration     4          0.647              1.810              1.955
 Vibration     5          0.652              1.797              1.888
 Vibration     6          0.671              1.737              1.630
 Vibration     7          0.723              1.587              1.193
 Vibration     8          0.735              1.552              1.117
 Vibration     9          0.768              1.466              0.955
 Vibration    10          0.826              1.318              0.739
 Vibration    11          0.874              1.208              0.613
 Vibration    12          0.955              1.038              0.455
 Vibration    13          0.963              1.023              0.443

 Optimization completed.
    -- Stationary point found.
 Normal termination of Gaussian 16 at Sat May 24 05:25:48 2025.
