 Gaussian 16, Revision C.01,
 Gaussian 16:  ES64L-G16RevC.01  3-Jul-2019

 -----------------------------------------------------------------
 #P M062X/Def2TZVPP Symm(None) scf(xqc) pop(None) freq opt(CalcFC)
 -----------------------------------------------------------------

 ------------------------------
 Gaussian input prepared by ASE
 ------------------------------
 Symbolic Z-matrix:
 Charge =  0 Multiplicity = 1

 SCF Done:  E(RM062X) =  -764.517235017     A.U. after   13 cycles
 SCF Done:  E(RM062X) =  -764.573256709     A.U. after   14 cycles
 SCF Done:  E(RM062X) =  -764.535761793     A.U. after   13 cycles
 SCF Done:  E(RM062X) =  -764.568942951     A.U. after   14 cycles
 SCF Done:  E(RM062X) =  -764.575389754     A.U. after   11 cycles
 SCF Done:  E(RM062X) =  -764.573511950     A.U. after   14 cycles
 SCF Done:  E(RM062X) =  -764.572706694     A.U. after   12 cycles
 SCF Done:  E(RM062X) =  -764.569106706     A.U. after   13 cycles
 SCF Done:  E(RM062X) =  -764.571546403     A.U. after   12 cycles
 SCF Done:  E(RM062X) =  -764.575489183     A.U. after    9 cycles
 SCF Done:  E(RM062X) =  -764.583143761     A.U. after   12 cycles
 SCF Done:  E(RM062X) =  -764.583437123     A.U. after   11 cycles
 SCF Done:  E(RM062X) =  -764.583447134     A.U. after    8 cycles
 SCF Done:  E(RM062X) =  -764.583449593     A.U. after    8 cycles
 SCF Done:  E(RM062X) =  -764.583450654     A.U. after    8 cycles
 SCF Done:  E(RM062X) =  -764.583451667     A.U. after    7 cycles
 SCF Done:  E(RM062X) =  -764.583453673     A.U. after    8 cycles
 SCF Done:  E(RM062X) =  -764.583454852     A.U. after    8 cycles
 SCF Done:  E(RM062X) =  -764.583455450     A.U. after    7 cycles
 Optimization completed.
    -- Stationary point found.
 Normal termination of Gaussian 16 at Sat May 24 05:08:49 2025.

 ---------------------------------------------------------------------
 #P Geom=AllCheck Guess=TCheck SCRF=Check GenChk RM062X/def2TZVPP Freq
 ---------------------------------------------------------------------

 Structure from the checkpoint file:  "/tmp/Gau-80091.chk"
 ------------------------------
 Gaussian input prepared by ASE
 ------------------------------
 Charge =  0 Multiplicity = 1

                          Input orientation:
 ---------------------------------------------------------------------
 Center     Atomic      Atomic             Coordinates (Angstroms)
 Number     Number       Type             X           Y           Z
 ---------------------------------------------------------------------
      1          6           0        0.116966   -0.390928    0.440085
      2          8           0        1.408990   -0.003674    0.197889
      3          6           0        2.346828    1.782450    1.546463
      4          6           0        1.982850    1.243397    0.143758
      5          9           0        2.949235    2.954645    1.440120
      6          9           0        3.091657    1.144994   -0.571046
      7          9           0        1.182791    2.154211   -0.453980
      8          9           0        1.230209    1.937776    2.257937
      9          9           0        3.141111    0.934665    2.169945
     10          8           0       -0.714242    0.585530    0.611996
     11          1           0       -0.381307    1.495755    0.540630
 ---------------------------------------------------------------------

 SCF Done:  E(RM062X) =  -764.583455451     A.U. after    1 cycles

 Isotropic polarizability for W=    0.000000       46.44 Bohr**3.
 End of Minotr F.D. properties file   721 does not exist.

                      1                      2                      3
                      A                      A                      A
 Frequencies --     56.1388               105.7603               144.8816
 Red. masses --     15.0340                12.1277                 4.6448
 Frc consts  --      0.0279                 0.0799                 0.0574
 IR Inten    --      0.6214                 0.3678                31.7841

                      4                      5                      6
                      A                      A                      A
 Frequencies --    219.9044               237.3138               239.4039
 Red. masses --     16.3303                 9.5079                11.4369
 Frc consts  --      0.4653                 0.3155                 0.3862
 IR Inten    --      4.8037                10.0747                 2.1880

                      7                      8                      9
                      A                      A                      A
 Frequencies --    350.3536               356.3549               393.9948
 Red. masses --     14.4847                13.6299                12.7481
 Frc consts  --      1.0475                 1.0198                 1.1659
 IR Inten    --      2.6665                 3.3457                 3.3120

                     10                     11                     12
                      A                      A                      A
 Frequencies --    473.5140               518.4967               598.6395
 Red. masses --     14.9102                14.5249                14.7564
 Frc consts  --      1.9697                 2.3007                 3.1157
 IR Inten    --      2.6853                 9.5009                 3.5562

                     13                     14                     15
                      A                      A                      A
 Frequencies --    604.7977               684.4701               710.0416
 Red. masses --     12.9524                 2.6395                 2.5953
 Frc consts  --      2.7914                 0.7286                 0.7709
 IR Inten    --      5.2166                12.3790                99.5404

                     16                     17                     18
                      A                      A                      A
 Frequencies --    771.9902               803.3028              1029.3947
 Red. masses --      5.4259                16.1900                 7.2502
 Frc consts  --      1.9052                 6.1554                 4.5265
 IR Inten    --     20.7176                 5.5140               115.5217

                     19                     20                     21
                      A                      A                      A
 Frequencies --   1107.4564              1178.2550              1264.7152
 Red. masses --     12.9503                10.4824                 3.4976
 Frc consts  --      9.3580                 8.5741                 3.2961
 IR Inten    --    387.0727               162.8465               422.9446

                     22                     23                     24
                      A                      A                      A
 Frequencies --   1279.1723              1313.2022              1327.6308
 Red. masses --     12.3487                13.0865                 2.5129
 Frc consts  --     11.9050                13.2965                 2.6096
 IR Inten    --    384.8387               255.7716                74.4758

                     25                     26                     27
                      A                      A                      A
 Frequencies --   1390.6255              1430.2578              3705.3176
 Red. masses --      5.4342                12.0120                 1.0628
 Frc consts  --      6.1917                14.4775                 8.5973
 IR Inten    --    209.3142                14.2305                64.6773

 - Thermochemistry -
 -------------------
 Temperature   298.150 Kelvin.  Pressure   1.00000 Atm.
 Atom     1 has atomic number  6 and mass  12.00000

 Molecular mass:   163.98967 amu.
 Principal axes and moments of inertia in atomic units:
                           1         2         3
     Eigenvalues --   914.254471473.583121671.17233
           X            0.81130  -0.42786  -0.39842
           Y            0.47728   0.09113   0.87402
           Z            0.33765   0.89924  -0.27814
 This molecule is an asymmetric top.
 Rotational symmetry number  1.
 Warning -- assumption of classical behavior for rotation
           may cause significant error
 Rotational temperatures (Kelvin)      0.09474     0.05878     0.05183
 Rotational constants (GHZ):           1.97400     1.22473     1.07993
 Zero-point vibrational energy     133356.0 (Joules/Mol)
                                   31.87285 (Kcal/Mol)
 Warning -- explicit consideration of  13 degrees of freedom as
           vibrations may cause significant error
 Vibrational temperatures:     80.77   152.17   208.45   316.39   341.44
          (Kelvin)            344.45   504.08   512.72   566.87   681.28
                              746.00   861.31   870.17   984.80  1021.59
                             1110.72  1155.77  1481.07  1593.38  1695.25
                             1819.64  1840.44  1889.41  1910.16  2000.80
                             2057.82  5331.13

 Zero-point correction=                           0.050793 (Hartree/Particle)
 Thermal correction to Energy=                    0.059691
 Thermal correction to Enthalpy=                  0.060635
 Thermal correction to Gibbs Free Energy=         0.016178
 Sum of electronic and zero-point Energies=           -764.532663
 Sum of electronic and thermal Energies=              -764.523765
 Sum of electronic and thermal Enthalpies=            -764.522821
 Sum of electronic and thermal Free Energies=         -764.567277

                     E (Thermal)             CV                S
                      KCal/Mol        Cal/Mol-Kelvin    Cal/Mol-Kelvin
 Total                   37.456             31.016             93.567
 Electronic               0.000              0.000              0.000
 Translational            0.889              2.981             41.192
 Rotational               0.889              2.981             29.200
 Vibrational             35.679             25.055             23.175
 Vibration     1          0.596              1.975              4.589
 Vibration     2          0.605              1.945              3.345
 Vibration     3          0.616              1.908              2.738
 Vibration     4          0.647              1.811              1.960
 Vibration     5          0.656              1.784              1.823
 Vibration     6          0.657              1.780              1.807
 Vibration     7          0.727              1.575              1.165
 Vibration     8          0.732              1.562              1.138
 Vibration     9          0.761              1.483              0.985
 Vibration    10          0.830              1.309              0.728
 Vibration    11          0.873              1.209              0.613
 Vibration    12          0.957              1.035              0.452
 Vibration    13          0.963              1.022              0.441

                           ! Non-Optimized Parameters !
 Normal termination of Gaussian 16 at Sat May 24 05:12:52 2025.
