 Gaussian 16, Revision C.01,
 Gaussian 16:  ES64L-G16RevC.01  3-Jul-2019

 -----------------------------------------------------------------
 #P M062X/Def2TZVPP Symm(None) scf(xqc) pop(None) freq opt(CalcFC)
 -----------------------------------------------------------------

 ------------------------------
 Gaussian input prepared by ASE
 ------------------------------
 Symbolic Z-matrix:
 Charge =  0 Multiplicity = 1

 SCF Done:  E(RM062X) =  -764.549304745     A.U. after   13 cycles
 SCF Done:  E(RM062X) =  -764.577570968     A.U. after   15 cycles
 SCF Done:  E(RM062X) =  -764.584885463     A.U. after   14 cycles
 SCF Done:  E(RM062X) =  -764.565789608     A.U. after   15 cycles
 SCF Done:  E(RM062X) =  -764.573958507     A.U. after   15 cycles
 SCF Done:  E(RM062X) =  -764.588727885     A.U. after   13 cycles
 SCF Done:  E(RM062X) =  -764.580277962     A.U. after   14 cycles
 SCF Done:  E(RM062X) =  -764.590270156     A.U. after   14 cycles
 SCF Done:  E(RM062X) =  -764.590765643     A.U. after   13 cycles
 SCF Done:  E(RM062X) =  -764.591118816     A.U. after   13 cycles
 SCF Done:  E(RM062X) =  -764.591587680     A.U. after   13 cycles
 SCF Done:  E(RM062X) =  -764.591738501     A.U. after   10 cycles
 SCF Done:  E(RM062X) =  -764.591953043     A.U. after   11 cycles
 SCF Done:  E(RM062X) =  -764.591999302     A.U. after   12 cycles
 SCF Done:  E(RM062X) =  -764.592022606     A.U. after   10 cycles
 SCF Done:  E(RM062X) =  -764.592028172     A.U. after    8 cycles
 SCF Done:  E(RM062X) =  -764.592029392     A.U. after    8 cycles
 SCF Done:  E(RM062X) =  -764.592029558     A.U. after    7 cycles
 Optimization completed.
    -- Stationary point found.
 Normal termination of Gaussian 16 at Sat May 24 05:08:21 2025.

 ---------------------------------------------------------------------
 #P Geom=AllCheck Guess=TCheck SCRF=Check GenChk RM062X/def2TZVPP Freq
 ---------------------------------------------------------------------

 Structure from the checkpoint file:  "/tmp/Gau-289708.chk"
 ------------------------------
 Gaussian input prepared by ASE
 ------------------------------
 Charge =  0 Multiplicity = 1

                          Input orientation:
 ---------------------------------------------------------------------
 Center     Atomic      Atomic             Coordinates (Angstroms)
 Number     Number       Type             X           Y           Z
 ---------------------------------------------------------------------
      1          6           0        0.124253   -0.098853   -0.436335
      2          8           0        1.427947    0.062305   -0.172325
      3          6           0        2.008700    1.869199    1.372972
      4          6           0        2.143892    1.248026   -0.039316
      5          9           0        2.783888    2.941001    1.453255
      6          9           0        3.421373    0.916759   -0.202814
      7          9           0        1.828913    2.153815   -0.959515
      8          9           0        0.759235    2.226407    1.626877
      9          9           0        2.394596    0.986902    2.282006
     10          8           0       -0.450331    1.070233   -0.538936
     11          1           0       -1.382810    0.916950   -0.724537
 ---------------------------------------------------------------------

 SCF Done:  E(RM062X) =  -764.592029558     A.U. after    1 cycles

 Isotropic polarizability for W=    0.000000       46.37 Bohr**3.
 End of Minotr F.D. properties file   721 does not exist.

                      1                      2                      3
                      A                      A                      A
 Frequencies --     44.7230               107.3205               163.7080
 Red. masses --     14.4485                 8.7576                13.5706
 Frc consts  --      0.0170                 0.0594                 0.2143
 IR Inten    --      0.6870                 3.2556                 2.3429

                      4                      5                      6
                      A                      A                      A
 Frequencies --    218.9365               227.8193               264.5913
 Red. masses --     15.7979                10.0847                13.6094
 Frc consts  --      0.4462                 0.3084                 0.5614
 IR Inten    --      1.7166                 1.7790                 1.6063

                      7                      8                      9
                      A                      A                      A
 Frequencies --    344.4393               361.0914               401.8326
 Red. masses --     15.9697                15.3659                13.2928
 Frc consts  --      1.1163                 1.1804                 1.2646
 IR Inten    --      0.5481                 0.5693                 0.8529

                     10                     11                     12
                      A                      A                      A
 Frequencies --    469.6431               518.6600               597.0746
 Red. masses --     15.2139                14.1639                13.1123
 Frc consts  --      1.9771                 2.2449                 2.7541
 IR Inten    --      2.2956                 7.7093                 2.2370

                     13                     14                     15
                      A                      A                      A
 Frequencies --    604.0914               701.5812               732.1513
 Red. masses --     17.3961                 5.7417                 1.3167
 Frc consts  --      3.7403                 1.6651                 0.4158
 IR Inten    --      1.8724                78.3875                47.3490

                     16                     17                     18
                      A                      A                      A
 Frequencies --    787.7922               814.5422              1089.0888
 Red. masses --      8.4900                13.7670                 8.1996
 Frc consts  --      3.1044                 5.3817                 5.7302
 IR Inten    --     22.4500                 8.6118               236.1315

                     19                     20                     21
                      A                      A                      A
 Frequencies --   1121.3500              1200.5452              1276.3877
 Red. masses --      3.5223                 8.9284                10.1952
 Frc consts  --      2.6095                 7.5820                 9.7861
 IR Inten    --    300.5160               241.6462               138.1643

                     22                     23                     24
                      A                      A                      A
 Frequencies --   1292.3711              1293.1937              1351.0145
 Red. masses --     12.1237                13.0592                 7.4160
 Frc consts  --     11.9306                12.8675                 7.9751
 IR Inten    --    206.5196               198.6520               451.2243

                     25                     26                     27
                      A                      A                      A
 Frequencies --   1367.9020              1428.0674              3864.4439
 Red. masses --      2.2674                12.1578                 1.0666
 Frc consts  --      2.4997                14.6084                 9.3850
 IR Inten    --    200.2474                16.1254               204.4647

 - Thermochemistry -
 -------------------
 Temperature   298.150 Kelvin.  Pressure   1.00000 Atm.
 Atom     1 has atomic number  6 and mass  12.00000

 Molecular mass:   163.98967 amu.
 Principal axes and moments of inertia in atomic units:
                           1         2         3
     Eigenvalues --   920.570491436.888731646.59274
           X            0.67253   0.73176  -0.11055
           Y            0.40912  -0.24315   0.87949
           Z            0.61670  -0.63671  -0.46291
 This molecule is an asymmetric top.
 Rotational symmetry number  1.
 Warning -- assumption of classical behavior for rotation
           may cause significant error
 Rotational temperatures (Kelvin)      0.09409     0.06028     0.05260
 Rotational constants (GHZ):           1.96046     1.25601     1.09605
 Zero-point vibrational energy     135443.4 (Joules/Mol)
                                   32.37174 (Kcal/Mol)
 Warning -- explicit consideration of  13 degrees of freedom as
           vibrations may cause significant error
 Vibrational temperatures:     64.35   154.41   235.54   315.00   327.78
          (Kelvin)            380.69   495.57   519.53   578.15   675.71
                              746.24   859.06   869.15  1009.42  1053.40
                             1133.46  1171.94  1566.96  1613.37  1727.32
                             1836.44  1859.43  1860.62  1943.81  1968.11
                             2054.67  5560.07

 Zero-point correction=                           0.051588 (Hartree/Particle)
 Thermal correction to Energy=                    0.060419
 Thermal correction to Enthalpy=                  0.061363
 Thermal correction to Gibbs Free Energy=         0.016926
 Sum of electronic and zero-point Energies=           -764.540442
 Sum of electronic and thermal Energies=              -764.531611
 Sum of electronic and thermal Enthalpies=            -764.530667
 Sum of electronic and thermal Free Energies=         -764.575104

                     E (Thermal)             CV                S
                      KCal/Mol        Cal/Mol-Kelvin    Cal/Mol-Kelvin
 Total                   37.913             30.764             93.526
 Electronic               0.000              0.000              0.000
 Translational            0.889              2.981             41.192
 Rotational               0.889              2.981             29.167
 Vibrational             36.136             24.803             23.167
 Vibration     1          0.595              1.980              5.038
 Vibration     2          0.606              1.943              3.317
 Vibration     3          0.623              1.887              2.507
 Vibration     4          0.647              1.812              1.968
 Vibration     5          0.651              1.799              1.896
 Vibration     6          0.671              1.738              1.631
 Vibration     7          0.723              1.587              1.192
 Vibration     8          0.735              1.552              1.117
 Vibration     9          0.767              1.466              0.956
 Vibration    10          0.827              1.317              0.739
 Vibration    11          0.874              1.209              0.613
 Vibration    12          0.955              1.038              0.455
 Vibration    13          0.963              1.023              0.443

                           ! Non-Optimized Parameters !
 Normal termination of Gaussian 16 at Sat May 24 05:11:43 2025.
