 Gaussian 16, Revision C.01,
 Gaussian 16:  ES64L-G16RevC.01  3-Jul-2019

 ----------------------------------------------------------------------
 #P M062X/Def2TZVPP Symm(None) scf(xqc) pop(None) opt(NoFreeze,TS,CalcA
 ll,NoEigentest,MaxCycle=999)
 ----------------------------------------------------------------------

 ------------------------------
 Gaussian input prepared by ASE
 ------------------------------
 Symbolic Z-matrix:
 Charge =  0 Multiplicity = 1

 SCF Done:  E(RM062X) =  -764.486333882     A.U. after   18 cycles

 Isotropic polarizability for W=    0.000000       55.80 Bohr**3.
 End of Minotr F.D. properties file   721 does not exist.

 Optimization completed.
    -- Stationary point found.

                          Input orientation:
 ---------------------------------------------------------------------
 Center     Atomic      Atomic             Coordinates (Angstroms)
 Number     Number       Type             X           Y           Z
 ---------------------------------------------------------------------
      1          6           0        2.177623    1.054802   -0.036435
      2          8           0        1.217239    1.649573    0.498422
      3          6           0        1.939343   -0.335976   -0.346699
      4          6           0       -0.210889    0.510255    0.140945
      5          9           0       -0.486276   -0.747464    0.372180
      6          9           0       -0.928742    1.193445    1.008340
      7          9           0       -0.508877    0.891484   -1.066436
      8          9           0        2.817970   -0.867327   -1.210822
      9          9           0        1.931625   -1.114779    0.761609
     10          8           0        3.254442    1.690630   -0.411311
     11          1           0        3.124968    2.645797   -0.323818
 ---------------------------------------------------------------------

 ******    1 imaginary frequencies (negative Signs) ******

                      1                      2                      3
                      A                      A                      A
 Frequencies --   -641.3394                48.2887               104.8288
 Red. masses --     11.2346                13.7694                12.4944
 Frc consts  --      2.7226                 0.0189                 0.0809
 IR Inten    --    137.8223                 3.7417                 2.7521

                      4                      5                      6
                      A                      A                      A
 Frequencies --    170.7584               218.1521               246.4753
 Red. masses --     15.4786                17.5489                 9.6960
 Frc consts  --      0.2659                 0.4921                 0.3470
 IR Inten    --     22.2415                 4.0963                 7.0260

                      7                      8                      9
                      A                      A                      A
 Frequencies --    296.5042               326.6353               355.0865
 Red. masses --     10.5664                13.1595                15.6044
 Frc consts  --      0.5473                 0.8272                 1.1592
 IR Inten    --      2.9025                12.1556                17.2023

                     10                     11                     12
                      A                      A                      A
 Frequencies --    435.8363               524.4799               581.7913
 Red. masses --      8.8583                14.2453                 2.7387
 Frc consts  --      0.9914                 2.3088                 0.5462
 IR Inten    --     16.6916                 6.4845                57.1598

                     13                     14                     15
                      A                      A                      A
 Frequencies --    591.0002               617.1989               661.0508
 Red. masses --     12.5455                10.8200                 2.0600
 Frc consts  --      2.5817                 2.4284                 0.5304
 IR Inten    --      5.6904                89.1630               124.1860

                     16                     17                     18
                      A                      A                      A
 Frequencies --    732.1486               767.9104               830.2818
 Red. masses --     13.8480                10.7107                 5.5457
 Frc consts  --      4.3736                 3.7212                 2.2525
 IR Inten    --    239.5678                29.7688                95.9560

                     19                     20                     21
                      A                      A                      A
 Frequencies --    969.1131              1145.2684              1182.3139
 Red. masses --     15.5312                 9.3264                10.1763
 Frc consts  --      8.5942                 7.2074                 8.3812
 IR Inten    --    651.8716               107.9615               207.6232

                     22                     23                     24
                      A                      A                      A
 Frequencies --   1244.6815              1258.7509              1352.6153
 Red. masses --      2.9094                 3.4136                11.9749
 Frc consts  --      2.6556                 3.1867                12.9083
 IR Inten    --    344.7606               222.0752               349.3506

                     25                     26                     27
                      A                      A                      A
 Frequencies --   1525.8976              1606.9059              3792.5185
 Red. masses --      4.7516                12.5839                 1.0651
 Frc consts  --      6.5185                19.1446                 9.0263
 IR Inten    --    153.6741               199.1009               147.3459

 - Thermochemistry -
 -------------------
 Temperature   298.150 Kelvin.  Pressure   1.00000 Atm.
 Atom     1 has atomic number  6 and mass  12.00000

 Molecular mass:   163.98967 amu.
 Principal axes and moments of inertia in atomic units:
                           1         2         3
     Eigenvalues --   915.509401643.410432015.51533
           X            0.96672   0.13418   0.21784
           Y           -0.13323   0.99090  -0.01912
           Z           -0.21842  -0.01054   0.97580
 This molecule is an asymmetric top.
 Rotational symmetry number  1.
 Warning -- assumption of classical behavior for rotation
           may cause significant error
 Rotational temperatures (Kelvin)      0.09461     0.05270     0.04297
 Rotational constants (GHZ):           1.97130     1.09817     0.89542
    1 imaginary frequencies ignored.
 Zero-point vibrational energy     129115.9 (Joules/Mol)
                                   30.85944 (Kcal/Mol)
 Warning -- explicit consideration of  13 degrees of freedom as
           vibrations may cause significant error
 Vibrational temperatures:     69.48   150.83   245.68   313.87   354.62
          (Kelvin)            426.60   469.96   510.89   627.07   754.61
                              837.07   850.32   888.01   951.10  1053.40
                             1104.85  1194.59  1394.34  1647.79  1701.09
                             1790.82  1811.06  1946.11  2195.43  2311.98
                             5456.59

 Zero-point correction=                           0.049178 (Hartree/Particle)
 Thermal correction to Energy=                    0.057855
 Thermal correction to Enthalpy=                  0.058799
 Thermal correction to Gibbs Free Energy=         0.014559
 Sum of electronic and zero-point Energies=           -764.437156
 Sum of electronic and thermal Energies=              -764.428479
 Sum of electronic and thermal Enthalpies=            -764.427534
 Sum of electronic and thermal Free Energies=         -764.471775

                     E (Thermal)             CV                S
                      KCal/Mol        Cal/Mol-Kelvin    Cal/Mol-Kelvin
 Total                   36.305             30.363             93.113
 Electronic               0.000              0.000              0.000
 Translational            0.889              2.981             41.192
 Rotational               0.889              2.981             29.496
 Vibrational             34.527             24.402             22.425
 Vibration     1          0.595              1.978              4.886
 Vibration     2          0.605              1.945              3.362
 Vibration     3          0.626              1.878              2.427
 Vibration     4          0.646              1.813              1.974
 Vibration     5          0.661              1.769              1.756
 Vibration     6          0.690              1.680              1.437
 Vibration     7          0.710              1.622              1.277
 Vibration     8          0.731              1.565              1.144
 Vibration     9          0.796              1.392              0.840
 Vibration    10          0.879              1.196              0.600
 Vibration    11          0.939              1.071              0.482
 Vibration    12          0.948              1.051              0.465
 Vibration    13          0.977              0.996              0.421

 Normal termination of Gaussian 16 at Sat May 24 07:37:12 2025.
