 Gaussian 16, Revision C.01,
 Gaussian 16:  ES64L-G16RevC.01  3-Jul-2019

 -----------------------------------------------------------------
 #P M062X/Def2TZVPP Symm(None) scf(xqc) pop(None) freq opt(CalcFC)
 -----------------------------------------------------------------

 ------------------------------
 Gaussian input prepared by ASE
 ------------------------------
 Symbolic Z-matrix:
 Charge =  0 Multiplicity = 1

 SCF Done:  E(RM062X) =  -764.622868326     A.U. after   13 cycles
 SCF Done:  E(RM062X) =  -764.625605861     A.U. after   11 cycles
 SCF Done:  E(RM062X) =  -764.625667909     A.U. after   10 cycles
 SCF Done:  E(RM062X) =  -764.625668462     A.U. after    8 cycles
 SCF Done:  E(RM062X) =  -764.625669105     A.U. after    8 cycles
 Optimization completed.
    -- Stationary point found.
 Normal termination of Gaussian 16 at Sat May 24 05:19:24 2025.

 ---------------------------------------------------------------------
 #P Geom=AllCheck Guess=TCheck SCRF=Check GenChk RM062X/def2TZVPP Freq
 ---------------------------------------------------------------------

 Structure from the checkpoint file:  "/tmp/Gau-48365.chk"
 ------------------------------
 Gaussian input prepared by ASE
 ------------------------------
 Charge =  0 Multiplicity = 1

                          Input orientation:
 ---------------------------------------------------------------------
 Center     Atomic      Atomic             Coordinates (Angstroms)
 Number     Number       Type             X           Y           Z
 ---------------------------------------------------------------------
      1          6           0        1.396474    0.017311   -0.022163
      2          8           0        0.000810   -0.004998   -0.034494
      3          6           0        0.651000   -0.521311   -1.159678
      4          6           0        0.390927    0.208098   -2.466874
      5          9           0       -0.840086   -0.023523   -2.896201
      6          9           0        0.528929    1.528547   -2.292277
      7          9           0        1.249125   -0.180204   -3.398057
      8          9           0        1.959388   -0.857775    0.795751
      9          9           0        0.542980   -1.838380   -1.340036
     10          8           0        2.038344    1.191650    0.083609
     11          1           0        1.588621    1.860892   -0.443230
 ---------------------------------------------------------------------

 SCF Done:  E(RM062X) =  -764.625669105     A.U. after    1 cycles

 Isotropic polarizability for W=    0.000000       43.05 Bohr**3.
 End of Minotr F.D. properties file   721 does not exist.

                      1                      2                      3
                      A                      A                      A
 Frequencies --     52.9805               145.7936               173.5290
 Red. masses --     17.4885                11.6883                 7.0824
 Frc consts  --      0.0289                 0.1464                 0.1257
 IR Inten    --      0.1841                 4.2967                11.2709

                      4                      5                      6
                      A                      A                      A
 Frequencies --    245.1204               254.3902               300.9148
 Red. masses --      2.3687                15.5789                 2.9844
 Frc consts  --      0.0839                 0.5940                 0.1592
 IR Inten    --     32.4566                 0.9052                47.0537

                      7                      8                      9
                      A                      A                      A
 Frequencies --    323.5075               359.6501               439.8711
 Red. masses --      4.6919                13.5538                16.5541
 Frc consts  --      0.2893                 1.0329                 1.8872
 IR Inten    --     28.2026                 1.7841                 3.6491

                     10                     11                     12
                      A                      A                      A
 Frequencies --    512.4246               546.1193               576.5399
 Red. masses --      7.6050                14.2504                10.9790
 Frc consts  --      1.1765                 2.5041                 2.1502
 IR Inten    --     10.2975                 1.8020                14.9704

                     13                     14                     15
                      A                      A                      A
 Frequencies --    595.5420               632.9480               742.3217
 Red. masses --     17.2394                16.1669                14.8046
 Frc consts  --      3.6024                 3.8161                 4.8065
 IR Inten    --      0.7944                 8.8717                47.0874

                     16                     17                     18
                      A                      A                      A
 Frequencies --    796.2979               840.9140              1044.3930
 Red. masses --     16.1169                12.7298                 8.5157
 Frc consts  --      6.0212                 5.3036                 5.4727
 IR Inten    --      5.8792                 1.7207               209.3289

                     19                     20                     21
                      A                      A                      A
 Frequencies --   1169.6343              1173.1461              1247.7116
 Red. masses --     11.4449                 2.8509                 7.1651
 Frc consts  --      9.2249                 2.3117                 6.5721
 IR Inten    --    142.0696                26.2664               570.6145

                     22                     23                     24
                      A                      A                      A
 Frequencies --   1255.9024              1283.3257              1413.7420
 Red. masses --      4.6410                12.5613                 3.3626
 Frc consts  --      4.3129                12.1887                 3.9597
 IR Inten    --    172.3484               264.8747                98.0705

                     25                     26                     27
                      A                      A                      A
 Frequencies --   1423.5937              1592.6429              3872.6079
 Red. masses --     12.0530                 9.1902                 1.0655
 Frc consts  --     14.3919                13.7344                 9.4147
 IR Inten    --     88.9750               199.5637               125.1751

 - Thermochemistry -
 -------------------
 Temperature   298.150 Kelvin.  Pressure   1.00000 Atm.
 Atom     1 has atomic number  6 and mass  12.00000

 Molecular mass:   163.98967 amu.
 Principal axes and moments of inertia in atomic units:
                           1         2         3
     Eigenvalues --   810.399701610.160431900.45859
           X            0.39330   0.24715   0.88557
           Y           -0.10833   0.96894  -0.22231
           Z            0.91300   0.00850  -0.40786
 This molecule is an asymmetric top.
 Rotational symmetry number  1.
 Warning -- assumption of classical behavior for rotation
           may cause significant error
 Rotational temperatures (Kelvin)      0.10688     0.05379     0.04558
 Rotational constants (GHZ):           2.22698     1.12085     0.94963
 Zero-point vibrational energy     137663.6 (Joules/Mol)
                                   32.90240 (Kcal/Mol)
 Warning -- explicit consideration of  13 degrees of freedom as
           vibrations may cause significant error
 Vibrational temperatures:     76.23   209.76   249.67   352.67   366.01
          (Kelvin)            432.95   465.46   517.46   632.88   737.26
                              785.74   829.51   856.85   910.67  1068.04
                             1145.70  1209.89  1502.65  1682.84  1687.90
                             1795.18  1806.96  1846.42  2034.06  2048.23
                             2291.46  5571.82

 Zero-point correction=                           0.052433 (Hartree/Particle)
 Thermal correction to Energy=                    0.061010
 Thermal correction to Enthalpy=                  0.061955
 Thermal correction to Gibbs Free Energy=         0.018283
 Sum of electronic and zero-point Energies=           -764.573236
 Sum of electronic and thermal Energies=              -764.564659
 Sum of electronic and thermal Enthalpies=            -764.563715
 Sum of electronic and thermal Free Energies=         -764.607386

                     E (Thermal)             CV                S
                      KCal/Mol        Cal/Mol-Kelvin    Cal/Mol-Kelvin
 Total                   38.285             30.471             91.915
 Electronic               0.000              0.000              0.000
 Translational            0.889              2.981             41.192
 Rotational               0.889              2.981             29.296
 Vibrational             36.507             24.509             21.427
 Vibration     1          0.596              1.976              4.703
 Vibration     2          0.617              1.907              2.726
 Vibration     3          0.627              1.875              2.397
 Vibration     4          0.660              1.771              1.765
 Vibration     5          0.665              1.755              1.700
 Vibration     6          0.693              1.672              1.412
 Vibration     7          0.708              1.628              1.292
 Vibration     8          0.734              1.555              1.124
 Vibration     9          0.800              1.383              0.827
 Vibration    10          0.868              1.222              0.628
 Vibration    11          0.901              1.148              0.552
 Vibration    12          0.933              1.082              0.492
 Vibration    13          0.953              1.041              0.457

 Optimization completed.
    -- Stationary point found.
 Normal termination of Gaussian 16 at Sat May 24 05:23:08 2025.
