 Gaussian 16, Revision C.01,
 Gaussian 16:  ES64L-G16RevC.01  3-Jul-2019

 -----------------------------------------------------------------
 #P M062X/Def2TZVPP Symm(None) scf(xqc) pop(None) freq opt(CalcFC)
 -----------------------------------------------------------------

 ------------------------------
 Gaussian input prepared by ASE
 ------------------------------
 Symbolic Z-matrix:
 Charge =  0 Multiplicity = 1

 SCF Done:  E(RM062X) =  -764.408156501     A.U. after   15 cycles
 SCF Done:  E(RM062X) =  -764.413932258     A.U. after   14 cycles
 SCF Done:  E(RM062X) =  -764.414246088     A.U. after   14 cycles
 SCF Done:  E(RM062X) =  -764.414259024     A.U. after   12 cycles
 SCF Done:  E(RM062X) =  -764.414259697     A.U. after    8 cycles
 Optimization completed.
    -- Stationary point found.
 Normal termination of Gaussian 16 at Sat May 24 06:17:51 2025.

 ---------------------------------------------------------------------
 #P Geom=AllCheck Guess=TCheck SCRF=Check GenChk RM062X/def2TZVPP Freq
 ---------------------------------------------------------------------

 Structure from the checkpoint file:  "/tmp/Gau-68068.chk"
 ------------------------------
 Gaussian input prepared by ASE
 ------------------------------
 Charge =  0 Multiplicity = 1

                          Input orientation:
 ---------------------------------------------------------------------
 Center     Atomic      Atomic             Coordinates (Angstroms)
 Number     Number       Type             X           Y           Z
 ---------------------------------------------------------------------
      1          6           0        1.435542   -0.014637    0.045493
      2          8           0        0.014489    0.013439   -0.049768
      3          6           0        1.874520    1.465272    0.032987
      4          6           0        3.241305    1.667914    0.702747
      5          9           0        3.577843    2.950477    0.705951
      6          9           0        3.161464    1.248714    1.968866
      7          9           0        4.180848    0.981131    0.080397
      8          9           0        1.946225    1.846653   -1.246032
      9          9           0        1.006152    2.315287    0.669708
     10          8           0        0.499636   -0.098777    1.309791
     11          1           0        0.320917    0.803723    1.648363
 ---------------------------------------------------------------------

 SCF Done:  E(RM062X) =  -764.414259697     A.U. after    1 cycles

 Isotropic polarizability for W=    0.000000       46.28 Bohr**3.
 End of Minotr F.D. properties file   721 does not exist.

                      1                      2                      3
                      A                      A                      A
 Frequencies --     69.6314                75.3612               176.2928
 Red. masses --     15.9567                10.6143                12.9771
 Frc consts  --      0.0456                 0.0355                 0.2376
 IR Inten    --      1.0396                 2.9705                 6.4319

                      4                      5                      6
                      A                      A                      A
 Frequencies --    219.0177               273.4599               314.1522
 Red. masses --     17.4009                10.9080                12.1327
 Frc consts  --      0.4918                 0.4806                 0.7055
 IR Inten    --      3.9886                 7.2775                15.1107

                      7                      8                      9
                      A                      A                      A
 Frequencies --    338.7636               361.0003               411.3132
 Red. masses --     15.2288                16.9067                12.6191
 Frc consts  --      1.0297                 1.2981                 1.2578
 IR Inten    --      1.0773                 0.1049                 5.1732

                     10                     11                     12
                      A                      A                      A
 Frequencies --    466.5394               535.3998               563.1517
 Red. masses --     13.9473                16.3241                13.8046
 Frc consts  --      1.7886                 2.7570                 2.5794
 IR Inten    --      3.0177                10.9284                 8.3445

                     13                     14                     15
                      A                      A                      A
 Frequencies --    594.3098               634.0064               729.1476
 Red. masses --     14.3368                11.4585                 7.4472
 Frc consts  --      2.9835                 2.7137                 2.3328
 IR Inten    --      2.5416                14.6929                19.8940

                     16                     17                     18
                      A                      A                      A
 Frequencies --    784.8369               874.6670               991.4082
 Red. masses --      7.5133                 8.3834                 1.4790
 Frc consts  --      2.7267                 3.7788                 0.8565
 IR Inten    --     48.7880                49.0801                89.9162

                     19                     20                     21
                      A                      A                      A
 Frequencies --   1065.3784              1128.5005              1196.2072
 Red. masses --     10.5036                10.0582                13.1090
 Frc consts  --      7.0242                 7.5470                11.0518
 IR Inten    --    148.0058                50.0060               111.3689

                     22                     23                     24
                      A                      A                      A
 Frequencies --   1253.9545              1275.7183              1304.8091
 Red. masses --     11.2898                 8.4480                11.6990
 Frc consts  --     10.4592                 8.1005                11.7353
 IR Inten    --    345.6416                43.5971               266.5577

                     25                     26                     27
                      A                      A                      A
 Frequencies --   1335.0233              1419.5501              3612.5806
 Red. masses --      1.2310                12.0033                 1.0655
 Frc consts  --      1.2927                14.2513                 8.1928
 IR Inten    --     61.2167                73.5281               157.9824

 - Thermochemistry -
 -------------------
 Temperature   298.150 Kelvin.  Pressure   1.00000 Atm.
 Atom     1 has atomic number  6 and mass  12.00000

 Molecular mass:   163.98967 amu.
 Principal axes and moments of inertia in atomic units:
                           1         2         3
     Eigenvalues --   816.216391620.864231765.09828
           X            0.88475   0.17756  -0.43091
           Y            0.45985  -0.48296   0.74517
           Z            0.07580   0.85745   0.50895
 This molecule is an asymmetric top.
 Rotational symmetry number  1.
 Warning -- assumption of classical behavior for rotation
           may cause significant error
 Rotational temperatures (Kelvin)      0.10612     0.05344     0.04907
 Rotational constants (GHZ):           2.21111     1.11344     1.02246
 Zero-point vibrational energy     131614.2 (Joules/Mol)
                                   31.45656 (Kcal/Mol)
 Warning -- explicit consideration of  13 degrees of freedom as
           vibrations may cause significant error
 Vibrational temperatures:    100.18   108.43   253.65   315.12   393.45
          (Kelvin)            452.00   487.41   519.40   591.79   671.25
                              770.32   810.25   855.08   912.19  1049.08
                             1129.21  1258.45  1426.42  1532.84  1623.66
                             1721.08  1804.16  1835.47  1877.33  1920.80
                             2042.42  5197.70

 Zero-point correction=                           0.050129 (Hartree/Particle)
 Thermal correction to Energy=                    0.058887
 Thermal correction to Enthalpy=                  0.059832
 Thermal correction to Gibbs Free Energy=         0.015717
 Sum of electronic and zero-point Energies=           -764.364130
 Sum of electronic and thermal Energies=              -764.355372
 Sum of electronic and thermal Enthalpies=            -764.354428
 Sum of electronic and thermal Free Energies=         -764.398542

                     E (Thermal)             CV                S
                      KCal/Mol        Cal/Mol-Kelvin    Cal/Mol-Kelvin
 Total                   36.952             31.013             92.846
 Electronic               0.000              0.000              0.000
 Translational            0.889              2.981             41.192
 Rotational               0.889              2.981             29.236
 Vibrational             35.175             25.051             22.417
 Vibration     1          0.598              1.969              4.164
 Vibration     2          0.599              1.965              4.008
 Vibration     3          0.628              1.872              2.367
 Vibration     4          0.647              1.812              1.967
 Vibration     5          0.676              1.722              1.574
 Vibration     6          0.702              1.647              1.340
 Vibration     7          0.719              1.598              1.218
 Vibration     8          0.735              1.553              1.118
 Vibration     9          0.775              1.446              0.922
 Vibration    10          0.824              1.324              0.747
 Vibration    11          0.890              1.172              0.575
 Vibration    12          0.919              1.111              0.518
 Vibration    13          0.952              1.044              0.460

 Optimization completed.
    -- Stationary point found.
 Normal termination of Gaussian 16 at Sat May 24 06:21:24 2025.
