 Gaussian 16, Revision C.01,
 Gaussian 16:  ES64L-G16RevC.01  3-Jul-2019

 -----------------------------------------------------------------
 #P M062X/Def2TZVPP Symm(None) scf(xqc) pop(None) freq opt(CalcFC)
 -----------------------------------------------------------------

 ------------------------------
 Gaussian input prepared by ASE
 ------------------------------
 Symbolic Z-matrix:
 Charge =  0 Multiplicity = 1

 SCF Done:  E(RM062X) =  -764.413768731     A.U. after   15 cycles
 SCF Done:  E(RM062X) =  -764.413768809     A.U. after    8 cycles
 Optimization completed.
    -- Stationary point found.
 Normal termination of Gaussian 16 at Sat May 24 06:16:03 2025.

 ---------------------------------------------------------------------
 #P Geom=AllCheck Guess=TCheck SCRF=Check GenChk RM062X/def2TZVPP Freq
 ---------------------------------------------------------------------

 Structure from the checkpoint file:  "/tmp/Gau-200604.chk"
 ------------------------------
 Gaussian input prepared by ASE
 ------------------------------
 Charge =  0 Multiplicity = 1

                          Input orientation:
 ---------------------------------------------------------------------
 Center     Atomic      Atomic             Coordinates (Angstroms)
 Number     Number       Type             X           Y           Z
 ---------------------------------------------------------------------
      1          6           0        1.424430    0.000135   -0.000325
      2          8           0       -0.000579    0.000904   -0.000104
      3          6           0        1.863166    1.476738    0.000061
      4          6           0        2.021029    2.007643   -1.435565
      5          9           0        2.323990    3.298078   -1.418439
      6          9           0        2.980184    1.351933   -2.067207
      7          9           0        0.878357    1.845597   -2.097050
      8          9           0        0.991570    2.319050    0.642485
      9          9           0        3.038674    1.585809    0.633868
     10          8           0        0.575173   -0.097316    1.324481
     11          1           0        0.399375    0.803173    1.670225
 ---------------------------------------------------------------------

 SCF Done:  E(RM062X) =  -764.413768809     A.U. after    1 cycles

 Isotropic polarizability for W=    0.000000       46.41 Bohr**3.
 End of Minotr F.D. properties file   721 does not exist.

                      1                      2                      3
                      A                      A                      A
 Frequencies --     56.6251                79.2398               175.1676
 Red. masses --     17.0887                11.6824                11.0945
 Frc consts  --      0.0323                 0.0432                 0.2006
 IR Inten    --      0.9709                 2.2434                 6.5100

                      4                      5                      6
                      A                      A                      A
 Frequencies --    217.0254               271.4161               325.2705
 Red. masses --     17.6547                13.9119                10.4943
 Frc consts  --      0.4899                 0.6038                 0.6542
 IR Inten    --      3.3601                 6.0942                18.8193

                      7                      8                      9
                      A                      A                      A
 Frequencies --    333.0952               361.1364               410.3086
 Red. masses --     12.7954                18.0989                13.3172
 Frc consts  --      0.8364                 1.3907                 1.3209
 IR Inten    --      0.5572                 0.1409                 3.2842

                     10                     11                     12
                      A                      A                      A
 Frequencies --    494.2370               533.0863               558.4228
 Red. masses --     13.5785                14.9977                14.8133
 Frc consts  --      1.9542                 2.5111                 2.7216
 IR Inten    --      2.2069                21.1042                20.4478

                     13                     14                     15
                      A                      A                      A
 Frequencies --    594.1692               651.1148               715.4910
 Red. masses --     15.9033                13.8396                 6.6953
 Frc consts  --      3.3079                 3.4569                 2.0194
 IR Inten    --      1.6832                 2.6019                28.5133

                     16                     17                     18
                      A                      A                      A
 Frequencies --    785.4914               878.1396               993.7342
 Red. masses --      8.4151                 7.9010                 1.5044
 Frc consts  --      3.0591                 3.5897                 0.8753
 IR Inten    --     35.7981                33.3138                78.9086

                     19                     20                     21
                      A                      A                      A
 Frequencies --   1063.4268              1129.9175              1192.9724
 Red. masses --      9.7279                 8.8922                12.7425
 Frc consts  --      6.4816                 6.6889                10.6847
 IR Inten    --    135.8531                60.6782               114.4599

                     22                     23                     24
                      A                      A                      A
 Frequencies --   1245.3977              1282.7961              1297.0907
 Red. masses --      8.3249                10.0761                 8.9171
 Frc consts  --      7.6075                 9.7692                 8.8392
 IR Inten    --    202.7752               178.0156               234.8290

                     25                     26                     27
                      A                      A                      A
 Frequencies --   1338.4210              1401.0048              3612.2230
 Red. masses --      1.3051                11.1412                 1.0654
 Frc consts  --      1.3775                12.8843                 8.1902
 IR Inten    --    140.0911                74.3053               157.1960

 - Thermochemistry -
 -------------------
 Temperature   298.150 Kelvin.  Pressure   1.00000 Atm.
 Atom     1 has atomic number  6 and mass  12.00000

 Molecular mass:   163.98967 amu.
 Principal axes and moments of inertia in atomic units:
                           1         2         3
     Eigenvalues --   815.486391607.158431773.07700
           X           -0.45911   0.61083  -0.64506
           Y           -0.57036   0.35403   0.74118
           Z            0.68111   0.70820   0.18586
 This molecule is an asymmetric top.
 Rotational symmetry number  1.
 Warning -- assumption of classical behavior for rotation
           may cause significant error
 Rotational temperatures (Kelvin)      0.10621     0.05389     0.04885
 Rotational constants (GHZ):           2.21309     1.12294     1.01786
 Zero-point vibrational energy     131567.8 (Joules/Mol)
                                   31.44546 (Kcal/Mol)
 Warning -- explicit consideration of  13 degrees of freedom as
           vibrations may cause significant error
 Vibrational temperatures:     81.47   114.01   252.03   312.25   390.51
          (Kelvin)            467.99   479.25   519.59   590.34   711.10
                              766.99   803.45   854.88   936.81  1029.43
                             1130.15  1263.45  1429.76  1530.03  1625.70
                             1716.42  1791.85  1845.66  1866.22  1925.69
                             2015.73  5197.18

 Zero-point correction=                           0.050112 (Hartree/Particle)
 Thermal correction to Energy=                    0.058870
 Thermal correction to Enthalpy=                  0.059814
 Thermal correction to Gibbs Free Energy=         0.015582
 Sum of electronic and zero-point Energies=           -764.363657
 Sum of electronic and thermal Energies=              -764.354899
 Sum of electronic and thermal Enthalpies=            -764.353955
 Sum of electronic and thermal Free Energies=         -764.398187

                     E (Thermal)             CV                S
                      KCal/Mol        Cal/Mol-Kelvin    Cal/Mol-Kelvin
 Total                   36.941             30.965             93.094
 Electronic               0.000              0.000              0.000
 Translational            0.889              2.981             41.192
 Rotational               0.889              2.981             29.231
 Vibrational             35.164             25.003             22.670
 Vibration     1          0.596              1.975              4.571
 Vibration     2          0.600              1.963              3.910
 Vibration     3          0.627              1.873              2.379
 Vibration     4          0.646              1.815              1.984
 Vibration     5          0.675              1.726              1.587
 Vibration     6          0.709              1.625              1.283
 Vibration     7          0.715              1.609              1.245
 Vibration     8          0.735              1.552              1.117
 Vibration     9          0.774              1.448              0.926
 Vibration    10          0.850              1.263              0.673
 Vibration    11          0.888              1.177              0.580
 Vibration    12          0.914              1.121              0.527
 Vibration    13          0.952              1.044              0.460

 Optimization completed.
    -- Stationary point found.
 Normal termination of Gaussian 16 at Sat May 24 06:19:44 2025.
