 Gaussian 16, Revision C.01,
 Gaussian 16:  ES64L-G16RevC.01  3-Jul-2019

 -----------------------------------------------------------------
 #P M062X/Def2TZVPP Symm(None) scf(xqc) pop(None) freq opt(CalcFC)
 -----------------------------------------------------------------

 ------------------------------
 Gaussian input prepared by ASE
 ------------------------------
 Symbolic Z-matrix:
 Charge =  0 Multiplicity = 1

 SCF Done:  E(RM062X) =  -764.356845261     A.U. after   15 cycles
 SCF Done:  E(RM062X) =  -764.374937401     A.U. after   16 cycles
 SCF Done:  E(RM062X) =  -764.390378013     A.U. after   15 cycles
 SCF Done:  E(RM062X) =  -764.398642842     A.U. after   14 cycles
 SCF Done:  E(RM062X) =  -764.400910132     A.U. after   16 cycles
 SCF Done:  E(RM062X) =  -764.382386009     A.U. after   15 cycles
 SCF Done:  E(RM062X) =  -764.407705215     A.U. after   14 cycles
 SCF Done:  E(RM062X) =  -764.406021331     A.U. after   14 cycles
 SCF Done:  E(RM062X) =  -764.408842815     A.U. after   13 cycles
 SCF Done:  E(RM062X) =  -764.409046542     A.U. after   12 cycles
 SCF Done:  E(RM062X) =  -764.409486992     A.U. after   12 cycles
 SCF Done:  E(RM062X) =  -764.409657325     A.U. after   12 cycles
 SCF Done:  E(RM062X) =  -764.409788123     A.U. after   13 cycles
 SCF Done:  E(RM062X) =  -764.409943060     A.U. after   13 cycles
 SCF Done:  E(RM062X) =  -764.410032110     A.U. after   13 cycles
 SCF Done:  E(RM062X) =  -764.410080205     A.U. after   13 cycles
 SCF Done:  E(RM062X) =  -764.410105227     A.U. after   11 cycles
 SCF Done:  E(RM062X) =  -764.410113586     A.U. after   11 cycles
 SCF Done:  E(RM062X) =  -764.410114186     A.U. after    9 cycles
 Optimization completed.
    -- Stationary point found.
 Normal termination of Gaussian 16 at Sat May 24 06:29:41 2025.

 ---------------------------------------------------------------------
 #P Geom=AllCheck Guess=TCheck SCRF=Check GenChk RM062X/def2TZVPP Freq
 ---------------------------------------------------------------------

 Structure from the checkpoint file:  "/tmp/Gau-76859.chk"
 ------------------------------
 Gaussian input prepared by ASE
 ------------------------------
 Charge =  0 Multiplicity = 1

                          Input orientation:
 ---------------------------------------------------------------------
 Center     Atomic      Atomic             Coordinates (Angstroms)
 Number     Number       Type             X           Y           Z
 ---------------------------------------------------------------------
      1          6           0        1.330583    0.028421   -0.139003
      2          8           0       -0.042770   -0.108897    0.228486
      3          6           0        1.748251    1.514698    0.007749
      4          6           0        0.770239    2.554431    0.595075
      5          9           0        1.333835    3.743228    0.704166
      6          9           0       -0.321154    2.660644   -0.138532
      7          9           0        0.402724    2.167045    1.842754
      8          9           0        2.861476    1.559241    0.768832
      9          9           0        2.045293    1.945253   -1.227353
     10          8           0        0.862861   -0.412464    1.313693
     11          1           0        0.731978    0.355210    1.907532
 ---------------------------------------------------------------------

 SCF Done:  E(RM062X) =  -764.410114186     A.U. after    1 cycles

 Isotropic polarizability for W=    0.000000       46.76 Bohr**3.
 End of Minotr F.D. properties file   721 does not exist.

                      1                      2                      3
                      A                      A                      A
 Frequencies --     88.2063                97.5331               180.0004
 Red. masses --      9.7262                16.4860                16.4852
 Frc consts  --      0.0446                 0.0924                 0.3147
 IR Inten    --      5.6928                 0.5947                 3.4992

                      4                      5                      6
                      A                      A                      A
 Frequencies --    234.7629               267.7318               276.3327
 Red. masses --     18.2495                 8.0234                15.4274
 Frc consts  --      0.5926                 0.3389                 0.6941
 IR Inten    --      2.2232                21.5871                 4.1980

                      7                      8                      9
                      A                      A                      A
 Frequencies --    349.6810               369.5820               409.2323
 Red. masses --     15.5234                14.5601                16.4957
 Frc consts  --      1.1184                 1.1718                 1.6277
 IR Inten    --      1.4596                 0.7583                 1.3254

                     10                     11                     12
                      A                      A                      A
 Frequencies --    479.8968               516.1283               566.8222
 Red. masses --     14.4989                14.1778                12.7059
 Frc consts  --      1.9674                 2.2252                 2.4052
 IR Inten    --     10.5426                 5.5059                16.6880

                     13                     14                     15
                      A                      A                      A
 Frequencies --    616.2187               620.6492               674.5530
 Red. masses --      8.0750                14.6307                13.4281
 Frc consts  --      1.8066                 3.3205                 3.6000
 IR Inten    --     30.8273                 9.6586                 0.3650

                     16                     17                     18
                      A                      A                      A
 Frequencies --    774.7368               874.0171               946.1204
 Red. masses --      9.1117                 4.3005                 1.6771
 Frc consts  --      3.2222                 1.9356                 0.8845
 IR Inten    --     19.8901                43.3365                29.0552

                     19                     20                     21
                      A                      A                      A
 Frequencies --   1081.9724              1155.4058              1191.5014
 Red. masses --     11.6518                11.5162                 7.5550
 Frc consts  --      8.0366                 9.0580                 6.3194
 IR Inten    --     50.6820               174.3993               210.9011

                     22                     23                     24
                      A                      A                      A
 Frequencies --   1231.7077              1260.5394              1311.3256
 Red. masses --     12.7940                12.6481                12.9406
 Frc consts  --     11.4359                11.8410                13.1107
 IR Inten    --    232.8243                85.1350               213.6201

                     25                     26                     27
                      A                      A                      A
 Frequencies --   1347.5821              1398.7781              3615.1909
 Red. masses --      1.2811                 6.6145                 1.0663
 Frc consts  --      1.3707                 7.6251                 8.2111
 IR Inten    --     97.5364                73.9438               250.4327

 - Thermochemistry -
 -------------------
 Temperature   298.150 Kelvin.  Pressure   1.00000 Atm.
 Atom     1 has atomic number  6 and mass  12.00000

 Molecular mass:   163.98967 amu.
 Principal axes and moments of inertia in atomic units:
                           1         2         3
     Eigenvalues --   977.387821351.130721566.49535
           X            0.08875   0.86847   0.48773
           Y            0.99375  -0.11048   0.01590
           Z           -0.06770  -0.48327   0.87285
 This molecule is an asymmetric top.
 Rotational symmetry number  1.
 Warning -- assumption of classical behavior for rotation
           may cause significant error
 Rotational temperatures (Kelvin)      0.08862     0.06410     0.05529
 Rotational constants (GHZ):           1.84649     1.33573     1.15209
 Zero-point vibrational energy     131207.7 (Joules/Mol)
                                   31.35938 (Kcal/Mol)
 Warning -- explicit consideration of  14 degrees of freedom as
           vibrations may cause significant error
 Vibrational temperatures:    126.91   140.33   258.98   337.77   385.21
          (Kelvin)            397.58   503.11   531.75   588.79   690.46
                              742.59   815.53   886.60   892.98   970.53
                             1114.67  1257.52  1361.26  1556.72  1662.37
                             1714.30  1772.15  1813.64  1886.71  1938.87
                             2012.53  5201.45

 Zero-point correction=                           0.049974 (Hartree/Particle)
 Thermal correction to Energy=                    0.058684
 Thermal correction to Enthalpy=                  0.059629
 Thermal correction to Gibbs Free Energy=         0.015994
 Sum of electronic and zero-point Energies=           -764.360140
 Sum of electronic and thermal Energies=              -764.351430
 Sum of electronic and thermal Enthalpies=            -764.350486
 Sum of electronic and thermal Free Energies=         -764.394120

                     E (Thermal)             CV                S
                      KCal/Mol        Cal/Mol-Kelvin    Cal/Mol-Kelvin
 Total                   36.825             31.152             91.837
 Electronic               0.000              0.000              0.000
 Translational            0.889              2.981             41.192
 Rotational               0.889              2.981             29.116
 Vibrational             35.048             25.191             21.529
 Vibration     1          0.601              1.957              3.699
 Vibration     2          0.603              1.951              3.503
 Vibration     3          0.629              1.867              2.328
 Vibration     4          0.655              1.788              1.842
 Vibration     5          0.673              1.732              1.611
 Vibration     6          0.678              1.717              1.556
 Vibration     7          0.727              1.576              1.168
 Vibration     8          0.742              1.535              1.082
 Vibration     9          0.774              1.450              0.929
 Vibration    10          0.836              1.295              0.710
 Vibration    11          0.871              1.214              0.619
 Vibration    12          0.923              1.103              0.510
 Vibration    13          0.976              0.998              0.423
 Vibration    14          0.981              0.988              0.415

                           ! Non-Optimized Parameters !
 Normal termination of Gaussian 16 at Sat May 24 06:33:46 2025.
