 Gaussian 16, Revision C.01,
 Gaussian 16:  ES64L-G16RevC.01  3-Jul-2019

 -----------------------------------------------------------------
 #P M062X/Def2TZVPP Symm(None) scf(xqc) pop(None) freq opt(CalcFC)
 -----------------------------------------------------------------

 ------------------------------
 Gaussian input prepared by ASE
 ------------------------------
 Symbolic Z-matrix:
 Charge =  0 Multiplicity = 1

 SCF Done:  E(RM062X) =  -764.624683237     A.U. after   13 cycles
 SCF Done:  E(RM062X) =  -764.624683288     A.U. after    6 cycles
 Optimization completed.
    -- Stationary point found.
 Normal termination of Gaussian 16 at Sat May 24 05:16:52 2025.

 ---------------------------------------------------------------------
 #P Geom=AllCheck Guess=TCheck SCRF=Check GenChk RM062X/def2TZVPP Freq
 ---------------------------------------------------------------------

 Structure from the checkpoint file:  "/tmp/Gau-229411.chk"
 ------------------------------
 Gaussian input prepared by ASE
 ------------------------------
 Charge =  0 Multiplicity = 1

                          Input orientation:
 ---------------------------------------------------------------------
 Center     Atomic      Atomic             Coordinates (Angstroms)
 Number     Number       Type             X           Y           Z
 ---------------------------------------------------------------------
      1          6           0        1.396880    0.000315   -0.000007
      2          8           0       -0.000447   -0.000223   -0.000088
      3          6           0        0.639762   -0.494494   -1.136458
      4          6           0        0.390846    0.248525   -2.442553
      5          9           0       -0.800300   -0.089074   -2.926401
      6          9           0        0.417851    1.558230   -2.263910
      7          9           0        1.316997   -0.084699   -3.335344
      8          9           0        1.917944   -0.900150    0.840887
      9          9           0        0.540452   -1.810567   -1.332585
     10          8           0        2.064752    1.160666    0.000118
     11          1           0        2.099384    1.516738    0.896546
 ---------------------------------------------------------------------

 SCF Done:  E(RM062X) =  -764.624683288     A.U. after    1 cycles

 Isotropic polarizability for W=    0.000000       43.30 Bohr**3.
 End of Minotr F.D. properties file   721 does not exist.

                      1                      2                      3
                      A                      A                      A
 Frequencies --     44.4645               140.0395               165.8247
 Red. masses --     15.0451                16.4596                11.6100
 Frc consts  --      0.0175                 0.1902                 0.1881
 IR Inten    --      0.1151                 0.4715                 0.8916

                      4                      5                      6
                      A                      A                      A
 Frequencies --    202.8115               253.2085               272.6857
 Red. masses --      1.0729                16.9186                12.9951
 Frc consts  --      0.0260                 0.6391                 0.5693
 IR Inten    --    114.1836                 1.4596                 6.1259

                      7                      8                      9
                      A                      A                      A
 Frequencies --    316.0103               355.3348               436.4819
 Red. masses --     14.7995                15.2692                14.1744
 Frc consts  --      0.8708                 1.1359                 1.5911
 IR Inten    --      6.0583                 1.7603                 3.6716

                     10                     11                     12
                      A                      A                      A
 Frequencies --    520.9958               551.8787               584.1281
 Red. masses --     14.4865                14.8089                16.3661
 Frc consts  --      2.3168                 2.6574                 3.2901
 IR Inten    --     17.5683                 3.0915                 5.4800

                     13                     14                     15
                      A                      A                      A
 Frequencies --    596.2184               634.7256               717.5436
 Red. masses --     15.1621                16.4681                 6.1030
 Frc consts  --      3.1756                 3.9090                 1.8514
 IR Inten    --      0.5636                11.6133                58.2885

                     16                     17                     18
                      A                      A                      A
 Frequencies --    791.9016               842.3188              1049.1444
 Red. masses --     12.1224                13.0032                13.4198
 Frc consts  --      4.4790                 5.4357                 8.7030
 IR Inten    --     19.8113                 1.0848               316.3640

                     19                     20                     21
                      A                      A                      A
 Frequencies --   1120.6469              1187.3550              1261.6711
 Red. masses --      3.5267                11.4786                12.8241
 Frc consts  --      2.6095                 9.5346                12.0274
 IR Inten    --    120.3485               140.6692               180.8435

                     22                     23                     24
                      A                      A                      A
 Frequencies --   1287.8230              1316.0214              1327.7736
 Red. masses --     12.2603                 2.0587                10.2461
 Frc consts  --     11.9802                 2.1008                10.6428
 IR Inten    --    114.4723               124.1966               534.4012

                     25                     26                     27
                      A                      A                      A
 Frequencies --   1419.1352              1631.6032              3831.3571
 Red. masses --     11.1229                 7.8005                 1.0654
 Frc consts  --     13.1982                12.2349                 9.2140
 IR Inten    --     64.0270               111.3590               114.3855

 - Thermochemistry -
 -------------------
 Temperature   298.150 Kelvin.  Pressure   1.00000 Atm.
 Atom     1 has atomic number  6 and mass  12.00000

 Molecular mass:   163.98967 amu.
 Principal axes and moments of inertia in atomic units:
                           1         2         3
     Eigenvalues --   804.908301619.988841901.49127
           X            0.38840   0.27619   0.87913
           Y           -0.12969   0.96092  -0.24459
           Z            0.91232   0.01901  -0.40904
 This molecule is an asymmetric top.
 Rotational symmetry number  1.
 Warning -- assumption of classical behavior for rotation
           may cause significant error
 Rotational temperatures (Kelvin)      0.10761     0.05347     0.04555
 Rotational constants (GHZ):           2.24217     1.11405     0.94912
 Zero-point vibrational energy     136727.8 (Joules/Mol)
                                   32.67873 (Kcal/Mol)
 Warning -- explicit consideration of  13 degrees of freedom as
           vibrations may cause significant error
 Vibrational temperatures:     63.97   201.49   238.58   291.80   364.31
          (Kelvin)            392.33   454.67   511.25   628.00   749.60
                              794.03   840.43   857.83   913.23  1032.39
                             1139.37  1211.91  1509.48  1612.36  1708.34
                             1815.26  1852.89  1893.46  1910.37  2041.82
                             2347.51  5512.47

 Zero-point correction=                           0.052077 (Hartree/Particle)
 Thermal correction to Energy=                    0.060808
 Thermal correction to Enthalpy=                  0.061752
 Thermal correction to Gibbs Free Energy=         0.017569
 Sum of electronic and zero-point Energies=           -764.572606
 Sum of electronic and thermal Energies=              -764.563875
 Sum of electronic and thermal Enthalpies=            -764.562931
 Sum of electronic and thermal Free Energies=         -764.607114

                     E (Thermal)             CV                S
                      KCal/Mol        Cal/Mol-Kelvin    Cal/Mol-Kelvin
 Total                   38.158             30.647             92.991
 Electronic               0.000              0.000              0.000
 Translational            0.889              2.981             41.192
 Rotational               0.889              2.981             29.296
 Vibrational             36.380             24.686             22.503
 Vibration     1          0.595              1.980              5.050
 Vibration     2          0.615              1.913              2.803
 Vibration     3          0.624              1.884              2.482
 Vibration     4          0.639              1.836              2.107
 Vibration     5          0.664              1.757              1.708
 Vibration     6          0.676              1.724              1.579
 Vibration     7          0.703              1.643              1.331
 Vibration     8          0.731              1.564              1.142
 Vibration     9          0.797              1.391              0.838
 Vibration    10          0.876              1.204              0.608
 Vibration    11          0.907              1.136              0.540
 Vibration    12          0.941              1.066              0.478
 Vibration    13          0.954              1.040              0.456

 Optimization completed.
    -- Stationary point found.
 Normal termination of Gaussian 16 at Sat May 24 05:20:18 2025.
