 Gaussian 16, Revision C.01,
 Gaussian 16:  ES64L-G16RevC.01  3-Jul-2019

 -----------------------------------------------------------------
 #P M062X/Def2TZVPP Symm(None) scf(xqc) pop(None) freq opt(CalcFC)
 -----------------------------------------------------------------

 ------------------------------
 Gaussian input prepared by ASE
 ------------------------------
 Symbolic Z-matrix:
 Charge =  0 Multiplicity = 1

 SCF Done:  E(RM062X) =  -764.621131386     A.U. after   13 cycles
 SCF Done:  E(RM062X) =  -764.623471066     A.U. after   11 cycles
 SCF Done:  E(RM062X) =  -764.623530177     A.U. after   12 cycles
 SCF Done:  E(RM062X) =  -764.623687562     A.U. after   11 cycles
 SCF Done:  E(RM062X) =  -764.623693009     A.U. after    8 cycles
 SCF Done:  E(RM062X) =  -764.623693285     A.U. after    6 cycles
 SCF Done:  E(RM062X) =  -764.623693578     A.U. after    7 cycles
 Optimization completed.
    -- Stationary point found.
 Normal termination of Gaussian 16 at Sat May 24 05:19:16 2025.

 ---------------------------------------------------------------------
 #P Geom=AllCheck Guess=TCheck SCRF=Check GenChk RM062X/def2TZVPP Freq
 ---------------------------------------------------------------------

 Structure from the checkpoint file:  "/tmp/Gau-70083.chk"
 ------------------------------
 Gaussian input prepared by ASE
 ------------------------------
 Charge =  0 Multiplicity = 1

                          Input orientation:
 ---------------------------------------------------------------------
 Center     Atomic      Atomic             Coordinates (Angstroms)
 Number     Number       Type             X           Y           Z
 ---------------------------------------------------------------------
      1          6           0        1.435203    0.008512   -0.059149
      2          8           0        0.060873    0.041228   -0.016910
      3          6           0        0.636396   -0.504131   -1.170152
      4          6           0        0.357973    0.220067   -2.478235
      5          9           0       -0.862927   -0.075716   -2.910401
      6          9           0        0.449120    1.530886   -2.329820
      7          9           0        1.234964   -0.169083   -3.400829
      8          9           0        2.010117   -0.903263    0.737639
      9          9           0        0.477877   -1.819796   -1.328069
     10          8           0        2.048987    1.203460    0.006460
     11          1           0        3.002829    1.073651    0.035439
 ---------------------------------------------------------------------

 SCF Done:  E(RM062X) =  -764.623693578     A.U. after    1 cycles

 Isotropic polarizability for W=    0.000000       43.28 Bohr**3.
 End of Minotr F.D. properties file   721 does not exist.

                      1                      2                      3
                      A                      A                      A
 Frequencies --     43.0649               137.5405               166.2120
 Red. masses --     14.4936                 9.8592                17.1330
 Frc consts  --      0.0158                 0.1099                 0.2789
 IR Inten    --      0.6663                 3.6863                 3.3824

                      4                      5                      6
                      A                      A                      A
 Frequencies --    206.4362               252.8072               269.1242
 Red. masses --      1.0905                17.7142                13.9420
 Frc consts  --      0.0274                 0.6670                 0.5949
 IR Inten    --    120.3296                 1.4128                 3.0214

                      7                      8                      9
                      A                      A                      A
 Frequencies --    316.9715               357.9528               437.9841
 Red. masses --     16.8634                16.9295                15.5606
 Frc consts  --      0.9982                 1.2780                 1.7587
 IR Inten    --      1.4911                 0.5411                 1.5934

                     10                     11                     12
                      A                      A                      A
 Frequencies --    508.6216               539.8579               580.5403
 Red. masses --      8.3273                10.5365                14.4067
 Frc consts  --      1.2692                 1.8093                 2.8607
 IR Inten    --     19.3372                 3.7174                 1.8115

                     13                     14                     15
                      A                      A                      A
 Frequencies --    595.6052               632.7904               741.1511
 Red. masses --     17.3397                16.3537                14.6061
 Frc consts  --      3.6242                 3.8582                 4.7271
 IR Inten    --      2.0057                11.8080                41.6324

                     16                     17                     18
                      A                      A                      A
 Frequencies --    795.8854               852.7779              1043.1378
 Red. masses --     16.6912                 8.7898                 6.4265
 Frc consts  --      6.2293                 3.7662                 4.1201
 IR Inten    --      9.1341                 4.9444               308.1766

                     19                     20                     21
                      A                      A                      A
 Frequencies --   1161.0670              1180.6832              1259.2744
 Red. masses --      4.4002                11.6765                11.5608
 Frc consts  --      3.4949                 9.5902                10.8013
 IR Inten    --    157.0550               119.8210               228.8676

                     22                     23                     24
                      A                      A                      A
 Frequencies --   1281.6812              1298.9896              1331.7554
 Red. masses --      8.5058                 2.7535                 4.8806
 Frc consts  --      8.2323                 2.7374                 5.1000
 IR Inten    --     69.1484               101.6948               525.1580

                     25                     26                     27
                      A                      A                      A
 Frequencies --   1420.6568              1607.0568              3868.1718
 Red. masses --     12.4345                 8.3957                 1.0659
 Frc consts  --     14.7862                12.7753                 9.3967
 IR Inten    --     65.8232               157.4109               135.9183

 - Thermochemistry -
 -------------------
 Temperature   298.150 Kelvin.  Pressure   1.00000 Atm.
 Atom     1 has atomic number  6 and mass  12.00000

 Molecular mass:   163.98967 amu.
 Principal axes and moments of inertia in atomic units:
                           1         2         3
     Eigenvalues --   809.659511623.489991909.12330
           X            0.42197   0.27670   0.86335
           Y           -0.11100   0.96089  -0.25371
           Z            0.89979  -0.01122  -0.43618
 This molecule is an asymmetric top.
 Rotational symmetry number  1.
 Warning -- assumption of classical behavior for rotation
           may cause significant error
 Rotational temperatures (Kelvin)      0.10698     0.05335     0.04537
 Rotational constants (GHZ):           2.22901     1.11164     0.94532
 Zero-point vibrational energy     136899.4 (Joules/Mol)
                                   32.71975 (Kcal/Mol)
 Warning -- explicit consideration of  13 degrees of freedom as
           vibrations may cause significant error
 Vibrational temperatures:     61.96   197.89   239.14   297.02   363.73
          (Kelvin)            387.21   456.05   515.01   630.16   731.79
                              776.74   835.27   856.94   910.44  1066.35
                             1145.10  1226.96  1500.84  1670.52  1698.74
                             1811.81  1844.05  1868.96  1916.10  2044.01
                             2312.20  5565.44

 Zero-point correction=                           0.052142 (Hartree/Particle)
 Thermal correction to Energy=                    0.060881
 Thermal correction to Enthalpy=                  0.061826
 Thermal correction to Gibbs Free Energy=         0.017593
 Sum of electronic and zero-point Energies=           -764.571551
 Sum of electronic and thermal Energies=              -764.562812
 Sum of electronic and thermal Enthalpies=            -764.561868
 Sum of electronic and thermal Free Energies=         -764.606101

                     E (Thermal)             CV                S
                      KCal/Mol        Cal/Mol-Kelvin    Cal/Mol-Kelvin
 Total                   38.204             30.636             93.096
 Electronic               0.000              0.000              0.000
 Translational            0.889              2.981             41.192
 Rotational               0.889              2.981             29.308
 Vibrational             36.426             24.674             22.596
 Vibration     1          0.595              1.980              5.113
 Vibration     2          0.614              1.916              2.838
 Vibration     3          0.624              1.884              2.478
 Vibration     4          0.641              1.831              2.075
 Vibration     5          0.664              1.758              1.711
 Vibration     6          0.674              1.730              1.602
 Vibration     7          0.704              1.641              1.326
 Vibration     8          0.733              1.559              1.131
 Vibration     9          0.798              1.387              0.833
 Vibration    10          0.864              1.231              0.637
 Vibration    11          0.895              1.162              0.566
 Vibration    12          0.937              1.073              0.484
 Vibration    13          0.953              1.041              0.457

 Optimization completed.
    -- Stationary point found.
 Normal termination of Gaussian 16 at Sat May 24 05:22:52 2025.
