 Gaussian 16, Revision C.01,
 Gaussian 16:  ES64L-G16RevC.01  3-Jul-2019

 -----------------------------------------------------------------
 #P M062X/Def2TZVPP Symm(None) scf(xqc) pop(None) freq opt(CalcFC)
 -----------------------------------------------------------------

 ------------------------------
 Gaussian input prepared by ASE
 ------------------------------
 Symbolic Z-matrix:
 Charge =  0 Multiplicity = 1

 SCF Done:  E(RM062X) =  -188.596935934     A.U. after   11 cycles
 Optimization completed.
    -- Stationary point found.
 Normal termination of Gaussian 16 at Sat May 24 07:17:21 2025.

 ---------------------------------------------------------------------
 #P Geom=AllCheck Guess=TCheck SCRF=Check GenChk RM062X/def2TZVPP Freq
 ---------------------------------------------------------------------

 Structure from the checkpoint file:  "/tmp/Gau-166655.chk"
 ------------------------------
 Gaussian input prepared by ASE
 ------------------------------
 Charge =  0 Multiplicity = 1

                          Input orientation:
 ---------------------------------------------------------------------
 Center     Atomic      Atomic             Coordinates (Angstroms)
 Number     Number       Type             X           Y           Z
 ---------------------------------------------------------------------
      1          6           0        2.541696   -0.789931   -0.641836
      2          8           0        2.559341   -1.943460   -0.687881
      3          8           0        2.524048    0.363599   -0.595791
 ---------------------------------------------------------------------

 SCF Done:  E(RM062X) =  -188.596935934     A.U. after    1 cycles

 Isotropic polarizability for W=    0.000000       14.83 Bohr**3.
 End of Minotr F.D. properties file   721 does not exist.

                      1                      2                      3
                      A                      A                      A
 Frequencies --    695.9330              1413.6525              2449.3138
 Red. masses --     12.8774                15.9949                12.8774
 Frc consts  --      3.6746                18.8329                45.5162
 IR Inten    --     37.1453                 0.0000               791.8966

 - Thermochemistry -
 -------------------
 Temperature   298.150 Kelvin.  Pressure   1.00000 Atm.
 Atom     1 has atomic number  6 and mass  12.00000

 Molecular mass:    43.98983 amu.
 Principal axes and moments of inertia in atomic units:
                           1         2         3
     Eigenvalues --     0.00000 152.28599 152.28599
           X           -0.01528   0.99979  -0.01336
           Y            0.99909   0.01474  -0.04009
           Z            0.03988   0.01396   0.99911
 This molecule is a prolate symmetric top.
 Rotational symmetry number  1.
 Rotational temperatures (Kelvin) ************     0.56876     0.56876
 Rotational constants (GHZ):      ************    11.85100    11.85100
 Zero-point vibrational energy      27268.3 (Joules/Mol)
                                    6.51727 (Kcal/Mol)
 Vibrational temperatures:   1001.29  2033.93  3524.02
          (Kelvin)

 Zero-point correction=                           0.010386 (Hartree/Particle)
 Thermal correction to Energy=                    0.013340
 Thermal correction to Enthalpy=                  0.014284
 Thermal correction to Gibbs Free Energy=        -0.000990
 Sum of electronic and zero-point Energies=           -188.586550
 Sum of electronic and thermal Energies=              -188.583596
 Sum of electronic and thermal Enthalpies=            -188.582652
 Sum of electronic and thermal Free Energies=         -188.597926

                     E (Thermal)             CV                S
                      KCal/Mol        Cal/Mol-Kelvin    Cal/Mol-Kelvin
 Total                    8.371              6.902             32.147
 Electronic               0.000              0.000              0.000
 Translational            0.889              2.981             37.270
 Rotational               0.889              2.981             -5.451
 Vibrational              6.593              0.940              0.328

 Optimization completed.
    -- Stationary point found.
 Normal termination of Gaussian 16 at Sat May 24 07:17:28 2025.
