 Gaussian 16, Revision C.01,
 Gaussian 16:  ES64L-G16RevC.01  3-Jul-2019

 -----------------------------------------------------------------
 #P M062X/Def2TZVPP Symm(None) scf(xqc) pop(None) freq opt(CalcFC)
 -----------------------------------------------------------------

 ------------------------------
 Gaussian input prepared by ASE
 ------------------------------
 Symbolic Z-matrix:
 Charge =  0 Multiplicity = 2

 SCF Done:  E(UM062X) =  -189.103566750     A.U. after   18 cycles
 Optimization completed.
    -- Stationary point found.
 Normal termination of Gaussian 16 at Sat May 24 00:10:36 2025.

 ---------------------------------------------------------------------
 #P Geom=AllCheck Guess=TCheck SCRF=Check GenChk UM062X/def2TZVPP Freq
 ---------------------------------------------------------------------

 Structure from the checkpoint file:  "/tmp/Gau-70656.chk"
 ------------------------------
 Gaussian input prepared by ASE
 ------------------------------
 Charge =  0 Multiplicity = 2

                          Input orientation:
 ---------------------------------------------------------------------
 Center     Atomic      Atomic             Coordinates (Angstroms)
 Number     Number       Type             X           Y           Z
 ---------------------------------------------------------------------
      1          6           0        1.570097   -0.004580   -0.000679
      2          8           0        2.161048   -1.020670    0.010729
      3          8           0        2.008204    1.240316    0.000171
      4          1           0        2.981469    1.240818    0.012443
 ---------------------------------------------------------------------

 SCF Done:  E(UM062X) =  -189.103566750     A.U. after    1 cycles

 Isotropic polarizability for W=    0.000000       19.49 Bohr**3.
 End of Minotr F.D. properties file   721 does not exist.

                      1                      2                      3
                      A                      A                      A
 Frequencies --    593.6383               614.5483              1120.4765
 Red. masses --      1.5192                 3.7437                 4.4708
 Frc consts  --      0.3154                 0.8330                 3.3070
 IR Inten    --    116.6312                38.1198               193.6826

                      4                      5                      6
                      A                      A                      A
 Frequencies --   1307.3770              1930.4765              3682.3739
 Red. masses --      1.6546                13.0255                 1.0630
 Frc consts  --      1.6663                28.6005                 8.4929
 IR Inten    --      0.8159               371.7304                44.9437

 - Thermochemistry -
 -------------------
 Temperature   298.150 Kelvin.  Pressure   1.00000 Atm.
 Atom     1 has atomic number  6 and mass  12.00000

 Molecular mass:    44.99765 amu.
 Principal axes and moments of inertia in atomic units:
                           1         2         3
     Eigenvalues --    12.60044 151.26422 163.86466
           X           -0.02738   0.99954  -0.01271
           Y            0.99962   0.02743   0.00381
           Z           -0.00416   0.01261   0.99991
 This molecule is an asymmetric top.
 Rotational symmetry number  1.
 Rotational temperatures (Kelvin)      6.87388     0.57260     0.52857
 Rotational constants (GHZ):         143.22845    11.93105    11.01361
 Zero-point vibrational energy      55320.7 (Joules/Mol)
                                   13.22195 (Kcal/Mol)
 Warning -- explicit consideration of   2 degrees of freedom as
           vibrations may cause significant error
 Vibrational temperatures:    854.11   884.20  1612.12  1881.02  2777.53
          (Kelvin)           5298.11

 Zero-point correction=                           0.021071 (Hartree/Particle)
 Thermal correction to Energy=                    0.024253
 Thermal correction to Enthalpy=                  0.025198
 Thermal correction to Gibbs Free Energy=        -0.003339
 Sum of electronic and zero-point Energies=           -189.082496
 Sum of electronic and thermal Energies=              -189.079313
 Sum of electronic and thermal Enthalpies=            -189.078369
 Sum of electronic and thermal Free Energies=         -189.106906

                     E (Thermal)             CV                S
                      KCal/Mol        Cal/Mol-Kelvin    Cal/Mol-Kelvin
 Total                   15.219              8.431             60.061
 Electronic               0.000              0.000              1.377
 Translational            0.889              2.981             37.338
 Rotational               0.889              2.981             20.374
 Vibrational             13.442              2.469              0.972
 Vibration     1          0.951              1.045              0.461
 Vibration     2          0.974              1.001              0.425

 Optimization completed.
    -- Stationary point found.
 Normal termination of Gaussian 16 at Sat May 24 00:10:47 2025.
