 Gaussian 16, Revision C.01,
 Gaussian 16:  ES64L-G16RevC.01  3-Jul-2019

 -----------------------------------------------------------------
 #P M062X/Def2TZVPP Symm(None) scf(xqc) pop(None) freq opt(CalcFC)
 -----------------------------------------------------------------

 ------------------------------
 Gaussian input prepared by ASE
 ------------------------------
 Symbolic Z-matrix:
 Charge =  0 Multiplicity = 1

 SCF Done:  E(RM062X) =  -289.027302287     A.U. after   13 cycles
 SCF Done:  E(RM062X) =  -289.038468871     A.U. after   14 cycles
 SCF Done:  E(RM062X) =  -289.040184634     A.U. after   14 cycles
 SCF Done:  E(RM062X) =  -289.040365872     A.U. after   11 cycles
 SCF Done:  E(RM062X) =  -289.040376156     A.U. after    8 cycles
 SCF Done:  E(RM062X) =  -289.040376887     A.U. after    7 cycles
 Optimization completed.
    -- Stationary point found.
 Normal termination of Gaussian 16 at Sat May 24 05:08:13 2025.

 ---------------------------------------------------------------------
 #P Geom=AllCheck Guess=TCheck SCRF=Check GenChk RM062X/def2TZVPP Freq
 ---------------------------------------------------------------------

 Structure from the checkpoint file:  "/tmp/Gau-16121.chk"
 ------------------------------
 Gaussian input prepared by ASE
 ------------------------------
 Charge =  0 Multiplicity = 1

                          Input orientation:
 ---------------------------------------------------------------------
 Center     Atomic      Atomic             Coordinates (Angstroms)
 Number     Number       Type             X           Y           Z
 ---------------------------------------------------------------------
      1          6           0        1.293643    0.019338   -0.073313
      2          8           0        1.999919   -0.926433   -0.096448
      3          9           0        0.006940   -0.038796    0.205280
      4          8           0        1.606552    1.284621   -0.307225
      5          1           0        2.548820    1.320200   -0.510774
 ---------------------------------------------------------------------

 SCF Done:  E(RM062X) =  -289.040376887     A.U. after    1 cycles

 Isotropic polarizability for W=    0.000000       19.34 Bohr**3.
 End of Minotr F.D. properties file   721 does not exist.

                      1                      2                      3
                      A                      A                      A
 Frequencies --    569.6328               571.8099               630.3368
 Red. masses --      2.6172                 1.4570                10.7060
 Frc consts  --      0.5004                 0.2807                 2.5062
 IR Inten    --     40.4330                83.4127                19.4614

                      4                      5                      6
                      A                      A                      A
 Frequencies --    810.4092              1000.9437              1225.2186
 Red. masses --     12.2729                 6.5155                 2.0702
 Frc consts  --      4.7491                 3.8461                 1.8310
 IR Inten    --     45.8351                58.0078               313.0198

                      7                      8                      9
                      A                      A                      A
 Frequencies --   1420.2234              1952.5194              3853.6692
 Red. masses --      3.0312                11.9842                 1.0653
 Frc consts  --      3.6023                26.9185                 9.3212
 IR Inten    --    204.7702               574.3820               133.3595

 - Thermochemistry -
 -------------------
 Temperature   298.150 Kelvin.  Pressure   1.00000 Atm.
 Atom     1 has atomic number  6 and mass  12.00000

 Molecular mass:    63.99606 amu.
 Principal axes and moments of inertia in atomic units:
                           1         2         3
     Eigenvalues --   149.45050 156.34569 305.79619
           X            0.95031  -0.23489   0.20431
           Y            0.21175   0.96879   0.12887
           Z           -0.22821  -0.07920   0.97039
 This molecule is an asymmetric top.
 Rotational symmetry number  1.
 Rotational temperatures (Kelvin)      0.57955     0.55399     0.28324
 Rotational constants (GHZ):          12.07585    11.54327     5.90178
 Zero-point vibrational energy      71983.9 (Joules/Mol)
                                   17.20456 (Kcal/Mol)
 Warning -- explicit consideration of   2 degrees of freedom as
           vibrations may cause significant error
 Vibrational temperatures:    819.57   822.71   906.91  1166.00  1440.13
          (Kelvin)           1762.82  2043.38  2809.24  5544.57

 Zero-point correction=                           0.027417 (Hartree/Particle)
 Thermal correction to Energy=                    0.030882
 Thermal correction to Enthalpy=                  0.031826
 Thermal correction to Gibbs Free Energy=         0.001596
 Sum of electronic and zero-point Energies=           -289.012960
 Sum of electronic and thermal Energies=              -289.009495
 Sum of electronic and thermal Enthalpies=            -289.008550
 Sum of electronic and thermal Free Energies=         -289.038781

                     E (Thermal)             CV                S
                      KCal/Mol        Cal/Mol-Kelvin    Cal/Mol-Kelvin
 Total                   19.379             10.431             63.625
 Electronic               0.000              0.000              0.000
 Translational            0.889              2.981             38.388
 Rotational               0.889              2.981             23.484
 Vibrational             17.601              4.469              1.754
 Vibration     1          0.926              1.097              0.505
 Vibration     2          0.928              1.092              0.501

 Optimization completed.
    -- Stationary point found.
 Normal termination of Gaussian 16 at Sat May 24 05:08:29 2025.
