 Gaussian 16, Revision C.01,
 Gaussian 16:  ES64L-G16RevC.01  3-Jul-2019

 -----------------------------------------------------------------
 #P M062X/Def2TZVPP Symm(None) scf(xqc) pop(None) freq opt(CalcFC)
 -----------------------------------------------------------------

 ------------------------------
 Gaussian input prepared by ASE
 ------------------------------
 Symbolic Z-matrix:
 Charge =  0 Multiplicity = 1

 SCF Done:  E(RM062X) =  -289.027315560     A.U. after   13 cycles
 SCF Done:  E(RM062X) =  -289.038478299     A.U. after   14 cycles
 SCF Done:  E(RM062X) =  -289.040187766     A.U. after   14 cycles
 SCF Done:  E(RM062X) =  -289.040366075     A.U. after   11 cycles
 SCF Done:  E(RM062X) =  -289.040376171     A.U. after    8 cycles
 SCF Done:  E(RM062X) =  -289.040376883     A.U. after    7 cycles
 Optimization completed.
    -- Stationary point found.
 Normal termination of Gaussian 16 at Sat May 24 05:08:16 2025.

 ---------------------------------------------------------------------
 #P Geom=AllCheck Guess=TCheck SCRF=Check GenChk RM062X/def2TZVPP Freq
 ---------------------------------------------------------------------

 Structure from the checkpoint file:  "/tmp/Gau-179924.chk"
 ------------------------------
 Gaussian input prepared by ASE
 ------------------------------
 Charge =  0 Multiplicity = 1

                          Input orientation:
 ---------------------------------------------------------------------
 Center     Atomic      Atomic             Coordinates (Angstroms)
 Number     Number       Type             X           Y           Z
 ---------------------------------------------------------------------
      1          6           0        1.293735    0.019308    0.073232
      2          8           0        1.999914   -0.926540    0.096185
      3          9           0        0.006962   -0.038681   -0.205066
      4          8           0        1.606834    1.284552    0.307099
      5          1           0        2.549154    1.320024    0.510431
 ---------------------------------------------------------------------

 SCF Done:  E(RM062X) =  -289.040376883     A.U. after    1 cycles

 Isotropic polarizability for W=    0.000000       19.34 Bohr**3.
 End of Minotr F.D. properties file   721 does not exist.

                      1                      2                      3
                      A                      A                      A
 Frequencies --    569.6120               571.7356               630.3367
 Red. masses --      2.5404                 1.4819                10.7061
 Frc consts  --      0.4856                 0.2854                 2.5063
 IR Inten    --     42.0702                81.7825                19.4613

                      4                      5                      6
                      A                      A                      A
 Frequencies --    810.4099              1000.9447              1225.2103
 Red. masses --     12.2735                 6.5153                 2.0702
 Frc consts  --      4.7493                 3.8460                 1.8310
 IR Inten    --     45.8297                58.0071               313.0095

                      7                      8                      9
                      A                      A                      A
 Frequencies --   1420.2218              1952.5204              3853.6689
 Red. masses --      3.0314                11.9842                 1.0653
 Frc consts  --      3.6025                26.9186                 9.3212
 IR Inten    --    204.7813               574.3815               133.3585

 - Thermochemistry -
 -------------------
 Temperature   298.150 Kelvin.  Pressure   1.00000 Atm.
 Atom     1 has atomic number  6 and mass  12.00000

 Molecular mass:    63.99606 amu.
 Principal axes and moments of inertia in atomic units:
                           1         2         3
     Eigenvalues --   149.45059 156.34560 305.79619
           X            0.95038  -0.23477  -0.20411
           Y            0.21165   0.96881  -0.12886
           Z            0.22799   0.07927   0.97043
 This molecule is an asymmetric top.
 Rotational symmetry number  1.
 Rotational temperatures (Kelvin)      0.57955     0.55399     0.28324
 Rotational constants (GHZ):          12.07584    11.54328     5.90178
 Zero-point vibrational energy      71983.3 (Joules/Mol)
                                   17.20441 (Kcal/Mol)
 Warning -- explicit consideration of   2 degrees of freedom as
           vibrations may cause significant error
 Vibrational temperatures:    819.54   822.60   906.91  1166.00  1440.14
          (Kelvin)           1762.80  2043.38  2809.24  5544.57

 Zero-point correction=                           0.027417 (Hartree/Particle)
 Thermal correction to Energy=                    0.030882
 Thermal correction to Enthalpy=                  0.031826
 Thermal correction to Gibbs Free Energy=         0.001596
 Sum of electronic and zero-point Energies=           -289.012960
 Sum of electronic and thermal Energies=              -289.009495
 Sum of electronic and thermal Enthalpies=            -289.008551
 Sum of electronic and thermal Free Energies=         -289.038781

                     E (Thermal)             CV                S
                      KCal/Mol        Cal/Mol-Kelvin    Cal/Mol-Kelvin
 Total                   19.379             10.431             63.625
 Electronic               0.000              0.000              0.000
 Translational            0.889              2.981             38.388
 Rotational               0.889              2.981             23.484
 Vibrational             17.601              4.469              1.754
 Vibration     1          0.926              1.097              0.505
 Vibration     2          0.928              1.092              0.501

 Optimization completed.
    -- Stationary point found.
 Normal termination of Gaussian 16 at Sat May 24 05:08:31 2025.
