 Gaussian 16, Revision C.01,
 Gaussian 16:  ES64L-G16RevC.01  3-Jul-2019

 -----------------------------------------------------------------
 #P M062X/Def2TZVPP Symm(None) scf(xqc) pop(None) freq opt(CalcFC)
 -----------------------------------------------------------------

 ------------------------------
 Gaussian input prepared by ASE
 ------------------------------
 Symbolic Z-matrix:
 Charge =  0 Multiplicity = 1

 SCF Done:  E(RM062X) =  -289.037433129     A.U. after   13 cycles
 Optimization completed.
    -- Stationary point found.
 Normal termination of Gaussian 16 at Sat May 24 05:08:02 2025.

 ---------------------------------------------------------------------
 #P Geom=AllCheck Guess=TCheck SCRF=Check GenChk RM062X/def2TZVPP Freq
 ---------------------------------------------------------------------

 Structure from the checkpoint file:  "/tmp/Gau-16124.chk"
 ------------------------------
 Gaussian input prepared by ASE
 ------------------------------
 Charge =  0 Multiplicity = 1

                          Input orientation:
 ---------------------------------------------------------------------
 Center     Atomic      Atomic             Coordinates (Angstroms)
 Number     Number       Type             X           Y           Z
 ---------------------------------------------------------------------
      1          6           0        1.342029    0.000000    0.000000
      2          8           0        1.979068   -0.984253   -0.000076
      3          9           0        0.000000    0.000000    0.000000
      4          8           0        1.797660    1.241453    0.000000
      5          1           0        1.065656    1.868373    0.000446
 ---------------------------------------------------------------------

 SCF Done:  E(RM062X) =  -289.037433129     A.U. after    1 cycles

 Isotropic polarizability for W=    0.000000       19.43 Bohr**3.
 End of Minotr F.D. properties file   721 does not exist.

                      1                      2                      3
                      A                      A                      A
 Frequencies --    501.5890               567.8228               628.5037
 Red. masses --      1.1032                 5.2519                14.8400
 Frc consts  --      0.1635                 0.9977                 3.4538
 IR Inten    --    132.1528                16.9758                 3.8161

                      4                      5                      6
                      A                      A                      A
 Frequencies --    796.0835               967.9234              1213.1745
 Red. masses --     12.3136                11.4975                 1.9391
 Frc consts  --      4.5978                 6.3465                 1.6815
 IR Inten    --     31.2107                89.1615                30.0854

                      7                      8                      9
                      A                      A                      A
 Frequencies --   1358.5326              2006.4496              3857.8550
 Red. masses --      2.7181                11.1375                 1.0659
 Frc consts  --      2.9556                26.4176                 9.3464
 IR Inten    --    507.8645               532.1403               138.5841

 - Thermochemistry -
 -------------------
 Temperature   298.150 Kelvin.  Pressure   1.00000 Atm.
 Atom     1 has atomic number  6 and mass  12.00000

 Molecular mass:    63.99606 amu.
 Principal axes and moments of inertia in atomic units:
                           1         2         3
     Eigenvalues --   151.20209 156.38204 307.58413
           X           -0.68903   0.72473   0.00002
           Y            0.72473   0.68903  -0.00005
           Z            0.00005   0.00002   1.00000
 This molecule is an asymmetric top.
 Rotational symmetry number  1.
 Rotational temperatures (Kelvin)      0.57284     0.55386     0.28159
 Rotational constants (GHZ):          11.93595    11.54059     5.86747
 Zero-point vibrational energy      71165.4 (Joules/Mol)
                                   17.00895 (Kcal/Mol)
 Warning -- explicit consideration of   2 degrees of freedom as
           vibrations may cause significant error
 Vibrational temperatures:    721.67   816.97   904.28  1145.39  1392.63
          (Kelvin)           1745.49  1954.63  2886.83  5550.59

 Zero-point correction=                           0.027105 (Hartree/Particle)
 Thermal correction to Energy=                    0.030631
 Thermal correction to Enthalpy=                  0.031575
 Thermal correction to Gibbs Free Energy=         0.001246
 Sum of electronic and zero-point Energies=           -289.010328
 Sum of electronic and thermal Energies=              -289.006802
 Sum of electronic and thermal Enthalpies=            -289.005858
 Sum of electronic and thermal Free Energies=         -289.036187

                     E (Thermal)             CV                S
                      KCal/Mol        Cal/Mol-Kelvin    Cal/Mol-Kelvin
 Total                   19.221             10.682             63.834
 Electronic               0.000              0.000              0.000
 Translational            0.889              2.981             38.388
 Rotational               0.889              2.981             23.501
 Vibrational             17.444              4.720              1.945
 Vibration     1          0.857              1.246              0.654
 Vibration     2          0.924              1.101              0.508

 Optimization completed.
    -- Stationary point found.
 Normal termination of Gaussian 16 at Sat May 24 05:08:22 2025.
