 Gaussian 16, Revision C.01,
 Gaussian 16:  ES64L-G16RevC.01  3-Jul-2019

 -----------------------------------------------------------------
 #P M062X/Def2TZVPP Symm(None) scf(xqc) pop(None) freq opt(CalcFC)
 -----------------------------------------------------------------

 ------------------------------
 Gaussian input prepared by ASE
 ------------------------------
 Symbolic Z-matrix:
 Charge =  0 Multiplicity = 1

 SCF Done:  E(RM062X) =  -326.985807374     A.U. after   16 cycles
 SCF Done:  E(RM062X) =  -326.992812947     A.U. after   17 cycles
 SCF Done:  E(RM062X) =  -326.994628048     A.U. after   16 cycles
 SCF Done:  E(RM062X) =  -326.995156127     A.U. after   16 cycles
 SCF Done:  E(RM062X) =  -326.995681705     A.U. after   16 cycles
 SCF Done:  E(RM062X) =  -326.995977465     A.U. after   16 cycles
 SCF Done:  E(RM062X) =  -326.996095772     A.U. after   17 cycles
 SCF Done:  E(RM062X) =  -326.996189484     A.U. after   16 cycles
 SCF Done:  E(RM062X) =  -326.996214036     A.U. after   14 cycles
 SCF Done:  E(RM062X) =  -326.996216052     A.U. after   11 cycles
 Optimization completed.
    -- Stationary point found.
 Normal termination of Gaussian 16 at Sat May 24 05:07:03 2025.

 ---------------------------------------------------------------------
 #P Geom=AllCheck Guess=TCheck SCRF=Check GenChk RM062X/def2TZVPP Freq
 ---------------------------------------------------------------------

 Structure from the checkpoint file:  "/tmp/Gau-148141.chk"
 ------------------------------
 Gaussian input prepared by ASE
 ------------------------------
 Charge =  0 Multiplicity = 1

                          Input orientation:
 ---------------------------------------------------------------------
 Center     Atomic      Atomic             Coordinates (Angstroms)
 Number     Number       Type             X           Y           Z
 ---------------------------------------------------------------------
      1          6           0        1.531398    0.018642   -0.138601
      2          8           0        1.943882   -1.055583    0.169035
      3          6           0        0.035002    0.309016   -0.263846
      4          9           0       -0.438435   -0.556990   -1.088336
      5          8           0        2.301033    1.101319   -0.275811
      6          1           0        1.754243    1.891206   -0.379341
 ---------------------------------------------------------------------

 SCF Done:  E(RM062X) =  -326.996216052     A.U. after    1 cycles

 Isotropic polarizability for W=    0.000000       30.81 Bohr**3.
 End of Minotr F.D. properties file   721 does not exist.

                      1                      2                      3
                      A                      A                      A
 Frequencies --     48.2742               271.2325               344.4786
 Red. masses --     12.5342                 9.9302                 8.6785
 Frc consts  --      0.0172                 0.4304                 0.6068
 IR Inten    --      4.6399                29.3172                44.8323

                      4                      5                      6
                      A                      A                      A
 Frequencies --    517.1262               540.2162               772.7786
 Red. masses --      1.1527                 7.9777                11.5515
 Frc consts  --      0.1816                 1.3717                 4.0644
 IR Inten    --     94.0448                14.3254                18.9852

                      7                      8                      9
                      A                      A                      A
 Frequencies --    911.7264              1193.0666              1315.3070
 Red. masses --      9.5676                 1.6647                 6.2203
 Frc consts  --      4.6858                 1.3961                 6.3403
 IR Inten    --     30.7005                 1.0784               407.7443

                     10                     11                     12
                      A                      A                      A
 Frequencies --   1373.3264              1891.1723              3815.7475
 Red. masses --      4.4678                11.1510                 1.0659
 Frc consts  --      4.9647                23.4977                 9.1441
 IR Inten    --    169.5603               257.7899               102.1531

 - Thermochemistry -
 -------------------
 Temperature   298.150 Kelvin.  Pressure   1.00000 Atm.
 Atom     1 has atomic number  6 and mass  12.00000

 Molecular mass:    75.99606 amu.
 Principal axes and moments of inertia in atomic units:
                           1         2         3
     Eigenvalues --   168.06251 414.46117 550.01798
           X            0.91201  -0.23131  -0.33874
           Y            0.29413   0.94439   0.14705
           Z            0.28589  -0.23374   0.92932
 This molecule is an asymmetric top.
 Rotational symmetry number  1.
 Rotational temperatures (Kelvin)      0.51537     0.20898     0.15747
 Rotational constants (GHZ):          10.73851     4.35443     3.28124
 Zero-point vibrational energy      77724.1 (Joules/Mol)
                                   18.57650 (Kcal/Mol)
 Warning -- explicit consideration of   5 degrees of freedom as
           vibrations may cause significant error
 Vibrational temperatures:     69.46   390.24   495.63   744.03   777.25
          (Kelvin)           1111.86  1311.77  1716.56  1892.43  1975.91
                             2720.98  5490.01

 Zero-point correction=                           0.029604 (Hartree/Particle)
 Thermal correction to Energy=                    0.034682
 Thermal correction to Enthalpy=                  0.035627
 Thermal correction to Gibbs Free Energy=         0.000773
 Sum of electronic and zero-point Energies=           -326.966613
 Sum of electronic and thermal Energies=              -326.961534
 Sum of electronic and thermal Enthalpies=            -326.960589
 Sum of electronic and thermal Free Energies=         -326.995443

                     E (Thermal)             CV                S
                      KCal/Mol        Cal/Mol-Kelvin    Cal/Mol-Kelvin
 Total                   21.764             15.291             73.355
 Electronic               0.000              0.000              0.000
 Translational            0.889              2.981             38.900
 Rotational               0.889              2.981             25.152
 Vibrational             19.986              9.329              9.302
 Vibration     1          0.595              1.978              4.887
 Vibration     2          0.675              1.726              1.588
 Vibration     3          0.723              1.586              1.191
 Vibration     4          0.872              1.212              0.617
 Vibration     5          0.895              1.161              0.565

                           ! Non-Optimized Parameters !
 Normal termination of Gaussian 16 at Sat May 24 05:07:33 2025.
