 Gaussian 16, Revision C.01,
 Gaussian 16:  ES64L-G16RevC.01  3-Jul-2019

 -----------------------------------------------------------------
 #P M062X/Def2TZVPP Symm(None) scf(xqc) pop(None) freq opt(CalcFC)
 -----------------------------------------------------------------

 ------------------------------
 Gaussian input prepared by ASE
 ------------------------------
 Symbolic Z-matrix:
 Charge =  0 Multiplicity = 1

 SCF Done:  E(RM062X) =  -327.002322619     A.U. after   16 cycles
 Optimization completed.
    -- Stationary point found.
 Normal termination of Gaussian 16 at Sat May 24 05:06:08 2025.

 ---------------------------------------------------------------------
 #P Geom=AllCheck Guess=TCheck SCRF=Check GenChk RM062X/def2TZVPP Freq
 ---------------------------------------------------------------------

 Structure from the checkpoint file:  "/tmp/Gau-155698.chk"
 ------------------------------
 Gaussian input prepared by ASE
 ------------------------------
 Charge =  0 Multiplicity = 1

                          Input orientation:
 ---------------------------------------------------------------------
 Center     Atomic      Atomic             Coordinates (Angstroms)
 Number     Number       Type             X           Y           Z
 ---------------------------------------------------------------------
      1          6           0        1.515096    0.000000    0.000000
      2          8           0        2.101626   -1.038144    0.094458
      3          6           0        0.000000    0.000000    0.000000
      4          9           0       -0.369731   -0.122255   -1.234532
      5          8           0        2.050368    1.216389    0.000000
      6          1           0        3.010995    1.131820    0.091730
 ---------------------------------------------------------------------

 SCF Done:  E(RM062X) =  -327.002322619     A.U. after    1 cycles

 Isotropic polarizability for W=    0.000000       30.93 Bohr**3.
 End of Minotr F.D. properties file   721 does not exist.

                      1                      2                      3
                      A                      A                      A
 Frequencies --     78.3235               272.5404               314.6928
 Red. masses --     12.5730                 7.0567                10.5058
 Frc consts  --      0.0454                 0.3088                 0.6130
 IR Inten    --      1.7736                 6.9327                 9.4031

                      4                      5                      6
                      A                      A                      A
 Frequencies --    518.6492               601.4517               788.2574
 Red. masses --      2.8279                 1.5569                 5.1030
 Frc consts  --      0.4482                 0.3318                 1.8682
 IR Inten    --     40.3685               117.7896                39.3119

                      7                      8                      9
                      A                      A                      A
 Frequencies --    912.5358              1168.2131              1285.7257
 Red. masses --      8.5831                 2.2002                 7.0267
 Frc consts  --      4.2111                 1.7691                 6.8438
 IR Inten    --     10.0955               277.0496               174.1118

                     10                     11                     12
                      A                      A                      A
 Frequencies --   1417.8648              1863.6095              3784.7312
 Red. masses --      3.9577                11.3806                 1.0642
 Frc consts  --      4.6878                23.2875                 8.9813
 IR Inten    --     81.2501               349.7076               114.9997

 - Thermochemistry -
 -------------------
 Temperature   298.150 Kelvin.  Pressure   1.00000 Atm.
 Atom     1 has atomic number  6 and mass  12.00000

 Molecular mass:    75.99606 amu.
 Principal axes and moments of inertia in atomic units:
                           1         2         3
     Eigenvalues --   176.70701 411.98244 532.25862
           X            0.91568  -0.09422  -0.39070
           Y            0.11700   0.99252   0.03488
           Z            0.38449  -0.07765   0.91986
 This molecule is an asymmetric top.
 Rotational symmetry number  1.
 Rotational temperatures (Kelvin)      0.49016     0.21024     0.16273
 Rotational constants (GHZ):          10.21318     4.38063     3.39072
 Zero-point vibrational energy      77796.7 (Joules/Mol)
                                   18.59386 (Kcal/Mol)
 Warning -- explicit consideration of   5 degrees of freedom as
           vibrations may cause significant error
 Vibrational temperatures:    112.69   392.12   452.77   746.22   865.35
          (Kelvin)           1134.13  1312.94  1680.80  1849.87  2039.99
                             2681.32  5445.38

 Zero-point correction=                           0.029631 (Hartree/Particle)
 Thermal correction to Energy=                    0.034640
 Thermal correction to Enthalpy=                  0.035585
 Thermal correction to Gibbs Free Energy=         0.001176
 Sum of electronic and zero-point Energies=           -326.972691
 Sum of electronic and thermal Energies=              -326.967682
 Sum of electronic and thermal Enthalpies=            -326.966738
 Sum of electronic and thermal Free Energies=         -327.001147

                     E (Thermal)             CV                S
                      KCal/Mol        Cal/Mol-Kelvin    Cal/Mol-Kelvin
 Total                   21.737             15.187             72.419
 Electronic               0.000              0.000              0.000
 Translational            0.889              2.981             38.900
 Rotational               0.889              2.981             25.164
 Vibrational             19.960              9.225              8.355
 Vibration     1          0.600              1.964              3.932
 Vibration     2          0.676              1.724              1.580
 Vibration     3          0.702              1.646              1.338
 Vibration     4          0.874              1.209              0.613
 Vibration     5          0.960              1.029              0.447

 Optimization completed.
    -- Stationary point found.
 Normal termination of Gaussian 16 at Sat May 24 05:06:35 2025.
