 Gaussian 16, Revision C.01,
 Gaussian 16:  ES64L-G16RevC.01  3-Jul-2019

 -----------------------------------------------------------------
 #P M062X/Def2TZVPP Symm(None) scf(xqc) pop(None) freq opt(CalcFC)
 -----------------------------------------------------------------

 ------------------------------
 Gaussian input prepared by ASE
 ------------------------------
 Symbolic Z-matrix:
 Charge =  0 Multiplicity = 1

 SCF Done:  E(RM062X) =  -326.987754508     A.U. after   16 cycles
 SCF Done:  E(RM062X) =  -326.995177654     A.U. after   17 cycles
 SCF Done:  E(RM062X) =  -326.996018293     A.U. after   16 cycles
 SCF Done:  E(RM062X) =  -326.996159255     A.U. after   15 cycles
 SCF Done:  E(RM062X) =  -326.996189465     A.U. after   15 cycles
 SCF Done:  E(RM062X) =  -326.996205966     A.U. after   15 cycles
 SCF Done:  E(RM062X) =  -326.996211274     A.U. after   14 cycles
 SCF Done:  E(RM062X) =  -326.996213201     A.U. after   11 cycles
 SCF Done:  E(RM062X) =  -326.996213703     A.U. after   11 cycles
 SCF Done:  E(RM062X) =  -326.996213984     A.U. after   10 cycles
 Optimization completed.
    -- Stationary point found.
 Normal termination of Gaussian 16 at Sat May 24 05:06:57 2025.

 ---------------------------------------------------------------------
 #P Geom=AllCheck Guess=TCheck SCRF=Check GenChk RM062X/def2TZVPP Freq
 ---------------------------------------------------------------------

 Structure from the checkpoint file:  "/tmp/Gau-155699.chk"
 ------------------------------
 Gaussian input prepared by ASE
 ------------------------------
 Charge =  0 Multiplicity = 1

                          Input orientation:
 ---------------------------------------------------------------------
 Center     Atomic      Atomic             Coordinates (Angstroms)
 Number     Number       Type             X           Y           Z
 ---------------------------------------------------------------------
      1          6           0        1.533237    0.007243    0.011582
      2          8           0        2.051613   -1.055530   -0.130860
      3          6           0        0.014550    0.181559   -0.028125
      4          9           0       -0.381413   -0.310244   -1.148715
      5          8           0        2.192924    1.119851    0.345672
      6          1           0        1.570788    1.828726    0.555466
 ---------------------------------------------------------------------

 SCF Done:  E(RM062X) =  -326.996213984     A.U. after    1 cycles

 Isotropic polarizability for W=    0.000000       30.81 Bohr**3.
 End of Minotr F.D. properties file   721 does not exist.

                      1                      2                      3
                      A                      A                      A
 Frequencies --     51.5358               271.8385               342.2435
 Red. masses --     12.5141                 9.8223                 8.6294
 Frc consts  --      0.0196                 0.4276                 0.5955
 IR Inten    --      4.5571                29.8611                45.1431

                      4                      5                      6
                      A                      A                      A
 Frequencies --    515.8507               539.9927               773.0739
 Red. masses --      1.1656                 7.5635                11.4713
 Frc consts  --      0.1827                 1.2994                 4.0393
 IR Inten    --     89.6961                18.3450                18.7021

                      7                      8                      9
                      A                      A                      A
 Frequencies --    911.4269              1192.3849              1315.0449
 Red. masses --      9.6132                 1.6808                 6.0346
 Frc consts  --      4.7050                 1.4080                 6.1486
 IR Inten    --     30.9075                 0.9154               410.3201

                     10                     11                     12
                      A                      A                      A
 Frequencies --   1372.3959              1892.2078              3815.0314
 Red. masses --      4.4352                11.1560                 1.0659
 Frc consts  --      4.9218                23.5341                 9.1408
 IR Inten    --    166.8654               257.7443               101.8531

 - Thermochemistry -
 -------------------
 Temperature   298.150 Kelvin.  Pressure   1.00000 Atm.
 Atom     1 has atomic number  6 and mass  12.00000

 Molecular mass:    75.99606 amu.
 Principal axes and moments of inertia in atomic units:
                           1         2         3
     Eigenvalues --   168.23043 414.42450 549.81981
           X            0.88260  -0.32313  -0.34147
           Y            0.23515   0.93239  -0.27452
           Z            0.40709   0.16199   0.89891
 This molecule is an asymmetric top.
 Rotational symmetry number  1.
 Rotational temperatures (Kelvin)      0.51485     0.20900     0.15753
 Rotational constants (GHZ):          10.72779     4.35481     3.28242
 Zero-point vibrational energy      77715.6 (Joules/Mol)
                                   18.57446 (Kcal/Mol)
 Warning -- explicit consideration of   5 degrees of freedom as
           vibrations may cause significant error
 Vibrational temperatures:     74.15   391.12   492.41   742.19   776.93
          (Kelvin)           1112.28  1311.34  1715.58  1892.06  1974.57
                             2722.47  5488.98

 Zero-point correction=                           0.029600 (Hartree/Particle)
 Thermal correction to Energy=                    0.034675
 Thermal correction to Enthalpy=                  0.035619
 Thermal correction to Gibbs Free Energy=         0.000823
 Sum of electronic and zero-point Energies=           -326.966614
 Sum of electronic and thermal Energies=              -326.961539
 Sum of electronic and thermal Enthalpies=            -326.960595
 Sum of electronic and thermal Free Energies=         -326.995391

                     E (Thermal)             CV                S
                      KCal/Mol        Cal/Mol-Kelvin    Cal/Mol-Kelvin
 Total                   21.759             15.297             73.236
 Electronic               0.000              0.000              0.000
 Translational            0.889              2.981             38.900
 Rotational               0.889              2.981             25.153
 Vibrational             19.982              9.335              9.183
 Vibration     1          0.596              1.977              4.758
 Vibration     2          0.675              1.725              1.584
 Vibration     3          0.721              1.591              1.202
 Vibration     4          0.871              1.215              0.620
 Vibration     5          0.895              1.162              0.565

                           ! Non-Optimized Parameters !
 Normal termination of Gaussian 16 at Sat May 24 05:07:24 2025.
