 Gaussian 16, Revision C.01,
 Gaussian 16:  ES64L-G16RevC.01  3-Jul-2019

 -----------------------------------------------------------------
 #P M062X/Def2TZVPP Symm(None) scf(xqc) pop(None) freq opt(CalcFC)
 -----------------------------------------------------------------

 ------------------------------
 Gaussian input prepared by ASE
 ------------------------------
 Symbolic Z-matrix:
 Charge =  0 Multiplicity = 2

 SCF Done:  E(UM062X) =  -426.913245500     A.U. after   17 cycles
 SCF Done:  E(UM062X) =  -426.919146434     A.U. after   16 cycles
 SCF Done:  E(UM062X) =  -426.920490760     A.U. after   16 cycles
 SCF Done:  E(UM062X) =  -426.920763241     A.U. after   15 cycles
 SCF Done:  E(UM062X) =  -426.921056770     A.U. after   15 cycles
 SCF Done:  E(UM062X) =  -426.921199811     A.U. after   15 cycles
 SCF Done:  E(UM062X) =  -426.921247770     A.U. after   13 cycles
 SCF Done:  E(UM062X) =  -426.921347965     A.U. after   13 cycles
 SCF Done:  E(UM062X) =  -426.921370351     A.U. after   10 cycles
 SCF Done:  E(UM062X) =  -426.921371520     A.U. after   11 cycles
 SCF Done:  E(UM062X) =  -426.921372114     A.U. after   11 cycles
 SCF Done:  E(UM062X) =  -426.921372275     A.U. after   10 cycles
 Optimization completed.
    -- Stationary point found.
 Normal termination of Gaussian 16 at Sat May 24 00:35:24 2025.

 ---------------------------------------------------------------------
 #P Geom=AllCheck Guess=TCheck SCRF=Check GenChk UM062X/def2TZVPP Freq
 ---------------------------------------------------------------------

 Structure from the checkpoint file:  "/tmp/Gau-289511.chk"
 ------------------------------
 Gaussian input prepared by ASE
 ------------------------------
 Charge =  0 Multiplicity = 2

                          Input orientation:
 ---------------------------------------------------------------------
 Center     Atomic      Atomic             Coordinates (Angstroms)
 Number     Number       Type             X           Y           Z
 ---------------------------------------------------------------------
      1          6           0        1.465058   -0.042324   -0.068093
      2          8           0        2.081878   -1.059563    0.050083
      3          6           0        0.016178    0.006971    0.099755
      4          9           0       -0.667053    1.070332   -0.273684
      5          9           0       -0.695345   -1.076358    0.108173
      6          8           0        2.049113    1.145544   -0.303525
      7          1           0        1.399653    1.850035   -0.404201
 ---------------------------------------------------------------------

 SCF Done:  E(UM062X) =  -426.921372275     A.U. after    1 cycles

 Isotropic polarizability for W=    0.000000       31.44 Bohr**3.
 End of Minotr F.D. properties file   721 does not exist.

                      1                      2                      3
                      A                      A                      A
 Frequencies --    119.2884               175.2453               237.2526
 Red. masses --     10.0879                12.6109                11.0268
 Frc consts  --      0.0846                 0.2282                 0.3657
 IR Inten    --      5.3450                17.7443                13.3706

                      4                      5                      6
                      A                      A                      A
 Frequencies --    416.4021               448.3118               541.3317
 Red. masses --     12.0200                 1.1470                 9.1708
 Frc consts  --      1.2280                 0.1358                 1.5834
 IR Inten    --      7.8200               120.2865                 1.7348

                      7                      8                      9
                      A                      A                      A
 Frequencies --    616.0781               693.1238               809.9463
 Red. masses --     12.6363                 9.1575                10.7987
 Frc consts  --      2.8258                 2.5921                 4.1738
 IR Inten    --      4.2125                 8.7142                36.7683

                     10                     11                     12
                      A                      A                      A
 Frequencies --   1161.2954              1290.8652              1385.0770
 Red. masses --      3.1629                 1.7205                13.2270
 Frc consts  --      2.5132                 1.6891                14.9506
 IR Inten    --     85.9401               356.1544               331.3570

                     13                     14                     15
                      A                      A                      A
 Frequencies --   1517.0814              1846.0473              3855.2261
 Red. masses --     10.2962                10.8415                 1.0660
 Frc consts  --     13.9619                21.7683                 9.3348
 IR Inten    --     33.8586               277.7212               103.5981

 - Thermochemistry -
 -------------------
 Temperature   298.150 Kelvin.  Pressure   1.00000 Atm.
 Atom     1 has atomic number  6 and mass  12.00000

 Molecular mass:    94.99446 amu.
 Principal axes and moments of inertia in atomic units:
                           1         2         3
     Eigenvalues --   317.01407 519.26798 833.62896
           X            0.99773  -0.06434   0.02010
           Y            0.06006   0.98393   0.16815
           Z           -0.03059  -0.16656   0.98556
 This molecule is an asymmetric top.
 Rotational symmetry number  1.
 Rotational temperatures (Kelvin)      0.27322     0.16680     0.10390
 Rotational constants (GHZ):           5.69294     3.47555     2.16492
 Zero-point vibrational energy      90393.3 (Joules/Mol)
                                   21.60451 (Kcal/Mol)
 Warning -- explicit consideration of   7 degrees of freedom as
           vibrations may cause significant error
 Vibrational temperatures:    171.63   252.14   341.35   599.11   645.02
          (Kelvin)            778.86   886.40   997.25  1165.33  1670.85
                             1857.27  1992.82  2182.74  2656.05  5546.81

 Zero-point correction=                           0.034429 (Hartree/Particle)
 Thermal correction to Energy=                    0.040206
 Thermal correction to Enthalpy=                  0.041151
 Thermal correction to Gibbs Free Energy=         0.004095
 Sum of electronic and zero-point Energies=           -426.886943
 Sum of electronic and thermal Energies=              -426.881166
 Sum of electronic and thermal Enthalpies=            -426.880222
 Sum of electronic and thermal Free Energies=         -426.917277

                     E (Thermal)             CV                S
                      KCal/Mol        Cal/Mol-Kelvin    Cal/Mol-Kelvin
 Total                   25.230             18.571             77.990
 Electronic               0.000              0.000              1.377
 Translational            0.889              2.981             39.565
 Rotational               0.889              2.981             26.420
 Vibrational             23.453             12.610             10.627
 Vibration     1          0.609              1.933              3.112
 Vibration     2          0.627              1.873              2.378
 Vibration     3          0.656              1.784              1.823
 Vibration     4          0.780              1.435              0.904
 Vibration     5          0.807              1.365              0.801
 Vibration     6          0.896              1.159              0.562
 Vibration     7          0.976              0.998              0.423

 Optimization completed.
    -- Stationary point found.
 Normal termination of Gaussian 16 at Sat May 24 00:36:39 2025.
