 Gaussian 16, Revision C.01,
 Gaussian 16:  ES64L-G16RevC.01  3-Jul-2019

 -----------------------------------------------------------------
 #P M062X/Def2TZVPP Symm(None) scf(xqc) pop(None) freq opt(CalcFC)
 -----------------------------------------------------------------

 ------------------------------
 Gaussian input prepared by ASE
 ------------------------------
 Symbolic Z-matrix:
 Charge =  0 Multiplicity = 2

 SCF Done:  E(UM062X) =  -426.913263919     A.U. after   17 cycles
 SCF Done:  E(UM062X) =  -426.919162827     A.U. after   16 cycles
 SCF Done:  E(UM062X) =  -426.920497069     A.U. after   16 cycles
 SCF Done:  E(UM062X) =  -426.920762558     A.U. after   15 cycles
 SCF Done:  E(UM062X) =  -426.921059800     A.U. after   15 cycles
 SCF Done:  E(UM062X) =  -426.921217319     A.U. after   15 cycles
 SCF Done:  E(UM062X) =  -426.921248978     A.U. after   14 cycles
 SCF Done:  E(UM062X) =  -426.921352256     A.U. after   13 cycles
 SCF Done:  E(UM062X) =  -426.921370857     A.U. after   12 cycles
 SCF Done:  E(UM062X) =  -426.921371829     A.U. after   11 cycles
 SCF Done:  E(UM062X) =  -426.921372190     A.U. after   10 cycles
 Optimization completed.
    -- Stationary point found.
 Normal termination of Gaussian 16 at Sat May 24 00:36:03 2025.

 ---------------------------------------------------------------------
 #P Geom=AllCheck Guess=TCheck SCRF=Check GenChk UM062X/def2TZVPP Freq
 ---------------------------------------------------------------------

 Structure from the checkpoint file:  "/tmp/Gau-251616.chk"
 ------------------------------
 Gaussian input prepared by ASE
 ------------------------------
 Charge =  0 Multiplicity = 2

                          Input orientation:
 ---------------------------------------------------------------------
 Center     Atomic      Atomic             Coordinates (Angstroms)
 Number     Number       Type             X           Y           Z
 ---------------------------------------------------------------------
      1          6           0        1.465154   -0.042113    0.067964
      2          8           0        2.081768   -1.059088   -0.052832
      3          6           0        0.015421    0.007018   -0.095576
      4          9           0       -0.666493    1.069969    0.281855
      5          9           0       -0.695667   -1.076665   -0.101094
      6          8           0        2.049591    1.145697    0.302003
      7          1           0        1.400196    1.849625    0.406941
 ---------------------------------------------------------------------

 SCF Done:  E(UM062X) =  -426.921372190     A.U. after    1 cycles

 Isotropic polarizability for W=    0.000000       31.44 Bohr**3.
 End of Minotr F.D. properties file   721 does not exist.

                      1                      2                      3
                      A                      A                      A
 Frequencies --    119.2186               176.7414               237.2528
 Red. masses --     10.0980                12.6119                11.0283
 Frc consts  --      0.0846                 0.2321                 0.3657
 IR Inten    --      5.2690                17.8817                13.3748

                      4                      5                      6
                      A                      A                      A
 Frequencies --    416.3820               449.0300               541.2571
 Red. masses --     12.0162                 1.1468                 9.1701
 Frc consts  --      1.2274                 0.1362                 1.5828
 IR Inten    --      7.8640               120.1997                 1.7553

                      7                      8                      9
                      A                      A                      A
 Frequencies --    616.0343               693.4345               809.7671
 Red. masses --     12.6374                 9.1656                10.7847
 Frc consts  --      2.8257                 2.5967                 4.1666
 IR Inten    --      4.2022                 8.7274                36.8155

                     10                     11                     12
                      A                      A                      A
 Frequencies --   1161.4587              1290.7638              1384.5957
 Red. masses --      3.1589                 1.7224                13.2231
 Frc consts  --      2.5107                 1.6907                14.9359
 IR Inten    --     85.5143               355.6479               332.3323

                     13                     14                     15
                      A                      A                      A
 Frequencies --   1516.4760              1846.5908              3855.3408
 Red. masses --     10.2812                10.8467                 1.0660
 Frc consts  --     13.9305                21.7915                 9.3353
 IR Inten    --     33.6526               278.0942               103.6691

 - Thermochemistry -
 -------------------
 Temperature   298.150 Kelvin.  Pressure   1.00000 Atm.
 Atom     1 has atomic number  6 and mass  12.00000

 Molecular mass:    94.99446 amu.
 Principal axes and moments of inertia in atomic units:
                           1         2         3
     Eigenvalues --   317.03105 519.27361 833.62493
           X            0.99781  -0.06396  -0.01660
           Y            0.06025   0.98382  -0.16872
           Z            0.02712   0.16735   0.98552
 This molecule is an asymmetric top.
 Rotational symmetry number  1.
 Rotational temperatures (Kelvin)      0.27320     0.16680     0.10390
 Rotational constants (GHZ):           5.69263     3.47551     2.16493
 Zero-point vibrational energy      90403.9 (Joules/Mol)
                                   21.60704 (Kcal/Mol)
 Warning -- explicit consideration of   7 degrees of freedom as
           vibrations may cause significant error
 Vibrational temperatures:    171.53   254.29   341.35   599.08   646.05
          (Kelvin)            778.75   886.34   997.70  1165.07  1671.08
                             1857.12  1992.12  2181.87  2656.83  5546.98

 Zero-point correction=                           0.034433 (Hartree/Particle)
 Thermal correction to Energy=                    0.040208
 Thermal correction to Enthalpy=                  0.041152
 Thermal correction to Gibbs Free Energy=         0.004104
 Sum of electronic and zero-point Energies=           -426.886939
 Sum of electronic and thermal Energies=              -426.881165
 Sum of electronic and thermal Enthalpies=            -426.880220
 Sum of electronic and thermal Free Energies=         -426.917268

                     E (Thermal)             CV                S
                      KCal/Mol        Cal/Mol-Kelvin    Cal/Mol-Kelvin
 Total                   25.231             18.568             77.973
 Electronic               0.000              0.000              1.377
 Translational            0.889              2.981             39.565
 Rotational               0.889              2.981             26.420
 Vibrational             23.453             12.607             10.611
 Vibration     1          0.609              1.933              3.113
 Vibration     2          0.628              1.871              2.363
 Vibration     3          0.656              1.784              1.823
 Vibration     4          0.780              1.435              0.904
 Vibration     5          0.808              1.363              0.799
 Vibration     6          0.896              1.159              0.563
 Vibration     7          0.976              0.998              0.423

                           ! Non-Optimized Parameters !
 Normal termination of Gaussian 16 at Sat May 24 00:37:10 2025.
