 Gaussian 16, Revision C.01,
 Gaussian 16:  ES64L-G16RevC.01  3-Jul-2019

 -----------------------------------------------------------------
 #P M062X/Def2TZVPP Symm(None) scf(xqc) pop(None) freq opt(CalcFC)
 -----------------------------------------------------------------

 ------------------------------
 Gaussian input prepared by ASE
 ------------------------------
 Symbolic Z-matrix:
 Charge =  0 Multiplicity = 2

 SCF Done:  E(UM062X) =  -426.927895200     A.U. after   17 cycles
 SCF Done:  E(UM062X) =  -426.927895304     A.U. after   10 cycles
 Optimization completed.
    -- Stationary point found.
 Normal termination of Gaussian 16 at Sat May 24 00:33:49 2025.

 ---------------------------------------------------------------------
 #P Geom=AllCheck Guess=TCheck SCRF=Check GenChk UM062X/def2TZVPP Freq
 ---------------------------------------------------------------------

 Structure from the checkpoint file:  "/tmp/Gau-255308.chk"
 ------------------------------
 Gaussian input prepared by ASE
 ------------------------------
 Charge =  0 Multiplicity = 2

                          Input orientation:
 ---------------------------------------------------------------------
 Center     Atomic      Atomic             Coordinates (Angstroms)
 Number     Number       Type             X           Y           Z
 ---------------------------------------------------------------------
      1          6           0        1.434504   -0.000036    0.000384
      2          8           0        2.094264   -1.009624   -0.001436
      3          6           0        0.000033   -0.000038    0.002795
      4          9           0       -0.732299    1.074083    0.004409
      5          9           0       -0.682310   -1.102250    0.002729
      6          8           0        1.930996    1.251097    0.000543
      7          1           0        2.893060    1.169917   -0.000994
 ---------------------------------------------------------------------

 SCF Done:  E(UM062X) =  -426.927895304     A.U. after    1 cycles

 Isotropic polarizability for W=    0.000000       31.82 Bohr**3.
 End of Minotr F.D. properties file   721 does not exist.

                      1                      2                      3
                      A                      A                      A
 Frequencies --     96.9811               132.0293               230.3412
 Red. masses --     12.9912                14.4729                11.9180
 Frc consts  --      0.0720                 0.1486                 0.3726
 IR Inten    --      1.0438                 0.0938                 1.8740

                      4                      5                      6
                      A                      A                      A
 Frequencies --    415.8160               495.4936               537.7293
 Red. masses --     12.3789                 1.1519                12.1228
 Frc consts  --      1.2611                 0.1666                 2.0653
 IR Inten    --      3.3187                85.5071                 8.1556

                      7                      8                      9
                      A                      A                      A
 Frequencies --    606.2725               686.6114               805.9739
 Red. masses --      7.6960                 7.1979                 5.7054
 Frc consts  --      1.6667                 1.9993                 2.1836
 IR Inten    --     24.0910                51.1793                53.6650

                     10                     11                     12
                      A                      A                      A
 Frequencies --   1153.2977              1310.9675              1439.8262
 Red. masses --      3.4471                 2.0611                11.4885
 Frc consts  --      2.7014                 2.0870                14.0325
 IR Inten    --    381.3094                96.7695               238.3763

                     13                     14                     15
                      A                      A                      A
 Frequencies --   1585.8134              1793.7733              3835.3879
 Red. masses --     10.3199                10.4844                 1.0648
 Frc consts  --     15.2908                19.8760                 9.2285
 IR Inten    --     84.2728               272.3342               136.8224

 - Thermochemistry -
 -------------------
 Temperature   298.150 Kelvin.  Pressure   1.00000 Atm.
 Atom     1 has atomic number  6 and mass  12.00000

 Molecular mass:    94.99446 amu.
 Principal axes and moments of inertia in atomic units:
                           1         2         3
     Eigenvalues --   311.08952 526.28568 837.37519
           X            0.99674  -0.08063   0.00152
           Y            0.08064   0.99674  -0.00075
           Z           -0.00146   0.00087   1.00000
 This molecule is an asymmetric top.
 Rotational symmetry number  1.
 Rotational temperatures (Kelvin)      0.27842     0.16458     0.10344
 Rotational constants (GHZ):           5.80136     3.42920     2.15524
 Zero-point vibrational energy      90475.5 (Joules/Mol)
                                   21.62415 (Kcal/Mol)
 Warning -- explicit consideration of   7 degrees of freedom as
           vibrations may cause significant error
 Vibrational temperatures:    139.53   189.96   331.41   598.27   712.90
          (Kelvin)            773.67   872.29   987.88  1159.62  1659.34
                             1886.19  2071.59  2281.63  2580.84  5518.27

 Zero-point correction=                           0.034460 (Hartree/Particle)
 Thermal correction to Energy=                    0.040336
 Thermal correction to Enthalpy=                  0.041280
 Thermal correction to Gibbs Free Energy=         0.003801
 Sum of electronic and zero-point Energies=           -426.893435
 Sum of electronic and thermal Energies=              -426.887559
 Sum of electronic and thermal Enthalpies=            -426.886615
 Sum of electronic and thermal Free Energies=         -426.924094

                     E (Thermal)             CV                S
                      KCal/Mol        Cal/Mol-Kelvin    Cal/Mol-Kelvin
 Total                   25.311             18.560             78.881
 Electronic               0.000              0.000              1.377
 Translational            0.889              2.981             39.565
 Rotational               0.889              2.981             26.419
 Vibrational             23.534             12.598             11.519
 Vibration     1          0.603              1.951              3.514
 Vibration     2          0.612              1.921              2.916
 Vibration     3          0.652              1.795              1.876
 Vibration     4          0.779              1.436              0.906
 Vibration     5          0.851              1.260              0.669
 Vibration     6          0.893              1.167              0.570
 Vibration     7          0.965              1.019              0.439

 Optimization completed.
    -- Stationary point found.
 Normal termination of Gaussian 16 at Sat May 24 00:34:57 2025.
