 Gaussian 16, Revision C.01,
 Gaussian 16:  ES64L-G16RevC.01  3-Jul-2019

 -----------------------------------------------------------------
 #P M062X/Def2TZVPP Symm(None) scf(xqc) pop(None) freq opt(CalcFC)
 -----------------------------------------------------------------

 ------------------------------
 Gaussian input prepared by ASE
 ------------------------------
 Symbolic Z-matrix:
 Charge =  0 Multiplicity = 1

 SCF Done:  E(RM062X) =  -475.501408098     A.U. after   13 cycles
 SCF Done:  E(RM062X) =  -475.501840956     A.U. after   15 cycles
 SCF Done:  E(RM062X) =  -475.501853564     A.U. after   12 cycles
 SCF Done:  E(RM062X) =  -475.501854601     A.U. after   10 cycles
 SCF Done:  E(RM062X) =  -475.501856997     A.U. after   10 cycles
 SCF Done:  E(RM062X) =  -475.501857079     A.U. after    9 cycles
 Optimization completed.
    -- Stationary point found.
 Normal termination of Gaussian 16 at Sat May 24 05:03:17 2025.

 ---------------------------------------------------------------------
 #P Geom=AllCheck Guess=TCheck SCRF=Check GenChk RM062X/def2TZVPP Freq
 ---------------------------------------------------------------------

 Structure from the checkpoint file:  "1001482381140000000001_well.chk"
 ------------------------------
 Gaussian input prepared by ASE
 ------------------------------
 Charge =  0 Multiplicity = 1

                          Input orientation:
 ---------------------------------------------------------------------
 Center     Atomic      Atomic             Coordinates (Angstroms)
 Number     Number       Type             X           Y           Z
 ---------------------------------------------------------------------
      1          6           0       -0.061498   -0.756975    0.876928
      2          6           0       -1.082630    0.415056    0.998779
      3          9           0       -2.144163    0.318912    0.206086
      4          9           0       -1.494326    0.402635    2.268115
      5          9           0       -0.473089    1.563398    0.750176
      6          9           0       -0.739550   -1.739548    0.403317
 ---------------------------------------------------------------------

 SCF Done:  E(RM062X) =  -475.501857079     A.U. after    1 cycles

 Isotropic polarizability for W=    0.000000       26.23 Bohr**3.
 End of Minotr F.D. properties file   721 does not exist.

                      1                      2                      3
                      A                      A                      A
 Frequencies --     35.4669               268.0926               332.3831
 Red. masses --     16.6219                18.5702                14.6875
 Frc consts  --      0.0123                 0.7864                 0.9560
 IR Inten    --      0.6259                 2.9431                 9.4829

                      4                      5                      6
                      A                      A                      A
 Frequencies --    420.4406               540.1952               548.6151
 Red. masses --     17.7837                17.8411                16.7578
 Frc consts  --      1.8522                 3.0674                 2.9717
 IR Inten    --      2.8526                 9.0516                 8.8474

                      7                      8                      9
                      A                      A                      A
 Frequencies --    703.4382               853.9688              1225.4012
 Red. masses --     15.6135                15.4658                13.3708
 Frc consts  --      4.5520                 6.6452                11.8295
 IR Inten    --     33.3125                22.1555               309.3908

                     10                     11                     12
                      A                      A                      A
 Frequencies --   1280.1456              1299.1018              1358.5786
 Red. masses --     13.1056                13.1421                13.4341
 Frc consts  --     12.6540                13.0677                14.6092
 IR Inten    --    122.2277               322.3858               129.3323

 - Thermochemistry -
 -------------------
 Temperature   298.150 Kelvin.  Pressure   1.00000 Atm.
 Atom     1 has atomic number  6 and mass  12.00000

 Molecular mass:    99.99361 amu.
 Principal axes and moments of inertia in atomic units:
                           1         2         3
     Eigenvalues --   319.43775 599.56403 607.94241
           X           -0.15645   0.60189   0.78311
           Y            0.95648  -0.10540   0.27209
           Z            0.24631   0.79160  -0.55920
 This molecule is an asymmetric top.
 Rotational symmetry number  1.
 Rotational temperatures (Kelvin)      0.27114     0.14446     0.14247
 Rotational constants (GHZ):           5.64974     3.01009     2.96861
 Zero-point vibrational energy      53029.4 (Joules/Mol)
                                   12.67434 (Kcal/Mol)
 Warning -- explicit consideration of   6 degrees of freedom as
           vibrations may cause significant error
 Vibrational temperatures:     51.03   385.73   478.23   604.92   777.22
          (Kelvin)            789.33  1012.09  1228.67  1763.08  1841.84
                             1869.12  1954.69

 Zero-point correction=                           0.020198 (Hartree/Particle)
 Thermal correction to Energy=                    0.025638
 Thermal correction to Enthalpy=                  0.026582
 Thermal correction to Gibbs Free Energy=        -0.009963
 Sum of electronic and zero-point Energies=           -475.481659
 Sum of electronic and thermal Energies=              -475.476219
 Sum of electronic and thermal Enthalpies=            -475.475275
 Sum of electronic and thermal Free Energies=         -475.511820

                     E (Thermal)             CV                S
                      KCal/Mol        Cal/Mol-Kelvin    Cal/Mol-Kelvin
 Total                   16.088             17.022             76.917
 Electronic               0.000              0.000              0.000
 Translational            0.889              2.981             39.718
 Rotational               0.889              2.981             26.257
 Vibrational             14.311             11.060             10.942
 Vibration     1          0.594              1.982              5.497
 Vibration     2          0.673              1.732              1.608
 Vibration     3          0.714              1.611              1.248
 Vibration     4          0.783              1.426              0.890
 Vibration     5          0.895              1.161              0.565
 Vibration     6          0.904              1.143              0.547

 Optimization completed.
    -- Stationary point found.
 Normal termination of Gaussian 16 at Sat May 24 05:04:04 2025.
