 Gaussian 16, Revision C.01,
 Gaussian 16:  ES64L-G16RevC.01  3-Jul-2019

 -----------------------------------------------------------------
 #P M062X/Def2TZVPP Symm(None) scf(xqc) pop(None) freq opt(CalcFC)
 -----------------------------------------------------------------

 ------------------------------
 Gaussian input prepared by ASE
 ------------------------------
 Symbolic Z-matrix:
 Charge =  0 Multiplicity = 1

 SCF Done:  E(RM062X) =  -526.852244619     A.U. after   13 cycles
 SCF Done:  E(RM062X) =  -526.852689439     A.U. after   15 cycles
 SCF Done:  E(RM062X) =  -526.852751898     A.U. after   13 cycles
 SCF Done:  E(RM062X) =  -526.852767333     A.U. after   11 cycles
 SCF Done:  E(RM062X) =  -526.852768927     A.U. after   10 cycles
 SCF Done:  E(RM062X) =  -526.852769857     A.U. after    9 cycles
 SCF Done:  E(RM062X) =  -526.852769876     A.U. after    8 cycles
 Optimization completed.
    -- Stationary point found.
 Normal termination of Gaussian 16 at Sat May 24 04:25:30 2025.

 ---------------------------------------------------------------------
 #P Geom=AllCheck Guess=TCheck SCRF=Check GenChk RM062X/def2TZVPP Freq
 ---------------------------------------------------------------------

 Structure from the checkpoint file:  "1141903082400600000001_well.chk"
 ------------------------------
 Gaussian input prepared by ASE
 ------------------------------
 Charge =  0 Multiplicity = 1

                          Input orientation:
 ---------------------------------------------------------------------
 Center     Atomic      Atomic             Coordinates (Angstroms)
 Number     Number       Type             X           Y           Z
 ---------------------------------------------------------------------
      1          6           0        1.234230    0.255443    0.241869
      2          8           0        1.602151   -0.818132   -0.109358
      3          6           0        0.022730    0.477421    1.172800
      4          9           0       -0.894608    1.225414    0.565010
      5          9           0       -0.520931   -0.678917    1.501364
      6          9           0        0.404344    1.103021    2.283455
      7          8           0        1.772539    1.425602   -0.084774
      8          1           0        2.528052    1.262782   -0.666120
 ---------------------------------------------------------------------

 SCF Done:  E(RM062X) =  -526.852769876     A.U. after    1 cycles

 Isotropic polarizability for W=    0.000000       31.74 Bohr**3.
 End of Minotr F.D. properties file   721 does not exist.

                      1                      2                      3
                      A                      A                      A
 Frequencies --     36.2579               239.0233               245.7342
 Red. masses --     14.4058                11.5781                 9.4261
 Frc consts  --      0.0112                 0.3897                 0.3354
 IR Inten    --      1.7209                 1.3588                 0.0822

                      4                      5                      6
                      A                      A                      A
 Frequencies --    394.6077               432.6737               513.3120
 Red. masses --     12.1183                15.4506                 4.5445
 Frc consts  --      1.1118                 1.7042                 0.7055
 IR Inten    --      2.1425                 0.0415                 4.3036

                      7                      8                      9
                      A                      A                      A
 Frequencies --    594.3333               600.8240               682.0587
 Red. masses --      1.4269                14.3069                 4.9186
 Frc consts  --      0.2970                 3.0429                 1.3482
 IR Inten    --    103.6850                 9.2420                79.0296

                     10                     11                     12
                      A                      A                      A
 Frequencies --    807.1400               824.8046              1180.1282
 Red. masses --      9.9503                 8.7392                 4.2847
 Frc consts  --      3.8193                 3.5029                 3.5158
 IR Inten    --     36.8163                 2.7785               312.7227

                     13                     14                     15
                      A                      A                      A
 Frequencies --   1245.8164              1248.3477              1313.4753
 Red. masses --      2.6130                11.2537                 6.9806
 Frc consts  --      2.3895                10.3328                 7.0956
 IR Inten    --    196.4864               293.3706               190.4175

                     16                     17                     18
                      A                      A                      A
 Frequencies --   1457.6702              1926.6283              3808.4517
 Red. masses --      5.3982                11.6902                 1.0647
 Frc consts  --      6.7579                25.5663                 9.0982
 IR Inten    --     54.4155               320.7159               124.4170

 - Thermochemistry -
 -------------------
 Temperature   298.150 Kelvin.  Pressure   1.00000 Atm.
 Atom     1 has atomic number  6 and mass  12.00000

 Molecular mass:   113.99286 amu.
 Principal axes and moments of inertia in atomic units:
                           1         2         3
     Eigenvalues --   463.58234 717.68315 865.42820
           X            0.79364   0.08803   0.60199
           Y           -0.06918   0.99612  -0.05446
           Z           -0.60444   0.00158   0.79665
 This molecule is an asymmetric top.
 Rotational symmetry number  1.
 Warning -- assumption of classical behavior for rotation
           may cause significant error
 Rotational temperatures (Kelvin)      0.18684     0.12069     0.10008
 Rotational constants (GHZ):           3.89303     2.51468     2.08537
 Zero-point vibrational energy     104980.0 (Joules/Mol)
                                   25.09082 (Kcal/Mol)
 Warning -- explicit consideration of   8 degrees of freedom as
           vibrations may cause significant error
 Vibrational temperatures:     52.17   343.90   353.56   567.75   622.52
          (Kelvin)            738.54   855.11   864.45   981.33  1161.29
                             1186.71  1697.94  1792.45  1796.09  1889.80
                             2097.26  2771.99  5479.51

 Zero-point correction=                           0.039985 (Hartree/Particle)
 Thermal correction to Energy=                    0.046138
 Thermal correction to Enthalpy=                  0.047082
 Thermal correction to Gibbs Free Energy=         0.008820
 Sum of electronic and zero-point Energies=           -526.812785
 Sum of electronic and thermal Energies=              -526.806632
 Sum of electronic and thermal Enthalpies=            -526.805688
 Sum of electronic and thermal Free Energies=         -526.843950

                     E (Thermal)             CV                S
                      KCal/Mol        Cal/Mol-Kelvin    Cal/Mol-Kelvin
 Total                   28.952             20.598             80.528
 Electronic               0.000              0.000              0.000
 Translational            0.889              2.981             40.108
 Rotational               0.889              2.981             27.157
 Vibrational             27.174             14.636             13.263
 Vibration     1          0.594              1.982              5.454
 Vibration     2          0.657              1.781              1.810
 Vibration     3          0.660              1.770              1.761
 Vibration     4          0.762              1.482              0.983
 Vibration     5          0.794              1.399              0.850
 Vibration     6          0.868              1.221              0.626
 Vibration     7          0.952              1.044              0.460
 Vibration     8          0.959              1.030              0.448

 Optimization completed.
    -- Stationary point found.
 Normal termination of Gaussian 16 at Sat May 24 04:26:48 2025.
