 Gaussian 16, Revision C.01,
 Gaussian 16:  ES64L-G16RevC.01  3-Jul-2019

 -----------------------------------------------------------------
 #P M062X/Def2TZVPP Symm(None) scf(xqc) pop(None) freq opt(CalcFC)
 -----------------------------------------------------------------

 ------------------------------
 Gaussian input prepared by ASE
 ------------------------------
 Symbolic Z-matrix:
 Charge =  0 Multiplicity = 2

 SCF Done:  E(UM062X) =  -575.414969007     A.U. after   15 cycles
 SCF Done:  E(UM062X) =  -575.419777674     A.U. after   13 cycles
 SCF Done:  E(UM062X) =  -575.420068392     A.U. after   12 cycles
 SCF Done:  E(UM062X) =  -575.420087280     A.U. after   10 cycles
 SCF Done:  E(UM062X) =  -575.420087639     A.U. after    8 cycles
 Optimization completed.
    -- Stationary point found.
 Normal termination of Gaussian 16 at Sat May 24 00:00:22 2025.

 ---------------------------------------------------------------------
 #P Geom=AllCheck Guess=TCheck SCRF=Check GenChk UM062X/def2TZVPP Freq
 ---------------------------------------------------------------------

 Structure from the checkpoint file:  "1191793072280000000002_well.chk"
 ------------------------------
 Gaussian input prepared by ASE
 ------------------------------
 Charge =  0 Multiplicity = 2

                          Input orientation:
 ---------------------------------------------------------------------
 Center     Atomic      Atomic             Coordinates (Angstroms)
 Number     Number       Type             X           Y           Z
 ---------------------------------------------------------------------
      1          6           0       -0.090146    0.015632    0.003729
      2          6           0       -0.614669    0.389734    1.375088
      3          9           0       -1.945292    0.300726    1.426054
      4          9           0       -0.108699   -0.427165    2.288085
      5          9           0       -0.270920    1.637159    1.662538
      6          9           0       -0.463303    0.838372   -0.947677
      7          9           0       -0.298292   -1.238936   -0.318381
 ---------------------------------------------------------------------

 SCF Done:  E(UM062X) =  -575.420087639     A.U. after    1 cycles

 Isotropic polarizability for W=    0.000000       26.67 Bohr**3.
 End of Minotr F.D. properties file   721 does not exist.

                      1                      2                      3
                      A                      A                      A
 Frequencies --     65.2605               210.3809               223.6501
 Red. masses --     18.8940                18.5524                18.2037
 Frc consts  --      0.0474                 0.4838                 0.5365
 IR Inten    --      0.0008                 2.8086                 2.8402

                      4                      5                      6
                      A                      A                      A
 Frequencies --    369.8615               426.5652               522.7828
 Red. masses --     18.6697                18.2135                17.4593
 Frc consts  --      1.5048                 1.9526                 2.8114
 IR Inten    --      0.2095                 1.0301                 6.3181

                      7                      8                      9
                      A                      A                      A
 Frequencies --    597.4764               618.9535               719.2877
 Red. masses --     17.8269                17.0885                14.7424
 Frc consts  --      3.7495                 3.8572                 4.4939
 IR Inten    --      1.5248                11.6978                22.2991

                     10                     11                     12
                      A                      A                      A
 Frequencies --    853.6157              1171.3492              1246.3510
 Red. masses --     15.7550                13.7779                13.3090
 Frc consts  --      6.7638                11.1379                12.1809
 IR Inten    --      4.2420               240.4298               333.2374

                     13                     14                     15
                      A                      A                      A
 Frequencies --   1293.5302              1347.6538              1454.8274
 Red. masses --     13.0622                13.4009                12.7241
 Frc consts  --     12.8772                14.3397                15.8672
 IR Inten    --    233.6819               310.9905                21.6629

 - Thermochemistry -
 -------------------
 Temperature   298.150 Kelvin.  Pressure   1.00000 Atm.
 Atom     1 has atomic number  6 and mass  12.00000

 Molecular mass:   118.99202 amu.
 Principal axes and moments of inertia in atomic units:
                           1         2         3
     Eigenvalues --   477.01163 744.28280 906.19757
           X           -0.11890  -0.07582   0.99001
           Y            0.27938   0.95424   0.10663
           Z            0.95279  -0.28927   0.09228
 This molecule is an asymmetric top.
 Rotational symmetry number  1.
 Warning -- assumption of classical behavior for rotation
           may cause significant error
 Rotational temperatures (Kelvin)      0.18158     0.11637     0.09558
 Rotational constants (GHZ):           3.78343     2.42481     1.99155
 Zero-point vibrational energy      66521.6 (Joules/Mol)
                                   15.89905 (Kcal/Mol)
 Warning -- explicit consideration of   8 degrees of freedom as
           vibrations may cause significant error
 Vibrational temperatures:     93.90   302.69   321.78   532.15   613.73
          (Kelvin)            752.17   859.64   890.54  1034.89  1228.16
                             1685.31  1793.22  1861.10  1938.97  2093.17

 Zero-point correction=                           0.025337 (Hartree/Particle)
 Thermal correction to Energy=                    0.031414
 Thermal correction to Enthalpy=                  0.032358
 Thermal correction to Gibbs Free Energy=        -0.006206
 Sum of electronic and zero-point Energies=           -575.394751
 Sum of electronic and thermal Energies=              -575.388674
 Sum of electronic and thermal Enthalpies=            -575.387730
 Sum of electronic and thermal Free Energies=         -575.426294

                     E (Thermal)             CV                S
                      KCal/Mol        Cal/Mol-Kelvin    Cal/Mol-Kelvin
 Total                   19.712             19.863             81.165
 Electronic               0.000              0.000              1.377
 Translational            0.889              2.981             40.236
 Rotational               0.889              2.981             27.267
 Vibrational             17.935             13.901             12.284
 Vibration     1          0.597              1.971              4.291
 Vibration     2          0.643              1.825              2.040
 Vibration     3          0.649              1.805              1.929
 Vibration     4          0.742              1.534              1.080
 Vibration     5          0.788              1.412              0.870
 Vibration     6          0.878              1.200              0.604
 Vibration     7          0.955              1.037              0.454
 Vibration     8          0.979              0.992              0.418

 Optimization completed.
    -- Stationary point found.
 Normal termination of Gaussian 16 at Sat May 24 00:01:44 2025.
