 Gaussian 16, Revision C.01,
 Gaussian 16:  ES64L-G16RevC.01  3-Jul-2019

 -----------------------------------------------------------------
 #P M062X/Def2TZVPP Symm(None) scf(xqc) pop(None) freq opt(CalcFC)
 -----------------------------------------------------------------

 ------------------------------
 Gaussian input prepared by ASE
 ------------------------------
 Symbolic Z-matrix:
 Charge =  0 Multiplicity = 1

 SCF Done:  E(RM062X) =  -651.338896954     A.U. after   12 cycles
 SCF Done:  E(RM062X) =  -651.338914467     A.U. after    8 cycles
 Optimization completed.
    -- Stationary point found.
 Normal termination of Gaussian 16 at Sat May 24 06:09:39 2025.

 ---------------------------------------------------------------------
 #P Geom=AllCheck Guess=TCheck SCRF=Check GenChk RM062X/def2TZVPP Freq
 ---------------------------------------------------------------------

 Structure from the checkpoint file:  "1362244183860600000001_well.chk"
 ------------------------------
 Gaussian input prepared by ASE
 ------------------------------
 Charge =  0 Multiplicity = 1

                          Input orientation:
 ---------------------------------------------------------------------
 Center     Atomic      Atomic             Coordinates (Angstroms)
 Number     Number       Type             X           Y           Z
 ---------------------------------------------------------------------
      1          6           0        0.000136    0.145040   -0.027391
      2          6           0       -1.153123    0.849265    0.716209
      3          9           0       -2.314954    0.379442    0.284039
      4          9           0       -1.058855    0.627835    2.018864
      5          9           0       -1.109284    2.154572    0.494781
      6          9           0       -0.158514    0.342727   -1.349000
      7          9           0       -0.106426   -1.181064    0.174986
      8          8           0        1.169681    0.630900    0.418397
      9          1           0        1.898001    0.195349   -0.040447
 ---------------------------------------------------------------------

 SCF Done:  E(RM062X) =  -651.338914467     A.U. after    1 cycles

 Isotropic polarizability for W=    0.000000       31.58 Bohr**3.
 End of Minotr F.D. properties file   721 does not exist.

                      1                      2                      3
                      A                      A                      A
 Frequencies --     71.5669               218.2763               227.0508
 Red. masses --     17.4561                18.3497                11.5764
 Frc consts  --      0.0527                 0.5151                 0.3516
 IR Inten    --      0.0002                 1.4861                 0.3015

                      4                      5                      6
                      A                      A                      A
 Frequencies --    263.9426               354.5997               387.6667
 Red. masses --      1.1058                14.6060                12.1901
 Frc consts  --      0.0454                 1.0821                 1.0794
 IR Inten    --    110.3045                 0.5324                 3.0909

                      7                      8                      9
                      A                      A                      A
 Frequencies --    392.3167               532.1079               541.4834
 Red. masses --     10.9418                15.3363                14.2402
 Frc consts  --      0.9922                 2.5584                 2.4600
 IR Inten    --      8.3914                10.0752                17.7388

                     10                     11                     12
                      A                      A                      A
 Frequencies --    628.2088               629.8173               703.3012
 Red. masses --     17.4711                16.4450                 6.4318
 Frc consts  --      4.0624                 3.8434                 1.8744
 IR Inten    --      0.2147                 0.0825                65.4037

                     13                     14                     15
                      A                      A                      A
 Frequencies --    826.1248              1065.9033              1206.1571
 Red. masses --     10.8132                 3.5010                13.0177
 Frc consts  --      4.3481                 2.3436                11.1581
 IR Inten    --      5.9812               161.2551               224.5081

                     16                     17                     18
                      A                      A                      A
 Frequencies --   1263.4397              1296.0576              1296.5212
 Red. masses --      2.5896                13.1209                 8.2528
 Frc consts  --      2.4355                12.9857                 8.1735
 IR Inten    --    230.9410               327.2515               190.9719

                     19                     20                     21
                      A                      A                      A
 Frequencies --   1312.0867              1517.8746              3844.4984
 Red. masses --     12.0346                 4.4048                 1.0654
 Frc consts  --     12.2070                 5.9793                 9.2777
 IR Inten    --    348.4799                 3.1886               120.7760

 - Thermochemistry -
 -------------------
 Temperature   298.150 Kelvin.  Pressure   1.00000 Atm.
 Atom     1 has atomic number  6 and mass  12.00000

 Molecular mass:   135.99476 amu.
 Principal axes and moments of inertia in atomic units:
                           1         2         3
     Eigenvalues --   633.21833 967.61266 969.64009
           X            0.71999   0.69360  -0.02321
           Y           -0.47828   0.52015   0.70759
           Z           -0.50285   0.49836  -0.70624
 This molecule is an asymmetric top.
 Rotational symmetry number  1.
 Warning -- assumption of classical behavior for rotation
           may cause significant error
 Rotational temperatures (Kelvin)      0.13678     0.08951     0.08933
 Rotational constants (GHZ):           2.85011     1.86515     1.86125
 Zero-point vibrational energy     111127.1 (Joules/Mol)
                                   26.56002 (Kcal/Mol)
 Warning -- explicit consideration of   9 degrees of freedom as
           vibrations may cause significant error
 Vibrational temperatures:    102.97   314.05   326.68   379.75   510.19
          (Kelvin)            557.77   564.46   765.58   779.07   903.85
                              906.17  1011.89  1188.61  1533.60  1735.39
                             1817.81  1864.74  1865.40  1887.80  2183.88
                             5531.38

 Zero-point correction=                           0.042326 (Hartree/Particle)
 Thermal correction to Energy=                    0.049427
 Thermal correction to Enthalpy=                  0.050372
 Thermal correction to Gibbs Free Energy=         0.010483
 Sum of electronic and zero-point Energies=           -651.296588
 Sum of electronic and thermal Energies=              -651.289487
 Sum of electronic and thermal Enthalpies=            -651.288543
 Sum of electronic and thermal Free Energies=         -651.328431

                     E (Thermal)             CV                S
                      KCal/Mol        Cal/Mol-Kelvin    Cal/Mol-Kelvin
 Total                   31.016             24.732             83.952
 Electronic               0.000              0.000              0.000
 Translational            0.889              2.981             40.634
 Rotational               0.889              2.981             27.876
 Vibrational             29.239             18.770             15.442
 Vibration     1          0.598              1.968              4.110
 Vibration     2          0.646              1.813              1.973
 Vibration     3          0.651              1.800              1.902
 Vibration     4          0.670              1.739              1.636
 Vibration     5          0.730              1.566              1.146
 Vibration     6          0.756              1.497              1.009
 Vibration     7          0.760              1.487              0.991
 Vibration     8          0.887              1.179              0.583
 Vibration     9          0.897              1.158              0.562

 Optimization completed.
    -- Stationary point found.
 Normal termination of Gaussian 16 at Sat May 24 06:11:25 2025.
