 Gaussian 16, Revision C.01,
 Gaussian 16:  ES64L-G16RevC.01  3-Jul-2019

 -----------------------------------------------------------------
 #P M062X/Def2TZVPP Symm(None) scf(xqc) pop(None) freq opt(CalcFC)
 -----------------------------------------------------------------

 ------------------------------
 Gaussian input prepared by ASE
 ------------------------------
 Symbolic Z-matrix:
 Charge =  0 Multiplicity = 2

 SCF Done:  E(UM062X) =  -664.740599371     A.U. after   17 cycles
 SCF Done:  E(UM062X) =  -664.748688986     A.U. after   16 cycles
 SCF Done:  E(UM062X) =  -664.753517348     A.U. after   19 cycles
 SCF Done:  E(UM062X) =  -664.755148726     A.U. after   15 cycles
 SCF Done:  E(UM062X) =  -664.755256238     A.U. after   18 cycles
 SCF Done:  E(UM062X) =  -664.755916061     A.U. after   15 cycles
 SCF Done:  E(UM062X) =  -664.756064599     A.U. after   13 cycles
 SCF Done:  E(UM062X) =  -664.756089890     A.U. after   15 cycles
 SCF Done:  E(UM062X) =  -664.756206348     A.U. after   13 cycles
 SCF Done:  E(UM062X) =  -664.756210646     A.U. after   12 cycles
 SCF Done:  E(UM062X) =  -664.756210908     A.U. after    9 cycles
 Optimization completed.
    -- Stationary point found.
 Normal termination of Gaussian 16 at Sat May 24 00:09:38 2025.

 ---------------------------------------------------------------------
 #P Geom=AllCheck Guess=TCheck SCRF=Check GenChk UM062X/def2TZVPP Freq
 ---------------------------------------------------------------------

 Structure from the checkpoint file:  "1452453943632430600002_well.chk"
 ------------------------------
 Gaussian input prepared by ASE
 ------------------------------
 Charge =  0 Multiplicity = 2

                          Input orientation:
 ---------------------------------------------------------------------
 Center     Atomic      Atomic             Coordinates (Angstroms)
 Number     Number       Type             X           Y           Z
 ---------------------------------------------------------------------
      1          6           0        1.551576   -0.059851   -0.092802
      2          8           0        2.105090   -0.668906   -0.965379
      3          6           0        0.167164   -0.294176    0.296455
      4          6           0       -0.587334    0.432775    1.380768
      5          9           0       -1.825855   -0.036857    1.461572
      6          9           0       -0.000976    0.275467    2.567087
      7          9           0       -0.650235    1.740698    1.133203
      8          9           0       -0.489649   -1.217748   -0.347169
      9          8           0        2.107066    0.911713    0.646054
     10          1           0        3.018668    1.025132    0.347100
 ---------------------------------------------------------------------

 SCF Done:  E(UM062X) =  -664.756210908     A.U. after    1 cycles

 Isotropic polarizability for W=    0.000000       43.47 Bohr**3.
 End of Minotr F.D. properties file   721 does not exist.

                      1                      2                      3
                      A                      A                      A
 Frequencies --     36.3316                71.2240               155.5024
 Red. masses --     14.8804                16.0593                10.8877
 Frc consts  --      0.0116                 0.0480                 0.1551
 IR Inten    --      0.6752                 1.6562                 2.0161

                      4                      5                      6
                      A                      A                      A
 Frequencies --    173.8538               291.8162               372.2589
 Red. masses --     12.3725                15.4622                14.9932
 Frc consts  --      0.2203                 0.7758                 1.2241
 IR Inten    --      0.2770                 0.5628                 1.1511

                      7                      8                      9
                      A                      A                      A
 Frequencies --    376.6767               397.6417               503.4292
 Red. masses --     15.5290                 8.0735                10.3839
 Frc consts  --      1.2982                 0.7521                 1.5506
 IR Inten    --      0.0116                 1.2343                14.1946

                     10                     11                     12
                      A                      A                      A
 Frequencies --    514.7456               579.1167               611.4848
 Red. masses --      1.2906                 8.7406                12.7051
 Frc consts  --      0.2015                 1.7271                 2.7990
 IR Inten    --     93.2302                 3.7749                 3.9939

                     13                     14                     15
                      A                      A                      A
 Frequencies --    690.0289               729.8483               788.8547
 Red. masses --      6.1906                 8.6049                 9.7126
 Frc consts  --      1.7367                 2.7006                 3.5611
 IR Inten    --     63.1374                37.2794                13.8866

                     16                     17                     18
                      A                      A                      A
 Frequencies --   1084.9572              1168.9889              1223.0415
 Red. masses --     10.5142                 2.3913                13.2527
 Frc consts  --      7.2921                 1.9254                11.6798
 IR Inten    --     99.4595               231.0591               288.8375

                     19                     20                     21
                      A                      A                      A
 Frequencies --   1261.7265              1310.7259              1414.9699
 Red. masses --     11.9936                 4.2573                 4.8101
 Frc consts  --     11.2494                 4.3094                 5.6741
 IR Inten    --    325.7929                98.2878               241.8256

                     22                     23                     24
                      A                      A                      A
 Frequencies --   1521.1297              1824.2435              3827.9529
 Red. masses --     10.8606                11.0843                 1.0648
 Frc consts  --     14.8059                21.7332                 9.1927
 IR Inten    --      5.4720               344.2063               143.5077

 - Thermochemistry -
 -------------------
 Temperature   298.150 Kelvin.  Pressure   1.00000 Atm.
 Atom     1 has atomic number  6 and mass  12.00000

 Molecular mass:   144.99127 amu.
 Principal axes and moments of inertia in atomic units:
                           1         2         3
     Eigenvalues --   700.021121333.117961719.39453
           X            0.79810   0.52085  -0.30290
           Y           -0.20146   0.70447   0.68054
           Z           -0.56784   0.48212  -0.66717
 This molecule is an asymmetric top.
 Rotational symmetry number  1.
 Warning -- assumption of classical behavior for rotation
           may cause significant error
 Rotational temperatures (Kelvin)      0.12373     0.06497     0.05037
 Rotational constants (GHZ):           2.57812     1.35377     1.04964
 Zero-point vibrational energy     125192.5 (Joules/Mol)
                                   29.92172 (Kcal/Mol)
 Warning -- explicit consideration of  12 degrees of freedom as
           vibrations may cause significant error
 Vibrational temperatures:     52.27   102.48   223.73   250.14   419.86
          (Kelvin)            535.60   541.95   572.12   724.32   740.60
                              833.22   879.79   992.80  1050.09  1134.99
                             1561.01  1681.91  1759.68  1815.34  1885.84
                             2035.83  2188.57  2624.68  5507.57

 Zero-point correction=                           0.047683 (Hartree/Particle)
 Thermal correction to Energy=                    0.055977
 Thermal correction to Enthalpy=                  0.056921
 Thermal correction to Gibbs Free Energy=         0.012532
 Sum of electronic and zero-point Energies=           -664.708528
 Sum of electronic and thermal Energies=              -664.700234
 Sum of electronic and thermal Enthalpies=            -664.699289
 Sum of electronic and thermal Free Energies=         -664.743679

                     E (Thermal)             CV                S
                      KCal/Mol        Cal/Mol-Kelvin    Cal/Mol-Kelvin
 Total                   35.126             27.944             93.426
 Electronic               0.000              0.000              1.377
 Translational            0.889              2.981             40.825
 Rotational               0.889              2.981             28.863
 Vibrational             33.349             21.982             22.360
 Vibration     1          0.594              1.982              5.450
 Vibration     2          0.598              1.968              4.119
 Vibration     3          0.620              1.897              2.604
 Vibration     4          0.627              1.875              2.393
 Vibration     5          0.687              1.689              1.463
 Vibration     6          0.744              1.529              1.070
 Vibration     7          0.747              1.520              1.052
 Vibration     8          0.764              1.475              0.971
 Vibration     9          0.859              1.242              0.650
 Vibration    10          0.870              1.217              0.622
 Vibration    11          0.936              1.076              0.487
 Vibration    12          0.971              1.008              0.430

 Optimization completed.
    -- Stationary point found.
 Normal termination of Gaussian 16 at Sat May 24 00:13:06 2025.
