 Gaussian 16, Revision C.01,
 Gaussian 16:  ES64L-G16RevC.01  3-Jul-2019

 -----------------------------------------------------------------
 #P M062X/Def2TZVPP Symm(None) scf(xqc) pop(None) freq opt(CalcFC)
 -----------------------------------------------------------------

 ------------------------------
 Gaussian input prepared by ASE
 ------------------------------
 Symbolic Z-matrix:
 Charge =  0 Multiplicity = 2

 SCF Done:  E(UM062X) =  -664.729494681     A.U. after   17 cycles
 SCF Done:  E(UM062X) =  -664.732390345     A.U. after   13 cycles
 SCF Done:  E(UM062X) =  -664.732522951     A.U. after   14 cycles
 SCF Done:  E(UM062X) =  -664.732527043     A.U. after   11 cycles
 SCF Done:  E(UM062X) =  -664.732527145     A.U. after    9 cycles
 Optimization completed.
    -- Stationary point found.
 Normal termination of Gaussian 16 at Sat May 24 00:05:12 2025.

 ---------------------------------------------------------------------
 #P Geom=AllCheck Guess=TCheck SCRF=Check GenChk UM062X/def2TZVPP Freq
 ---------------------------------------------------------------------

 Structure from the checkpoint file:  "1452453874401930400002_well.chk"
 ------------------------------
 Gaussian input prepared by ASE
 ------------------------------
 Charge =  0 Multiplicity = 2

                          Input orientation:
 ---------------------------------------------------------------------
 Center     Atomic      Atomic             Coordinates (Angstroms)
 Number     Number       Type             X           Y           Z
 ---------------------------------------------------------------------
      1          6           0        1.555403   -0.016839   -0.042587
      2          8           0        2.203777   -1.008388   -0.130053
      3          6           0        0.010194   -0.005976    0.010464
      4          6           0       -0.529613    0.402246    1.368113
      5          9           0       -0.089635   -0.348069    2.355980
      6          9           0       -0.430711    1.679131    1.649349
      7          9           0       -0.463816    0.852115   -0.908214
      8          9           0       -0.428805   -1.236863   -0.262873
      9          8           0        2.022354    1.225603    0.065146
     10          1           0        2.988896    1.190544    0.054638
 ---------------------------------------------------------------------

 SCF Done:  E(UM062X) =  -664.732527145     A.U. after    1 cycles

 Isotropic polarizability for W=    0.000000       43.19 Bohr**3.
 End of Minotr F.D. properties file   721 does not exist.

                      1                      2                      3
                      A                      A                      A
 Frequencies --     21.3308                68.0163               136.4413
 Red. masses --     13.0271                17.4290                10.5587
 Frc consts  --      0.0035                 0.0475                 0.1158
 IR Inten    --      1.3892                 0.2087                 0.7323

                      4                      5                      6
                      A                      A                      A
 Frequencies --    208.7580               246.6195               353.8163
 Red. masses --     17.2922                11.7614                14.4000
 Frc consts  --      0.4440                 0.4215                 1.0621
 IR Inten    --      1.5148                 0.9251                 0.5438

                      7                      8                      9
                      A                      A                      A
 Frequencies --    369.9583               413.7801               483.1861
 Red. masses --     14.8333                12.2381                 4.9492
 Frc consts  --      1.1962                 1.2345                 0.6808
 IR Inten    --      0.5030                 2.1467                 8.8045

                     10                     11                     12
                      A                      A                      A
 Frequencies --    561.1510               589.7247               625.9335
 Red. masses --      5.9411                 3.0011                 2.8275
 Frc consts  --      1.1022                 0.6149                 0.6527
 IR Inten    --     20.3723                44.5479                87.2686

                     13                     14                     15
                      A                      A                      A
 Frequencies --    656.2170               762.4521               817.2365
 Red. masses --      5.9357                 5.5917                10.4534
 Frc consts  --      1.5060                 1.9152                 4.1134
 IR Inten    --     29.9441                18.6571                17.2679

                     16                     17                     18
                      A                      A                      A
 Frequencies --   1073.8021              1183.0600              1222.5430
 Red. masses --     11.7672                 3.0324                 4.5315
 Frc consts  --      7.9941                 2.5006                 3.9904
 IR Inten    --     62.8947               296.4645               177.7909

                     19                     20                     21
                      A                      A                      A
 Frequencies --   1274.2745              1332.2227              1380.3730
 Red. masses --      8.8704                13.3438                 5.0638
 Frc consts  --      8.4864                13.9535                 5.6848
 IR Inten    --     85.4541               236.6956                38.6118

                     22                     23                     24
                      A                      A                      A
 Frequencies --   1421.6700              1916.7094              3809.8821
 Red. masses --      5.9526                11.7176                 1.0647
 Frc consts  --      7.0885                25.3631                 9.1051
 IR Inten    --     63.0852               350.0464               126.1389

 - Thermochemistry -
 -------------------
 Temperature   298.150 Kelvin.  Pressure   1.00000 Atm.
 Atom     1 has atomic number  6 and mass  12.00000

 Molecular mass:   144.99127 amu.
 Principal axes and moments of inertia in atomic units:
                           1         2         3
     Eigenvalues --   894.262691221.980791279.63683
           X            0.68765   0.59996   0.40888
           Y           -0.31837   0.75531  -0.57285
           Z           -0.65252   0.26374   0.71040
 This molecule is an asymmetric top.
 Rotational symmetry number  1.
 Warning -- assumption of classical behavior for rotation
           may cause significant error
 Rotational temperatures (Kelvin)      0.09686     0.07088     0.06769
 Rotational constants (GHZ):           2.01813     1.47690     1.41035
 Zero-point vibrational energy     125184.2 (Joules/Mol)
                                   29.91973 (Kcal/Mol)
 Warning -- explicit consideration of  11 degrees of freedom as
           vibrations may cause significant error
 Vibrational temperatures:     30.69    97.86   196.31   300.36   354.83
          (Kelvin)            509.06   532.29   595.34   695.20   807.37
                              848.48   900.58   944.15  1097.00  1175.82
                             1544.96  1702.16  1758.97  1833.40  1916.77
                             1986.05  2045.47  2757.72  5481.57

 Zero-point correction=                           0.047680 (Hartree/Particle)
 Thermal correction to Energy=                    0.056031
 Thermal correction to Enthalpy=                  0.056975
 Thermal correction to Gibbs Free Energy=         0.012033
 Sum of electronic and zero-point Energies=           -664.684847
 Sum of electronic and thermal Energies=              -664.676496
 Sum of electronic and thermal Enthalpies=            -664.675552
 Sum of electronic and thermal Free Energies=         -664.720494

                     E (Thermal)             CV                S
                      KCal/Mol        Cal/Mol-Kelvin    Cal/Mol-Kelvin
 Total                   35.160             27.889             94.588
 Electronic               0.000              0.000              1.377
 Translational            0.889              2.981             40.825
 Rotational               0.889              2.981             28.727
 Vibrational             33.382             21.927             23.659
 Vibration     1          0.593              1.985              6.506
 Vibration     2          0.598              1.969              4.210
 Vibration     3          0.614              1.917              2.853
 Vibration     4          0.642              1.827              2.055
 Vibration     5          0.661              1.768              1.755
 Vibration     6          0.730              1.567              1.149
 Vibration     7          0.742              1.534              1.080
 Vibration     8          0.777              1.440              0.913
 Vibration     9          0.839              1.287              0.702
 Vibration    10          0.917              1.115              0.522
 Vibration    11          0.947              1.054              0.468

 Optimization completed.
    -- Stationary point found.
 Normal termination of Gaussian 16 at Sat May 24 00:09:04 2025.
