 Gaussian 16, Revision C.01,
 Gaussian 16:  ES64L-G16RevC.01  3-Jul-2019

 -----------------------------------------------------------------
 #P M062X/Def2TZVPP Symm(None) scf(xqc) pop(None) freq opt(CalcFC)
 -----------------------------------------------------------------

 ------------------------------
 Gaussian input prepared by ASE
 ------------------------------
 Symbolic Z-matrix:
 Charge =  0 Multiplicity = 1

 SCF Done:  E(RM062X) =  -689.322438251     A.U. after   14 cycles
 SCF Done:  E(RM062X) =  -689.326623705     A.U. after   16 cycles
 SCF Done:  E(RM062X) =  -689.325891467     A.U. after   15 cycles
 SCF Done:  E(RM062X) =  -689.327188986     A.U. after   13 cycles
 SCF Done:  E(RM062X) =  -689.327267819     A.U. after   11 cycles
 SCF Done:  E(RM062X) =  -689.327340802     A.U. after   13 cycles
 SCF Done:  E(RM062X) =  -689.327353681     A.U. after   11 cycles
 SCF Done:  E(RM062X) =  -689.327358065     A.U. after   11 cycles
 SCF Done:  E(RM062X) =  -689.327358455     A.U. after    8 cycles
 Optimization completed.
    -- Stationary point found.
 Normal termination of Gaussian 16 at Sat May 24 00:03:08 2025.

 ---------------------------------------------------------------------
 #P Geom=AllCheck Guess=TCheck SCRF=Check GenChk RM062X/def2TZVPP Freq
 ---------------------------------------------------------------------

 Structure from the checkpoint file:  "1482484344321580600001_well.chk"
 ------------------------------
 Gaussian input prepared by ASE
 ------------------------------
 Charge =  0 Multiplicity = 1

                          Input orientation:
 ---------------------------------------------------------------------
 Center     Atomic      Atomic             Coordinates (Angstroms)
 Number     Number       Type             X           Y           Z
 ---------------------------------------------------------------------
      1          6           0        1.601793    0.152347    0.330914
      2          6           0        0.079635    0.066701    0.104397
      3          6           0       -0.668347    0.348734    1.421554
      4          9           0       -1.977809    0.349603    1.223005
      5          9           0       -0.376268   -0.562783    2.335530
      6          9           0       -0.304339    1.547131    1.879411
      7          9           0       -0.409596    0.909878   -0.823823
      8          9           0       -0.201197   -1.189601   -0.286699
      9          8           0        2.019774    1.128918   -0.393887
     10          1           0        2.977061    1.217811   -0.288586
 ---------------------------------------------------------------------

 SCF Done:  E(RM062X) =  -689.327358455     A.U. after    1 cycles

 Isotropic polarizability for W=    0.000000       42.10 Bohr**3.
 End of Minotr F.D. properties file   721 does not exist.

                      1                      2                      3
                      A                      A                      A
 Frequencies --     46.9467                62.9851               204.3706
 Red. masses --      9.7869                14.9547                13.7789
 Frc consts  --      0.0127                 0.0350                 0.3391
 IR Inten    --      4.2620                 0.7489                 2.3244

                      4                      5                      6
                      A                      A                      A
 Frequencies --    215.5604               300.1745               334.3021
 Red. masses --     15.3232                10.7370                12.6208
 Frc consts  --      0.4195                 0.5700                 0.8310
 IR Inten    --      0.4513                 5.4580                 0.1758

                      7                      8                      9
                      A                      A                      A
 Frequencies --    371.2620               386.3832               476.9464
 Red. masses --     15.3412                13.9551                11.9637
 Frc consts  --      1.2459                 1.2275                 1.6035
 IR Inten    --      0.1534                 1.6640                 4.3082

                     10                     11                     12
                      A                      A                      A
 Frequencies --    549.4964               590.8825               609.3082
 Red. masses --     15.9479                12.9098                 9.4793
 Frc consts  --      2.8371                 2.6557                 2.0735
 IR Inten    --      4.3809                 2.5019                 1.5014

                     13                     14                     15
                      A                      A                      A
 Frequencies --    719.4661               799.9295               850.4366
 Red. masses --      6.8744                 9.8082                 1.3852
 Frc consts  --      2.0965                 3.6978                 0.5903
 IR Inten    --     49.0493                 6.2458                50.9432

                     16                     17                     18
                      A                      A                      A
 Frequencies --   1063.1873              1209.6989              1237.0601
 Red. masses --      7.1897                 5.9581                11.0082
 Frc consts  --      4.7883                 5.1371                 9.9254
 IR Inten    --    171.1346               202.5847               258.5110

                     19                     20                     21
                      A                      A                      A
 Frequencies --   1272.7443              1295.0208              1337.3651
 Red. masses --      9.8670                 7.8725                 1.7877
 Frc consts  --      9.4171                 7.7789                 1.8838
 IR Inten    --    193.9927               205.2710                63.2556

                     22                     23                     24
                      A                      A                      A
 Frequencies --   1390.9295              1473.3666              3783.2787
 Red. masses --      8.9155                 8.5536                 1.0667
 Frc consts  --     10.1626                10.9400                 8.9953
 IR Inten    --    149.8966                70.4071               170.6918

 - Thermochemistry -
 -------------------
 Temperature   298.150 Kelvin.  Pressure   1.00000 Atm.
 Atom     1 has atomic number  6 and mass  12.00000

 Molecular mass:   147.99476 amu.
 Principal axes and moments of inertia in atomic units:
                           1         2         3
     Eigenvalues --   759.556831257.795971371.61329
           X            0.74355   0.45197  -0.49280
           Y            0.11873   0.63604   0.76247
           Z           -0.65805   0.62545  -0.41927
 This molecule is an asymmetric top.
 Rotational symmetry number  1.
 Warning -- assumption of classical behavior for rotation
           may cause significant error
 Rotational temperatures (Kelvin)      0.11403     0.06886     0.06315
 Rotational constants (GHZ):           2.37604     1.43484     1.31578
 Zero-point vibrational energy     123102.3 (Joules/Mol)
                                   29.42216 (Kcal/Mol)
 Warning -- explicit consideration of  12 degrees of freedom as
           vibrations may cause significant error
 Vibrational temperatures:     67.55    90.62   294.04   310.14   431.88
          (Kelvin)            480.99   534.16   555.92   686.22   790.60
                              850.15   876.66  1035.15  1150.92  1223.59
                             1529.69  1740.49  1779.85  1831.20  1863.25
                             1924.17  2001.24  2119.85  5443.29

 Zero-point correction=                           0.046887 (Hartree/Particle)
 Thermal correction to Energy=                    0.055026
 Thermal correction to Enthalpy=                  0.055970
 Thermal correction to Gibbs Free Energy=         0.012842
 Sum of electronic and zero-point Energies=           -689.280471
 Sum of electronic and thermal Energies=              -689.272332
 Sum of electronic and thermal Enthalpies=            -689.271388
 Sum of electronic and thermal Free Energies=         -689.314516

                     E (Thermal)             CV                S
                      KCal/Mol        Cal/Mol-Kelvin    Cal/Mol-Kelvin
 Total                   34.529             27.722             90.771
 Electronic               0.000              0.000              0.000
 Translational            0.889              2.981             40.886
 Rotational               0.889              2.981             28.662
 Vibrational             32.752             21.760             21.222
 Vibration     1          0.595              1.979              4.942
 Vibration     2          0.597              1.972              4.361
 Vibration     3          0.640              1.834              2.093
 Vibration     4          0.645              1.817              1.996
 Vibration     5          0.693              1.673              1.416
 Vibration     6          0.716              1.607              1.239
 Vibration     7          0.743              1.531              1.075
 Vibration     8          0.755              1.499              1.014
 Vibration     9          0.834              1.301              0.718
 Vibration    10          0.905              1.141              0.545
 Vibration    11          0.948              1.051              0.466
 Vibration    12          0.968              1.012              0.434

 Optimization completed.
    -- Stationary point found.
 Normal termination of Gaussian 16 at Sat May 24 00:05:31 2025.
