 Gaussian 16, Revision C.01,
 Gaussian 16:  ES64L-G16RevC.01  3-Jul-2019

 ----------------------------------------------------------------------
 #P mp2/6-31G Symm(None) scf(xqc) pop(None) guess(Mix,Always) freq opt(
 CalcFC)
 ----------------------------------------------------------------------

 ------------------------------
 Gaussian input prepared by ASE
 ------------------------------
 Symbolic Z-matrix:
 Charge =  0 Multiplicity = 1

 SCF Done:  E(RHF) =  -760.802794728     A.U. after   17 cycles
 E2 =    -0.1145242870D+01 EUMP2 =    -0.76194803759766D+03
 E2 =    -0.1145242870D+01 EUMP2 =    -0.76194803759766D+03
 SCF Done:  E(RHF) =  -760.803025844     A.U. after   17 cycles
 E2 =    -0.1145297270D+01 EUMP2 =    -0.76194832311402D+03
 SCF Done:  E(RHF) =  -760.803815253     A.U. after   17 cycles
 E2 =    -0.1145384647D+01 EUMP2 =    -0.76194919989939D+03
 SCF Done:  E(RHF) =  -760.805115033     A.U. after   17 cycles
 E2 =    -0.1145264836D+01 EUMP2 =    -0.76195037986930D+03
 SCF Done:  E(RHF) =  -760.805299582     A.U. after   17 cycles
 E2 =    -0.1145179529D+01 EUMP2 =    -0.76195047911081D+03
 SCF Done:  E(RHF) =  -760.805268514     A.U. after   17 cycles
 E2 =    -0.1145156717D+01 EUMP2 =    -0.76195042523097D+03
 SCF Done:  E(RHF) =  -760.805366620     A.U. after   17 cycles
 E2 =    -0.1145165395D+01 EUMP2 =    -0.76195053201515D+03
 SCF Done:  E(RHF) =  -760.805373111     A.U. after   17 cycles
 E2 =    -0.1145158308D+01 EUMP2 =    -0.76195053141873D+03
 SCF Done:  E(RHF) =  -760.805377835     A.U. after   17 cycles
 E2 =    -0.1145157586D+01 EUMP2 =    -0.76195053542053D+03
 SCF Done:  E(RHF) =  -760.805379294     A.U. after   17 cycles
 E2 =    -0.1145156687D+01 EUMP2 =    -0.76195053598040D+03
 Optimization completed.
    -- Stationary point found.
 Normal termination of Gaussian 16 at Sat May 24 02:56:02 2025.

 -------------------------------------------------------------------
 #P Geom=AllCheck Guess=TCheck SCRF=Check GenChk RMP2(FC)/6-31G Freq
 -------------------------------------------------------------------

 Structure from the checkpoint file:  "1642764945472630600001_R_Addition_MultipleBond_1_3_8_IRC_F_prod.chk"
 ------------------------------
 Gaussian input prepared by ASE
 ------------------------------
 Charge =  0 Multiplicity = 1

                          Input orientation:
 ---------------------------------------------------------------------
 Center     Atomic      Atomic             Coordinates (Angstroms)
 Number     Number       Type             X           Y           Z
 ---------------------------------------------------------------------
      1          6           0        1.437048   -0.271827   -0.543738
      2          8           0        2.109047   -1.292384   -0.765417
      3          6           0       -0.098767   -0.219414   -0.530178
      4          6           0       -0.727858    0.217262    0.806990
      5          9           0       -2.089826   -0.063507    0.831297
      6          9           0       -0.105961   -0.490718    1.843770
      7          9           0       -0.553961    1.576650    1.032805
      8          9           0       -0.552420    0.666854   -1.536239
      9          9           0       -0.583133   -1.509138   -0.818743
     10          8           0        1.933222    0.987159   -0.282034
     11          1           0        2.918186    0.997241   -0.291725
 ---------------------------------------------------------------------

 SCF Done:  E(RHF) =  -760.805379294     A.U. after    1 cycles
 E2 =    -0.1145156688D+01 EUMP2 =    -0.76195053598160D+03
 E2 =    -0.1145156688D+01 EUMP2 =    -0.76195053598160D+03

                      1                      2                      3
                      A                      A                      A
 Frequencies --     45.0745                64.8995               153.4170
 Red. masses --     12.1264                17.2586                10.5298
 Frc consts  --      0.0145                 0.0428                 0.1460
 IR Inten    --      1.1316                 0.2250                 1.8225

                      4                      5                      6
                      A                      A                      A
 Frequencies --    216.0762               242.3445               283.6298
 Red. masses --     17.0042                11.5839                14.5274
 Frc consts  --      0.4678                 0.4008                 0.6886
 IR Inten    --      2.7428                 0.9477                 2.0015

                      7                      8                      9
                      A                      A                      A
 Frequencies --    340.9558               363.7902               370.2010
 Red. masses --     18.2408                17.2348                13.1282
 Frc consts  --      1.2494                 1.3439                 1.0601
 IR Inten    --      0.0719                 0.8264                 2.2380

                     10                     11                     12
                      A                      A                      A
 Frequencies --    455.6615               496.0231               536.0834
 Red. masses --     11.0931                14.1224                 5.6814
 Frc consts  --      1.3570                 2.0472                 0.9620
 IR Inten    --      8.6283                15.0682                12.6131

                     13                     14                     15
                      A                      A                      A
 Frequencies --    584.5919               615.2666               649.5720
 Red. masses --      6.2620                 1.6207                 5.4252
 Frc consts  --      1.2609                 0.3615                 1.3487
 IR Inten    --     13.6726               146.2168                97.1093

                     16                     17                     18
                      A                      A                      A
 Frequencies --    710.6883               733.8081              1008.2180
 Red. masses --     10.0558                 9.3887                13.1923
 Frc consts  --      2.9924                 2.9786                 7.9010
 IR Inten    --      8.0585                23.1964               148.6764

                     19                     20                     21
                      A                      A                      A
 Frequencies --   1089.9061              1148.7151              1181.8677
 Red. masses --      4.0479                 6.7168                 7.3224
 Frc consts  --      2.8331                 5.2220                 6.0262
 IR Inten    --    287.2157               164.4747               100.3309

                     22                     23                     24
                      A                      A                      A
 Frequencies --   1206.3076              1224.2189              1327.9849
 Red. masses --     10.6877                 5.4237                12.2241
 Frc consts  --      9.1633                 4.7892                12.7015
 IR Inten    --    162.3969                98.3250                53.4734

                     25                     26                     27
                      A                      A                      A
 Frequencies --   1399.8008              1700.5883              3607.1941
 Red. masses --      3.0425                10.5862                 1.0645
 Frc consts  --      3.5125                18.0380                 8.1611
 IR Inten    --     49.2537               157.2817                93.2393

 - Thermochemistry -
 -------------------
 Temperature   298.150 Kelvin.  Pressure   1.00000 Atm.
 Atom     1 has atomic number  6 and mass  12.00000

 Molecular mass:   163.98967 amu.
 Principal axes and moments of inertia in atomic units:
                           1         2         3
     Eigenvalues --  1007.172661577.056141713.26641
           X            0.84656   0.46875   0.25222
           Y           -0.19452   0.71348  -0.67313
           Z           -0.49548   0.52078   0.69519
 This molecule is an asymmetric top.
 Rotational symmetry number  1.
 Warning -- assumption of classical behavior for rotation
           may cause significant error
 Rotational temperatures (Kelvin)      0.08600     0.05492     0.05055
 Rotational constants (GHZ):           1.79189     1.14437     1.05339
 Zero-point vibrational energy     130135.1 (Joules/Mol)
                                   31.10303 (Kcal/Mol)
 Warning -- explicit consideration of  14 degrees of freedom as
           vibrations may cause significant error
 Vibrational temperatures:     64.85    93.38   220.73   310.89   348.68
          (Kelvin)            408.08   490.56   523.41   532.64   655.60
                              713.67   771.30   841.10   885.23   934.59
                             1022.52  1055.79  1450.60  1568.13  1652.74
                             1700.44  1735.61  1761.38  1910.67  2014.00
                             2446.77  5189.95

 Zero-point correction=                           0.049566 (Hartree/Particle)
 Thermal correction to Energy=                    0.058716
 Thermal correction to Enthalpy=                  0.059660
 Thermal correction to Gibbs Free Energy=         0.014310
 Sum of electronic and zero-point Energies=           -761.900970
 Sum of electronic and thermal Energies=              -761.891820
 Sum of electronic and thermal Enthalpies=            -761.890876
 Sum of electronic and thermal Free Energies=         -761.936226

                     E (Thermal)             CV                S
                      KCal/Mol        Cal/Mol-Kelvin    Cal/Mol-Kelvin
 Total                   36.845             31.909             95.448
 Electronic               0.000              0.000              0.000
 Translational            0.889              2.981             41.192
 Rotational               0.889              2.981             29.388
 Vibrational             35.067             25.947             24.868
 Vibration     1          0.595              1.979              5.023
 Vibration     2          0.597              1.971              4.302
 Vibration     3          0.619              1.899              2.629
 Vibration     4          0.645              1.817              1.992
 Vibration     5          0.659              1.775              1.786
 Vibration     6          0.682              1.704              1.512
 Vibration     7          0.720              1.594              1.208
 Vibration     8          0.737              1.547              1.106
 Vibration     9          0.742              1.533              1.079
 Vibration    10          0.814              1.348              0.779
 Vibration    11          0.852              1.259              0.668
 Vibration    12          0.891              1.170              0.574
 Vibration    13          0.942              1.065              0.477
 Vibration    14          0.975              1.000              0.424

 Optimization completed.
    -- Stationary point found.
 Normal termination of Gaussian 16 at Sat May 24 02:56:21 2025.
