 Gaussian 16, Revision C.01,
 Gaussian 16:  ES64L-G16RevC.01  3-Jul-2019

 ----------------------------------------------------------------------
 #P M062X/Def2TZVPP Symm(None) scf(xqc) pop(None) geom(AllCheck,NoKeepC
 onstants) guess(Read) irc(RCFC,reverse,MaxPoints=100,StepSize=2)
 ----------------------------------------------------------------------

 Structure from the checkpoint file:  "1642764945472630600001_r12_insertion_R_3_1_10_IRC_R.chk"
 ------------------------------
 Gaussian input prepared by ASE
 ------------------------------
 Charge =  0 Multiplicity = 1

 SCF Done:  E(RM062X) =  -764.544792419     A.U. after   10 cycles
 SCF Done:  E(RM062X) =  -764.546450896     A.U. after   10 cycles
 SCF Done:  E(RM062X) =  -764.546878365     A.U. after    9 cycles
 SCF Done:  E(RM062X) =  -764.551584461     A.U. after   11 cycles
 SCF Done:  E(RM062X) =  -764.556191566     A.U. after   11 cycles
 SCF Done:  E(RM062X) =  -764.560655234     A.U. after   10 cycles
 SCF Done:  E(RM062X) =  -764.564976774     A.U. after   10 cycles
 SCF Done:  E(RM062X) =  -764.569162897     A.U. after   10 cycles
 SCF Done:  E(RM062X) =  -764.573207900     A.U. after   10 cycles
 SCF Done:  E(RM062X) =  -764.577106058     A.U. after   10 cycles
 SCF Done:  E(RM062X) =  -764.666443066     A.U. after    9 cycles
 SCF Done:  E(RM062X) =  -764.666601791     A.U. after    9 cycles
 SCF Done:  E(RM062X) =  -764.666748952     A.U. after    9 cycles
 SCF Done:  E(RM062X) =  -764.666884807     A.U. after    9 cycles
 SCF Done:  E(RM062X) =  -764.667009651     A.U. after    9 cycles
 SCF Done:  E(RM062X) =  -764.667123829     A.U. after    9 cycles
 SCF Done:  E(RM062X) =  -764.667227739     A.U. after    9 cycles
 SCF Done:  E(RM062X) =  -764.667321826     A.U. after    9 cycles
 SCF Done:  E(RM062X) =  -764.667406538     A.U. after    9 cycles
 SCF Done:  E(RM062X) =  -764.667481522     A.U. after    9 cycles

                          Input orientation:
 ---------------------------------------------------------------------
 Center     Atomic      Atomic             Coordinates (Angstroms)
 Number     Number       Type             X           Y           Z
 ---------------------------------------------------------------------
      1          6           0        1.384342   -0.294151   -0.569632
      2          8           0        1.994943   -1.291506   -0.769776
      3          6           0       -0.155062   -0.198504   -0.601541
      4          6           0       -0.699414    0.255076    0.776503
      5          9           0       -1.973946   -0.069258    0.912184
      6          9           0        0.001068   -0.358334    1.730916
      7          9           0       -0.572132    1.562574    0.925231
      8          9           0       -0.532171    0.686550   -1.537653
      9          9           0       -0.678403   -1.386143   -0.894688
     10          8           0        1.888743    0.900465   -0.268572
     11          1           0        2.853308    0.829108   -0.235699
 ---------------------------------------------------------------------

 Normal termination of Gaussian 16 at Sat May 24 04:20:57 2025.
