 Gaussian 16, Revision C.01,
 Gaussian 16:  ES64L-G16RevC.01  3-Jul-2019

 ----------------------------------------------------------------------
 #P M062X/Def2TZVPP Symm(None) scf(xqc) pop(None) opt(NoFreeze,TS,CalcA
 ll,NoEigentest,MaxCycle=999)
 ----------------------------------------------------------------------

 ------------------------------
 Gaussian input prepared by ASE
 ------------------------------
 Symbolic Z-matrix:
 Charge =  0 Multiplicity = 1

 SCF Done:  E(RM062X) =  -764.357219463     A.U. after   23 cycles
 SCF Done:  E(RM062X) =  -764.391208784     A.U. after   20 cycles
 SCF Done:  E(RM062X) =  -764.426112508     A.U. after   20 cycles
 SCF Done:  E(RM062X) =  -764.450098607     A.U. after   19 cycles
 SCF Done:  E(RM062X) =  -764.452162050     A.U. after   20 cycles
 SCF Done:  E(RM062X) =  -764.455198841     A.U. after   18 cycles
 SCF Done:  E(RM062X) =  -764.463113230     A.U. after   18 cycles
 SCF Done:  E(RM062X) =  -764.481419464     A.U. after   17 cycles
 SCF Done:  E(RM062X) =  -764.502055611     A.U. after   14 cycles
 SCF Done:  E(RM062X) =  -764.523314432     A.U. after   14 cycles
 SCF Done:  E(RM062X) =  -764.551337496     A.U. after   13 cycles
 SCF Done:  E(RM062X) =  -764.551795640     A.U. after   12 cycles
 SCF Done:  E(RM062X) =  -764.551982113     A.U. after   13 cycles
 SCF Done:  E(RM062X) =  -764.552160983     A.U. after   12 cycles
 SCF Done:  E(RM062X) =  -764.552188892     A.U. after   12 cycles
 SCF Done:  E(RM062X) =  -764.552248140     A.U. after   11 cycles
 SCF Done:  E(RM062X) =  -764.552253033     A.U. after   11 cycles
 SCF Done:  E(RM062X) =  -764.552257726     A.U. after    9 cycles
 SCF Done:  E(RM062X) =  -764.552258047     A.U. after   10 cycles
 SCF Done:  E(RM062X) =  -764.552258078     A.U. after    7 cycles

 Isotropic polarizability for W=    0.000000       56.24 Bohr**3.
 End of Minotr F.D. properties file   721 does not exist.

 Optimization completed.
    -- Stationary point found.

                          Input orientation:
 ---------------------------------------------------------------------
 Center     Atomic      Atomic             Coordinates (Angstroms)
 Number     Number       Type             X           Y           Z
 ---------------------------------------------------------------------
      1          6           0        1.861347    0.081865   -0.267315
      2          8           0        2.190807   -0.778975   -0.995670
      3          6           0        0.030232   -0.335320    0.047712
      4          6           0       -0.702229    0.330390    1.093706
      5          9           0       -1.463803    1.310253    0.847668
      6          9           0       -0.844433   -0.195311    2.235119
      7          9           0        0.656093    1.651776    1.904646
      8          9           0       -0.517804   -0.061480   -1.148349
      9          9           0        0.052697   -1.655486    0.265840
     10          8           0        2.242576    1.103268    0.283583
     11          1           0        1.424014    1.520426    1.245163
 ---------------------------------------------------------------------

 ******    1 imaginary frequencies (negative Signs) ******

                      1                      2                      3
                      A                      A                      A
 Frequencies --   -715.9516                19.4564                40.3222
 Red. masses --      7.6139                15.1632                17.7511
 Frc consts  --      2.2995                 0.0034                 0.0170
 IR Inten    --    544.9108                 0.3194                 0.7063

                      4                      5                      6
                      A                      A                      A
 Frequencies --    180.1970               210.3343               231.7629
 Red. masses --     14.8729                17.1496                17.3254
 Frc consts  --      0.2845                 0.4470                 0.5483
 IR Inten    --     42.4938                 6.5000                20.5408

                      7                      8                      9
                      A                      A                      A
 Frequencies --    246.1125               271.1818               300.3973
 Red. masses --     17.8528                17.6492                16.8137
 Frc consts  --      0.6371                 0.7647                 0.8939
 IR Inten    --     16.4063                 2.2155                55.1084

                     10                     11                     12
                      A                      A                      A
 Frequencies --    353.2684               371.9174               494.8909
 Red. masses --     12.5282                17.4486                13.0541
 Frc consts  --      0.9212                 1.4220                 1.8837
 IR Inten    --     23.9403                20.1151                55.9981

                     13                     14                     15
                      A                      A                      A
 Frequencies --    543.0984               608.1773               673.7484
 Red. masses --     17.0346                14.5045                13.3328
 Frc consts  --      2.9603                 3.1609                 3.5659
 IR Inten    --      1.8126                68.5754               328.0669

                     16                     17                     18
                      A                      A                      A
 Frequencies --    724.4263               744.8211               849.0429
 Red. masses --     14.0031                13.7587                14.5471
 Frc consts  --      4.3297                 4.4971                 6.1785
 IR Inten    --     39.5240                59.5928                 8.0826

                     19                     20                     21
                      A                      A                      A
 Frequencies --   1056.6871              1204.0299              1227.0069
 Red. masses --      1.0406                11.9968                 2.7585
 Frc consts  --      0.6846                10.2468                 2.4469
 IR Inten    --     78.8897               121.3570               440.3007

                     22                     23                     24
                      A                      A                      A
 Frequencies --   1258.8640              1295.5190              1530.4415
 Red. masses --     13.3112                 1.6142                13.1126
 Frc consts  --     12.4287                 1.5962                18.0955
 IR Inten    --    150.8899               286.1043               305.3974

                     25                     26                     27
                      A                      A                      A
 Frequencies --   1559.5363              2030.8426              2362.5055
 Red. masses --     10.0076                 4.8985                 1.2864
 Frc consts  --     14.3408                11.9033                 4.2302
 IR Inten    --    356.2656              1120.0245               669.4498

 - Thermochemistry -
 -------------------
 Temperature   298.150 Kelvin.  Pressure   1.00000 Atm.
 Atom     1 has atomic number  6 and mass  12.00000

 Molecular mass:   163.98967 amu.
 Principal axes and moments of inertia in atomic units:
                           1         2         3
     Eigenvalues --  1041.379571527.818561919.83346
           X            0.72256   0.61751   0.31077
           Y           -0.30961   0.69101  -0.65318
           Z           -0.61809   0.37575   0.69049
 This molecule is an asymmetric top.
 Rotational symmetry number  1.
 Warning -- assumption of classical behavior for rotation
           may cause significant error
 Rotational temperatures (Kelvin)      0.08317     0.05669     0.04512
 Rotational constants (GHZ):           1.73303     1.18125     0.94005
    1 imaginary frequencies ignored.
 Zero-point vibrational energy     121950.8 (Joules/Mol)
                                   29.14695 (Kcal/Mol)
 Warning -- explicit consideration of  13 degrees of freedom as
           vibrations may cause significant error
 Vibrational temperatures:     27.99    58.01   259.26   302.62   333.46
          (Kelvin)            354.10   390.17   432.20   508.27   535.11
                              712.04   781.40   875.03   969.37  1042.29
                             1071.63  1221.58  1520.34  1732.33  1765.39
                             1811.22  1863.96  2201.96  2243.82  2921.93
                             3399.12

 Zero-point correction=                           0.046449 (Hartree/Particle)
 Thermal correction to Energy=                    0.055811
 Thermal correction to Enthalpy=                  0.056756
 Thermal correction to Gibbs Free Energy=         0.009818
 Sum of electronic and zero-point Energies=           -764.505809
 Sum of electronic and thermal Energies=              -764.496447
 Sum of electronic and thermal Enthalpies=            -764.495502
 Sum of electronic and thermal Free Energies=         -764.542440

                     E (Thermal)             CV                S
                      KCal/Mol        Cal/Mol-Kelvin    Cal/Mol-Kelvin
 Total                   35.022             31.263             98.789
 Electronic               0.000              0.000              0.000
 Translational            0.889              2.981             41.192
 Rotational               0.889              2.981             29.503
 Vibrational             33.245             25.301             28.094
 Vibration     1          0.593              1.986              6.689
 Vibration     2          0.594              1.981              5.243
 Vibration     3          0.629              1.867              2.326
 Vibration     4          0.642              1.825              2.041
 Vibration     5          0.653              1.792              1.865
 Vibration     6          0.661              1.769              1.758
 Vibration     7          0.675              1.726              1.589
 Vibration     8          0.693              1.673              1.415
 Vibration     9          0.729              1.569              1.152
 Vibration    10          0.744              1.530              1.072
 Vibration    11          0.850              1.261              0.671
 Vibration    12          0.898              1.155              0.559
 Vibration    13          0.967              1.014              0.436

 Normal termination of Gaussian 16 at Sat May 24 06:25:55 2025.
