 Gaussian 16, Revision C.01,
 Gaussian 16:  ES64L-G16RevC.01  3-Jul-2019

 ----------------------------------------------------------------------
 #P M062X/Def2TZVPP Symm(None) scf(xqc) pop(None) geom(AllCheck,NoKeepC
 onstants) guess(Read) irc(RCFC,forward,MaxPoints=100,StepSize=2)
 ----------------------------------------------------------------------

 Structure from the checkpoint file:  "1642764945472630600001_r13_insertion_ROR_8_3_1_10_IRC_F.chk"
 ------------------------------
 Gaussian input prepared by ASE
 ------------------------------
 Charge =  0 Multiplicity = 1

 SCF Done:  E(RM062X) =  -764.583566463     A.U. after    9 cycles
 SCF Done:  E(RM062X) =  -764.583645829     A.U. after   10 cycles
 SCF Done:  E(RM062X) =  -764.583777160     A.U. after   10 cycles
 SCF Done:  E(RM062X) =  -764.583958808     A.U. after   10 cycles
 SCF Done:  E(RM062X) =  -764.584188335     A.U. after   10 cycles
 SCF Done:  E(RM062X) =  -764.584462659     A.U. after   10 cycles
 SCF Done:  E(RM062X) =  -764.584778336     A.U. after   10 cycles
 SCF Done:  E(RM062X) =  -764.585131819     A.U. after   10 cycles
 SCF Done:  E(RM062X) =  -764.585519637     A.U. after   10 cycles
 SCF Done:  E(RM062X) =  -764.585938446     A.U. after   10 cycles
 SCF Done:  E(RM062X) =  -764.623566698     A.U. after    8 cycles
 SCF Done:  E(RM062X) =  -764.623870286     A.U. after    8 cycles
 SCF Done:  E(RM062X) =  -764.624170259     A.U. after    8 cycles
 SCF Done:  E(RM062X) =  -764.624466663     A.U. after    8 cycles
 SCF Done:  E(RM062X) =  -764.624759536     A.U. after    8 cycles
 SCF Done:  E(RM062X) =  -764.625048916     A.U. after    8 cycles
 SCF Done:  E(RM062X) =  -764.625334838     A.U. after    8 cycles
 SCF Done:  E(RM062X) =  -764.625617333     A.U. after    8 cycles
 SCF Done:  E(RM062X) =  -764.625896430     A.U. after    8 cycles
 SCF Done:  E(RM062X) =  -764.626172158     A.U. after    8 cycles

                          Input orientation:
 ---------------------------------------------------------------------
 Center     Atomic      Atomic             Coordinates (Angstroms)
 Number     Number       Type             X           Y           Z
 ---------------------------------------------------------------------
      1          6           0        2.361677    1.357237   -1.364969
      2          8           0        2.852481    2.344490   -1.560906
      3          6           0       -0.439566    0.189279   -0.296513
      4          6           0       -0.172653   -0.831858    0.829746
      5          9           0       -0.708160   -2.027720    0.637409
      6          9           0        1.152468   -0.953837    0.832326
      7          9           0       -0.568339   -0.371892    2.003779
      8          9           0       -2.434878    0.142737   -0.035933
      9          9           0       -0.436079   -0.418189   -1.464289
     10          8           0       -0.457980    1.362767   -0.163599
     11          1           0       -2.374793    1.061829    0.074178
 ---------------------------------------------------------------------

 Normal termination of Gaussian 16 at Sat May 24 09:03:06 2025.
