 Gaussian 16, Revision C.01,
 Gaussian 16:  ES64L-G16RevC.01  3-Jul-2019

 ----------------------------------------------------------------------
 #P M062X/Def2TZVPP Symm(None) scf(xqc) pop(None) geom(AllCheck,NoKeepC
 onstants) guess(Read) irc(RCFC,reverse,MaxPoints=100,StepSize=2)
 ----------------------------------------------------------------------

 Structure from the checkpoint file:  "1642764945472630600001_r12_insertion_R_10_1_2_IRC_R.chk"
 ------------------------------
 Gaussian input prepared by ASE
 ------------------------------
 Charge =  0 Multiplicity = 1

 SCF Done:  E(RM062X) =  -764.382409334     A.U. after   14 cycles
 SCF Done:  E(RM062X) =  -764.382801255     A.U. after   19 cycles
 SCF Done:  E(RM062X) =  -764.383464134     A.U. after   19 cycles
 SCF Done:  E(RM062X) =  -764.384408371     A.U. after   19 cycles
 SCF Done:  E(RM062X) =  -764.385646798     A.U. after   20 cycles
 SCF Done:  E(RM062X) =  -764.387194589     A.U. after   20 cycles
 SCF Done:  E(RM062X) =  -764.389069168     A.U. after   20 cycles
 SCF Done:  E(RM062X) =  -764.391290005     A.U. after   20 cycles
 SCF Done:  E(RM062X) =  -764.393878251     A.U. after   20 cycles
 SCF Done:  E(RM062X) =  -764.396856202     A.U. after   20 cycles
 SCF Done:  E(RM062X) =  -764.641070073     A.U. after   10 cycles
 SCF Done:  E(RM062X) =  -764.641760045     A.U. after   10 cycles
 SCF Done:  E(RM062X) =  -764.642429932     A.U. after   10 cycles
 SCF Done:  E(RM062X) =  -764.643081068     A.U. after   10 cycles
 SCF Done:  E(RM062X) =  -764.643714794     A.U. after   10 cycles
 SCF Done:  E(RM062X) =  -764.644332501     A.U. after   10 cycles
 SCF Done:  E(RM062X) =  -764.644935459     A.U. after   10 cycles
 SCF Done:  E(RM062X) =  -764.645524573     A.U. after   10 cycles
 SCF Done:  E(RM062X) =  -764.646100312     A.U. after   10 cycles
 SCF Done:  E(RM062X) =  -764.646662774     A.U. after   10 cycles

                          Input orientation:
 ---------------------------------------------------------------------
 Center     Atomic      Atomic             Coordinates (Angstroms)
 Number     Number       Type             X           Y           Z
 ---------------------------------------------------------------------
      1          6           0        1.401130   -0.277886   -0.679239
      2          8           0        2.168858   -0.071360    0.196902
      3          6           0       -0.136879   -0.033807   -0.513274
      4          6           0       -0.695190    0.016979    0.929560
      5          9           0       -1.857405    0.663347    0.925899
      6          9           0       -0.897331   -1.207059    1.398984
      7          9           0        0.139755    0.661559    1.717955
      8          9           0       -0.151753    1.230305   -1.003067
      9          9           0       -0.993614   -0.747724   -1.261729
     10          8           0        1.795610   -0.421680   -1.949942
     11          1           0        1.191043    0.014139   -2.563703
 ---------------------------------------------------------------------

 Normal termination of Gaussian 16 at Sat May 24 05:41:23 2025.
