 Gaussian 16, Revision C.01,
 Gaussian 16:  ES64L-G16RevC.01  3-Jul-2019

 ----------------------------------------------------------------------
 #P M062X/Def2TZVPP Symm(None) scf(xqc) pop(None) geom(AllCheck,NoKeepC
 onstants) guess(Read) irc(RCFC,forward,MaxPoints=100,StepSize=2)
 ----------------------------------------------------------------------

 Structure from the checkpoint file:  "1642764945472630600001_intra_H_migration_2_11_IRC_F.chk"
 ------------------------------
 Gaussian input prepared by ASE
 ------------------------------
 Charge =  0 Multiplicity = 1

 SCF Done:  E(RM062X) =  -764.605156903     A.U. after    9 cycles
 SCF Done:  E(RM062X) =  -764.605256056     A.U. after    9 cycles
 SCF Done:  E(RM062X) =  -764.605420758     A.U. after    9 cycles
 SCF Done:  E(RM062X) =  -764.605650124     A.U. after    9 cycles
 SCF Done:  E(RM062X) =  -764.605942876     A.U. after    9 cycles
 SCF Done:  E(RM062X) =  -764.606297394     A.U. after   10 cycles
 SCF Done:  E(RM062X) =  -764.606711786     A.U. after   10 cycles
 SCF Done:  E(RM062X) =  -764.607183963     A.U. after   10 cycles
 SCF Done:  E(RM062X) =  -764.607711727     A.U. after   10 cycles
 SCF Done:  E(RM062X) =  -764.608292850     A.U. after   10 cycles
 SCF Done:  E(RM062X) =  -764.664329086     A.U. after    8 cycles
 SCF Done:  E(RM062X) =  -764.664517928     A.U. after    8 cycles
 SCF Done:  E(RM062X) =  -764.664699312     A.U. after    8 cycles
 SCF Done:  E(RM062X) =  -764.664873385     A.U. after    8 cycles
 SCF Done:  E(RM062X) =  -764.665040294     A.U. after    8 cycles
 SCF Done:  E(RM062X) =  -764.665200187     A.U. after    8 cycles
 SCF Done:  E(RM062X) =  -764.665353215     A.U. after    8 cycles
 SCF Done:  E(RM062X) =  -764.665499532     A.U. after    8 cycles
 SCF Done:  E(RM062X) =  -764.665639295     A.U. after    8 cycles
 SCF Done:  E(RM062X) =  -764.665772666     A.U. after    8 cycles

                          Input orientation:
 ---------------------------------------------------------------------
 Center     Atomic      Atomic             Coordinates (Angstroms)
 Number     Number       Type             X           Y           Z
 ---------------------------------------------------------------------
      1          6           0       -0.394100    1.241764   -0.811060
      2          8           0       -1.407051    1.106924   -1.653592
      3          6           0       -0.380897    0.272911    0.413067
      4          6           0        0.564272   -0.929551    0.177257
      5          9           0        0.552274   -1.733032    1.229528
      6          9           0        0.156326   -1.609314   -0.889341
      7          9           0        1.800938   -0.507223   -0.029492
      8          9           0        0.075768    0.946639    1.475581
      9          9           0       -1.595258   -0.211610    0.698606
     10          8           0        0.467795    2.042468   -0.984255
     11          1           0       -1.247581    1.761785   -2.349457
 ---------------------------------------------------------------------

 Normal termination of Gaussian 16 at Sat May 24 05:14:50 2025.
