 Gaussian 16, Revision C.01,
 Gaussian 16:  ES64L-G16RevC.01  3-Jul-2019

 ----------------------------------------------------------------------
 #P M062X/Def2TZVPP Symm(None) scf(xqc) pop(None) opt(NoFreeze,TS,CalcA
 ll,NoEigentest,MaxCycle=999)
 ----------------------------------------------------------------------

 ------------------------------
 Gaussian input prepared by ASE
 ------------------------------
 Symbolic Z-matrix:
 Charge =  0 Multiplicity = 1

 SCF Done:  E(RM062X) =  -764.500133393     A.U. after   16 cycles
 SCF Done:  E(RM062X) =  -764.507516236     A.U. after   14 cycles
 SCF Done:  E(RM062X) =  -764.511130109     A.U. after   11 cycles
 SCF Done:  E(RM062X) =  -764.517526042     A.U. after   12 cycles
 SCF Done:  E(RM062X) =  -764.512993859     A.U. after   13 cycles
 SCF Done:  E(RM062X) =  -764.510261783     A.U. after   14 cycles
 SCF Done:  E(RM062X) =  -764.529312205     A.U. after   14 cycles
 SCF Done:  E(RM062X) =  -764.537310936     A.U. after   14 cycles
 SCF Done:  E(RM062X) =  -764.542638218     A.U. after   14 cycles
 SCF Done:  E(RM062X) =  -764.544503883     A.U. after   14 cycles
 SCF Done:  E(RM062X) =  -764.555974720     A.U. after   14 cycles
 SCF Done:  E(RM062X) =  -764.547704671     A.U. after   14 cycles
 SCF Done:  E(RM062X) =  -764.544674524     A.U. after   14 cycles
 SCF Done:  E(RM062X) =  -764.544730289     A.U. after   13 cycles
 SCF Done:  E(RM062X) =  -764.544741869     A.U. after   10 cycles

 Isotropic polarizability for W=    0.000000       46.40 Bohr**3.
 End of Minotr F.D. properties file   721 does not exist.

 Optimization completed.
    -- Stationary point found.

                          Input orientation:
 ---------------------------------------------------------------------
 Center     Atomic      Atomic             Coordinates (Angstroms)
 Number     Number       Type             X           Y           Z
 ---------------------------------------------------------------------
      1          6           0        1.531449   -0.482271   -0.108619
      2          8           0        2.664391   -0.834220   -0.119757
      3          6           0       -0.047935    0.008097   -0.092044
      4          6           0       -0.489937    0.496427    1.331963
      5          9           0       -1.767646    0.171394    1.491086
      6          9           0        0.216373   -0.134960    2.261345
      7          9           0       -0.388639    1.796360    1.484373
      8          9           0       -0.252721    0.905936   -1.026582
      9          9           0       -0.841502   -1.043769   -0.387539
     10          8           0        1.682043    0.979318    0.259730
     11          1           0        2.623622    1.109089    0.418144
 ---------------------------------------------------------------------

 ******    1 imaginary frequencies (negative Signs) ******

                      1                      2                      3
                      A                      A                      A
 Frequencies --   -176.4239                67.1475               185.0902
 Red. masses --     16.0902                16.2835                13.9242
 Frc consts  --      0.2951                 0.0433                 0.2811
 IR Inten    --      1.1109                 0.8256                 1.6704

                      4                      5                      6
                      A                      A                      A
 Frequencies --    238.7870               261.6541               309.9743
 Red. masses --     14.3925                17.3687                16.8113
 Frc consts  --      0.4835                 0.7006                 0.9517
 IR Inten    --      4.8386                 0.3907                 9.5398

                      7                      8                      9
                      A                      A                      A
 Frequencies --    334.5079               361.4333               398.6007
 Red. masses --     14.6686                17.2019                 2.0311
 Frc consts  --      0.9671                 1.3240                 0.1901
 IR Inten    --     12.8779                 0.6533                61.7685

                     10                     11                     12
                      A                      A                      A
 Frequencies --    450.4691               482.2292               537.9416
 Red. masses --      3.5603                 4.2740                14.5718
 Frc consts  --      0.4257                 0.5856                 2.4845
 IR Inten    --      7.3621                24.8576                65.4280

                     13                     14                     15
                      A                      A                      A
 Frequencies --    586.6076               601.0613               641.0131
 Red. masses --     14.0966                14.0367                 9.8263
 Frc consts  --      2.8580                 2.9878                 2.3789
 IR Inten    --     56.9693                26.7160                72.3923

                     16                     17                     18
                      A                      A                      A
 Frequencies --    736.8186               757.2690               786.7867
 Red. masses --      9.5903                 5.9027                 4.8828
 Frc consts  --      3.0676                 1.9943                 1.7809
 IR Inten    --     48.4468                35.7761                48.3752

                     19                     20                     21
                      A                      A                      A
 Frequencies --    957.1965              1138.9177              1183.6038
 Red. masses --     11.3094                 9.0778                 1.8030
 Frc consts  --      6.1051                 6.9377                 1.4882
 IR Inten    --    147.3298               253.0546                74.9321

                     22                     23                     24
                      A                      A                      A
 Frequencies --   1255.7368              1273.1466              1317.7024
 Red. masses --      6.8039                11.4337                13.0156
 Frc consts  --      6.3213                10.9192                13.3153
 IR Inten    --    230.1098               303.1719               157.0967

                     25                     26                     27
                      A                      A                      A
 Frequencies --   1378.7581              1863.2977              3839.7778
 Red. masses --     12.6235                10.6128                 1.0660
 Frc consts  --     14.1386                21.7093                 9.2599
 IR Inten    --    150.7533               178.4733               101.2115

 - Thermochemistry -
 -------------------
 Temperature   298.150 Kelvin.  Pressure   1.00000 Atm.
 Atom     1 has atomic number  6 and mass  12.00000

 Molecular mass:   163.98967 amu.
 Principal axes and moments of inertia in atomic units:
                           1         2         3
     Eigenvalues --   934.851891495.236411665.25291
           X            0.85837   0.51296   0.00876
           Y           -0.22798   0.36607   0.90223
           Z           -0.45960   0.77644  -0.43117
 This molecule is an asymmetric top.
 Rotational symmetry number  1.
 Warning -- assumption of classical behavior for rotation
           may cause significant error
 Rotational temperatures (Kelvin)      0.09265     0.05793     0.05201
 Rotational constants (GHZ):           1.93051     1.20699     1.08376
    1 imaginary frequencies ignored.
 Zero-point vibrational energy     131263.4 (Joules/Mol)
                                   31.37271 (Kcal/Mol)
 Warning -- explicit consideration of  13 degrees of freedom as
           vibrations may cause significant error
 Vibrational temperatures:     96.61   266.30   343.56   376.46   445.98
          (Kelvin)            481.28   520.02   573.50   648.12   693.82
                              773.98   844.00   864.79   922.27  1060.12
                             1089.54  1132.01  1377.19  1638.65  1702.94
                             1806.73  1831.77  1895.88  1983.73  2680.87
                             5524.58

 Zero-point correction=                           0.049996 (Hartree/Particle)
 Thermal correction to Energy=                    0.058196
 Thermal correction to Enthalpy=                  0.059140
 Thermal correction to Gibbs Free Energy=         0.016613
 Sum of electronic and zero-point Energies=           -764.494746
 Sum of electronic and thermal Energies=              -764.486546
 Sum of electronic and thermal Enthalpies=            -764.485602
 Sum of electronic and thermal Free Energies=         -764.528129

                     E (Thermal)             CV                S
                      KCal/Mol        Cal/Mol-Kelvin    Cal/Mol-Kelvin
 Total                   36.518             30.107             89.506
 Electronic               0.000              0.000              0.000
 Translational            0.889              2.981             41.192
 Rotational               0.889              2.981             29.233
 Vibrational             34.741             24.146             19.080
 Vibration     1          0.598              1.970              4.235
 Vibration     2          0.631              1.860              2.276
 Vibration     3          0.657              1.781              1.812
 Vibration     4          0.669              1.743              1.651
 Vibration     5          0.699              1.655              1.362
 Vibration     6          0.716              1.607              1.238
 Vibration     7          0.736              1.552              1.116
 Vibration     8          0.765              1.473              0.968
 Vibration     9          0.809              1.360              0.794
 Vibration    10          0.838              1.289              0.704
 Vibration    11          0.893              1.166              0.570
 Vibration    12          0.944              1.060              0.473
 Vibration    13          0.959              1.030              0.448

 Normal termination of Gaussian 16 at Sat May 24 02:59:00 2025.
