 Gaussian 16, Revision C.01,
 Gaussian 16:  ES64L-G16RevC.01  3-Jul-2019

 -----------------------------------------------------------------
 #P M062X/Def2TZVPP Symm(None) scf(xqc) pop(None) freq opt(CalcFC)
 -----------------------------------------------------------------

 ------------------------------
 Gaussian input prepared by ASE
 ------------------------------
 Symbolic Z-matrix:
 Charge =  0 Multiplicity = 1

 SCF Done:  E(RM062X) =  -764.616793007     A.U. after   15 cycles
 SCF Done:  E(RM062X) =  -764.656000328     A.U. after   14 cycles
 SCF Done:  E(RM062X) =  -764.667252972     A.U. after   15 cycles
 SCF Done:  E(RM062X) =  -764.667663064     A.U. after   14 cycles
 SCF Done:  E(RM062X) =  -764.638049761     A.U. after   14 cycles
 SCF Done:  E(RM062X) =  -764.666586087     A.U. after   12 cycles
 SCF Done:  E(RM062X) =  -764.667710950     A.U. after    9 cycles
 SCF Done:  E(RM062X) =  -764.667305833     A.U. after   13 cycles
 SCF Done:  E(RM062X) =  -764.667775138     A.U. after   13 cycles
 SCF Done:  E(RM062X) =  -764.668205330     A.U. after   12 cycles
 SCF Done:  E(RM062X) =  -764.668216533     A.U. after   10 cycles
 SCF Done:  E(RM062X) =  -764.668236987     A.U. after   12 cycles
 SCF Done:  E(RM062X) =  -764.668256223     A.U. after   12 cycles
 SCF Done:  E(RM062X) =  -764.668266985     A.U. after   12 cycles
 SCF Done:  E(RM062X) =  -764.668268227     A.U. after    8 cycles
 Optimization completed.
    -- Stationary point found.
 Normal termination of Gaussian 16 at Fri May 23 23:10:21 2025.

 ---------------------------------------------------------------------
 #P Geom=AllCheck Guess=TCheck SCRF=Check GenChk RM062X/def2TZVPP Freq
 ---------------------------------------------------------------------

 Structure from the checkpoint file:  "1642764945472630600001_well.chk"
 ------------------------------
 Gaussian input prepared by ASE
 ------------------------------
 Charge =  0 Multiplicity = 1

                          Input orientation:
 ---------------------------------------------------------------------
 Center     Atomic      Atomic             Coordinates (Angstroms)
 Number     Number       Type             X           Y           Z
 ---------------------------------------------------------------------
      1          6           0        1.215344    0.178886   -0.127503
      2          8           0        1.881714    0.396671   -1.086292
      3          6           0       -0.236650    0.684588    0.015258
      4          6           0       -1.278591   -0.439804   -0.173213
      5          9           0       -2.498335    0.073181   -0.181077
      6          9           0       -1.060587   -1.056818   -1.329307
      7          9           0       -1.192769   -1.326692    0.807438
      8          9           0       -0.423737    1.226311    1.228261
      9          9           0       -0.463246    1.610542   -0.916314
     10          8           0        1.575136   -0.517382    0.945812
     11          1           0        2.481721   -0.829480    0.816937
 ---------------------------------------------------------------------

 SCF Done:  E(RM062X) =  -764.668268227     A.U. after    1 cycles

 Isotropic polarizability for W=    0.000000       43.85 Bohr**3.
 End of Minotr F.D. properties file   721 does not exist.

                      1                      2                      3
                      A                      A                      A
 Frequencies --     19.1698                65.6192               144.5272
 Red. masses --     12.9391                16.4509                10.2247
 Frc consts  --      0.0028                 0.0417                 0.1258
 IR Inten    --      1.4498                 0.3992                 0.9970

                      4                      5                      6
                      A                      A                      A
 Frequencies --    217.1801               249.1870               288.4097
 Red. masses --     17.2743                12.2306                14.7268
 Frc consts  --      0.4801                 0.4475                 0.7217
 IR Inten    --      1.5744                 1.2367                 1.4232

                      7                      8                      9
                      A                      A                      A
 Frequencies --    360.1334               379.9691               384.4230
 Red. masses --     16.5475                15.6041                13.5912
 Frc consts  --      1.2645                 1.3273                 1.1834
 IR Inten    --      0.3732                 0.8265                 0.6444

                     10                     11                     12
                      A                      A                      A
 Frequencies --    503.9396               548.5000               552.7713
 Red. masses --      7.8627                 4.5303                 3.1994
 Frc consts  --      1.1765                 0.8030                 0.5760
 IR Inten    --      5.8793                19.0884                17.2638

                     13                     14                     15
                      A                      A                      A
 Frequencies --    616.6924               636.7110               692.9066
 Red. masses --      7.0110                 3.1758                 4.5662
 Frc consts  --      1.5710                 0.7586                 1.2917
 IR Inten    --     16.9594                75.8280               101.7084

                     16                     17                     18
                      A                      A                      A
 Frequencies --    789.4359               798.1250              1062.4829
 Red. masses --     12.2697                 8.6894                11.7367
 Frc consts  --      4.5052                 3.2612                 7.8062
 IR Inten    --      2.5160                21.1761               124.3733

                     19                     20                     21
                      A                      A                      A
 Frequencies --   1188.2739              1229.6780              1277.6579
 Red. masses --      3.1039                 4.2378                10.2191
 Frc consts  --      2.5822                 3.7755                 9.8286
 IR Inten    --    246.1466               185.7998                45.2110

                     22                     23                     24
                      A                      A                      A
 Frequencies --   1290.3857              1296.6802              1383.0415
 Red. masses --     13.2887                 7.5211                 7.8452
 Frc consts  --     13.0368                 7.4507                 8.8415
 IR Inten    --    357.1236               149.1069               125.8724

                     25                     26                     27
                      A                      A                      A
 Frequencies --   1436.3150              1921.5411              3809.3862
 Red. masses --      5.1193                11.7377                 1.0646
 Frc consts  --      6.2224                25.5349                 9.1025
 IR Inten    --     54.3033               331.3902               129.8467

 - Thermochemistry -
 -------------------
 Temperature   298.150 Kelvin.  Pressure   1.00000 Atm.
 Atom     1 has atomic number  6 and mass  12.00000

 Molecular mass:   163.98967 amu.
 Principal axes and moments of inertia in atomic units:
                           1         2         3
     Eigenvalues --   948.362311521.028201602.46519
           X            0.97977  -0.17685  -0.09370
           Y            0.19907   0.90950   0.36493
           Z            0.02068  -0.37620   0.92631
 This molecule is an asymmetric top.
 Rotational symmetry number  1.
 Warning -- assumption of classical behavior for rotation
           may cause significant error
 Rotational temperatures (Kelvin)      0.09133     0.05694     0.05405
 Rotational constants (GHZ):           1.90301     1.18653     1.12623
 Zero-point vibrational energy     138426.7 (Joules/Mol)
                                   33.08478 (Kcal/Mol)
 Warning -- explicit consideration of  13 degrees of freedom as
           vibrations may cause significant error
 Vibrational temperatures:     27.58    94.41   207.94   312.47   358.52
          (Kelvin)            414.96   518.15   546.69   553.10   725.06
                              789.17   795.31   887.28   916.09   996.94
                             1135.82  1148.32  1528.68  1709.66  1769.23
                             1838.26  1856.58  1865.63  1989.89  2066.54
                             2764.67  5480.86

 Zero-point correction=                           0.052724 (Hartree/Particle)
 Thermal correction to Energy=                    0.061654
 Thermal correction to Enthalpy=                  0.062598
 Thermal correction to Gibbs Free Energy=         0.016934
 Sum of electronic and zero-point Energies=           -764.615544
 Sum of electronic and thermal Energies=              -764.606615
 Sum of electronic and thermal Enthalpies=            -764.605670
 Sum of electronic and thermal Free Energies=         -764.651334

                     E (Thermal)             CV                S
                      KCal/Mol        Cal/Mol-Kelvin    Cal/Mol-Kelvin
 Total                   38.688             30.702             96.107
 Electronic               0.000              0.000              0.000
 Translational            0.889              2.981             41.192
 Rotational               0.889              2.981             29.226
 Vibrational             36.911             24.741             25.688
 Vibration     1          0.593              1.986              6.718
 Vibration     2          0.597              1.971              4.281
 Vibration     3          0.616              1.909              2.743
 Vibration     4          0.646              1.815              1.982
 Vibration     5          0.662              1.764              1.736
 Vibration     6          0.685              1.695              1.483
 Vibration     7          0.735              1.554              1.122
 Vibration     8          0.750              1.513              1.039
 Vibration     9          0.753              1.503              1.022
 Vibration    10          0.859              1.241              0.648
 Vibration    11          0.904              1.143              0.547
 Vibration    12          0.908              1.134              0.538
 Vibration    13          0.976              0.997              0.422

 Optimization completed.
    -- Stationary point found.
 Normal termination of Gaussian 16 at Fri May 23 23:13:49 2025.
