 Gaussian 16, Revision C.01,
 Gaussian 16:  ES64L-G16RevC.01  3-Jul-2019

 -----------------------------------------------------------------
 #P M062X/Def2TZVPP Symm(None) scf(xqc) pop(None) freq opt(CalcFC)
 -----------------------------------------------------------------

 ------------------------------
 Gaussian input prepared by ASE
 ------------------------------
 Symbolic Z-matrix:
 Charge =  0 Multiplicity = 1

 SCF Done:  E(RM062X) =  -764.623871503     A.U. after   12 cycles
 Optimization completed.
    -- Stationary point found.
 Normal termination of Gaussian 16 at Sat May 24 07:26:50 2025.

 ---------------------------------------------------------------------
 #P Geom=AllCheck Guess=TCheck SCRF=Check GenChk RM062X/def2TZVPP Freq
 ---------------------------------------------------------------------

 Structure from the checkpoint file:  "1642804443153132880001_well.chk"
 ------------------------------
 Gaussian input prepared by ASE
 ------------------------------
 Charge =  0 Multiplicity = 1

                          Input orientation:
 ---------------------------------------------------------------------
 Center     Atomic      Atomic             Coordinates (Angstroms)
 Number     Number       Type             X           Y           Z
 ---------------------------------------------------------------------
      1          6           0        1.006871    0.351255   -0.016799
      2          8           0       -0.046482    0.625134    0.836627
      3          6           0        1.497814   -0.875111   -0.060855
      4          6           0       -1.275347    0.592075    0.266119
      5          9           0       -1.621347   -0.631131   -0.113699
      6          9           0       -2.148611    1.035031    1.141540
      7          9           0       -1.326247    1.370047   -0.826476
      8          9           0        2.525337   -1.219961   -0.792855
      9          9           0        1.037414   -1.875722    0.646151
     10          8           0        1.577526    1.389237   -0.653868
     11          1           0        0.963510    1.765838   -1.294916
 ---------------------------------------------------------------------

 SCF Done:  E(RM062X) =  -764.623871503     A.U. after    1 cycles

 Isotropic polarizability for W=    0.000000       45.83 Bohr**3.
 End of Minotr F.D. properties file   721 does not exist.

                      1                      2                      3
                      A                      A                      A
 Frequencies --     46.7299                73.4133               128.5618
 Red. masses --     14.7935                15.7681                14.9646
 Frc consts  --      0.0190                 0.0501                 0.1457
 IR Inten    --      0.2466                 0.3101                 1.8463

                      4                      5                      6
                      A                      A                      A
 Frequencies --    204.4338               215.5499               302.8560
 Red. masses --      8.8219                 8.2958                 1.2002
 Frc consts  --      0.2172                 0.2271                 0.0649
 IR Inten    --      3.6661                 4.2586               126.3505

                      7                      8                      9
                      A                      A                      A
 Frequencies --    355.0898               371.3649               445.8776
 Red. masses --     10.0583                15.8443                10.3149
 Frc consts  --      0.7472                 1.2874                 1.2082
 IR Inten    --     14.9524                 3.5748                 6.2323

                     10                     11                     12
                      A                      A                      A
 Frequencies --    480.0337               542.0974               564.0810
 Red. masses --     13.6711                16.5565                13.3882
 Frc consts  --      1.8561                 2.8667                 2.5099
 IR Inten    --      1.7744                 1.4958                 4.8119

                     13                     14                     15
                      A                      A                      A
 Frequencies --    629.5638               647.9375               654.7312
 Red. masses --     11.3954                15.6352                15.6343
 Frc consts  --      2.6611                 3.8674                 3.9487
 IR Inten    --      2.7123                10.9865                 9.9423

                     16                     17                     18
                      A                      A                      A
 Frequencies --    722.6897               846.7946               942.0517
 Red. masses --     13.6837                11.6437                15.1398
 Frc consts  --      4.2107                 4.9193                 7.9163
 IR Inten    --     13.8398                 2.4369                37.2173

                     19                     20                     21
                      A                      A                      A
 Frequencies --   1176.4323              1219.3960              1266.3248
 Red. masses --      4.6934                11.0177                 6.1862
 Frc consts  --      3.8271                 9.6523                 5.8448
 IR Inten    --    316.5988               197.0152               612.9579

                     22                     23                     24
                      A                      A                      A
 Frequencies --   1299.7457              1351.2399              1356.3653
 Red. masses --      2.4554                 4.4872                 8.9730
 Frc consts  --      2.4439                 4.8271                 9.7262
 IR Inten    --    267.2198               175.0932               275.5406

                     25                     26                     27
                      A                      A                      A
 Frequencies --   1396.7363              1921.2923              3828.3231
 Red. masses --     12.8030                11.1026                 1.0658
 Frc consts  --     14.7161                24.1470                 9.2033
 IR Inten    --    240.9915                42.0570               102.0472

 - Thermochemistry -
 -------------------
 Temperature   298.150 Kelvin.  Pressure   1.00000 Atm.
 Atom     1 has atomic number  6 and mass  12.00000

 Molecular mass:   163.98967 amu.
 Principal axes and moments of inertia in atomic units:
                           1         2         3
     Eigenvalues --   757.807081938.011152324.35832
           X            0.88800   0.35157   0.29639
           Y           -0.43632   0.84768   0.30177
           Z           -0.14515  -0.39729   0.90614
 This molecule is an asymmetric top.
 Rotational symmetry number  1.
 Warning -- assumption of classical behavior for rotation
           may cause significant error
 Rotational temperatures (Kelvin)      0.11430     0.04469     0.03726
 Rotational constants (GHZ):           2.38153     0.93123     0.77645
 Zero-point vibrational energy     137509.0 (Joules/Mol)
                                   32.86545 (Kcal/Mol)
 Warning -- explicit consideration of  12 degrees of freedom as
           vibrations may cause significant error
 Vibrational temperatures:     67.23   105.63   184.97   294.13   310.13
          (Kelvin)            435.74   510.90   534.31   641.52   690.66
                              779.96   811.59   905.80   932.24   942.01
                             1039.79  1218.35  1355.40  1692.62  1754.44
                             1821.96  1870.04  1944.13  1951.51  2009.59
                             2764.31  5508.10

 Zero-point correction=                           0.052374 (Hartree/Particle)
 Thermal correction to Energy=                    0.061312
 Thermal correction to Enthalpy=                  0.062257
 Thermal correction to Gibbs Free Energy=         0.017117
 Sum of electronic and zero-point Energies=           -764.571497
 Sum of electronic and thermal Energies=              -764.562559
 Sum of electronic and thermal Enthalpies=            -764.561615
 Sum of electronic and thermal Free Energies=         -764.606754

                     E (Thermal)             CV                S
                      KCal/Mol        Cal/Mol-Kelvin    Cal/Mol-Kelvin
 Total                   38.474             30.903             95.004
 Electronic               0.000              0.000              0.000
 Translational            0.889              2.981             41.192
 Rotational               0.889              2.981             29.613
 Vibrational             36.697             24.941             24.198
 Vibration     1          0.595              1.979              4.951
 Vibration     2          0.599              1.967              4.060
 Vibration     3          0.611              1.925              2.967
 Vibration     4          0.640              1.834              2.093
 Vibration     5          0.645              1.817              1.996
 Vibration     6          0.694              1.668              1.401
 Vibration     7          0.731              1.565              1.144
 Vibration     8          0.743              1.531              1.074
 Vibration     9          0.805              1.370              0.808
 Vibration    10          0.836              1.294              0.710
 Vibration    11          0.897              1.157              0.561
 Vibration    12          0.920              1.109              0.516

 Optimization completed.
    -- Stationary point found.
 Normal termination of Gaussian 16 at Sat May 24 07:30:10 2025.
