 Gaussian 16, Revision C.01,
 Gaussian 16:  ES64L-G16RevC.01  3-Jul-2019

 ----------------------------------------------------------------------
 #P M062X/Def2TZVPP Symm(None) scf(xqc) pop(None) geom(AllCheck,NoKeepC
 onstants) guess(Read) irc(RCFC,reverse,MaxPoints=100,StepSize=2)
 ----------------------------------------------------------------------

 Structure from the checkpoint file:  "1642764945472630600001_r12_insertion_R_11_10_1_IRC_R.chk"
 ------------------------------
 Gaussian input prepared by ASE
 ------------------------------
 Charge =  0 Multiplicity = 1

 SCF Done:  E(RM062X) =  -764.605151437     A.U. after    9 cycles
 SCF Done:  E(RM062X) =  -764.605250178     A.U. after   10 cycles
 SCF Done:  E(RM062X) =  -764.605414319     A.U. after   10 cycles
 SCF Done:  E(RM062X) =  -764.605643057     A.U. after   10 cycles
 SCF Done:  E(RM062X) =  -764.605935177     A.U. after   10 cycles
 SCF Done:  E(RM062X) =  -764.606289058     A.U. after   10 cycles
 SCF Done:  E(RM062X) =  -764.606702768     A.U. after   10 cycles
 SCF Done:  E(RM062X) =  -764.607174202     A.U. after   10 cycles
 SCF Done:  E(RM062X) =  -764.607701198     A.U. after   10 cycles
 SCF Done:  E(RM062X) =  -764.608281601     A.U. after   10 cycles
 SCF Done:  E(RM062X) =  -764.664251817     A.U. after    8 cycles
 SCF Done:  E(RM062X) =  -764.664440284     A.U. after    8 cycles
 SCF Done:  E(RM062X) =  -764.664621268     A.U. after    8 cycles
 SCF Done:  E(RM062X) =  -764.664794914     A.U. after    8 cycles
 SCF Done:  E(RM062X) =  -764.664961371     A.U. after    8 cycles
 SCF Done:  E(RM062X) =  -764.665120789     A.U. after    8 cycles
 SCF Done:  E(RM062X) =  -764.665273319     A.U. after    8 cycles
 SCF Done:  E(RM062X) =  -764.665419119     A.U. after    8 cycles
 SCF Done:  E(RM062X) =  -764.665558351     A.U. after    8 cycles
 SCF Done:  E(RM062X) =  -764.665691181     A.U. after    8 cycles

                          Input orientation:
 ---------------------------------------------------------------------
 Center     Atomic      Atomic             Coordinates (Angstroms)
 Number     Number       Type             X           Y           Z
 ---------------------------------------------------------------------
      1          6           0        1.416157    0.028528   -0.584049
      2          8           0        2.135602   -0.810687   -0.145070
      3          6           0       -0.134937   -0.145674   -0.591959
      4          6           0       -0.732588    0.055581    0.821724
      5          9           0       -2.051344   -0.056739    0.780014
      6          9           0       -0.249694   -0.845225    1.660327
      7          9           0       -0.416898    1.269833    1.262176
      8          9           0       -0.746482    0.709482   -1.419233
      9          9           0       -0.415714   -1.396473   -0.979364
     10          8           0        1.882301    1.166016   -1.076259
     11          1           0        2.844467    1.109504   -0.978262
 ---------------------------------------------------------------------

 Normal termination of Gaussian 16 at Sat May 24 04:28:52 2025.
