 Gaussian 16, Revision C.01,
 Gaussian 16:  ES64L-G16RevC.01  3-Jul-2019

 ----------------------------------------------------------------------
 #P M062X/Def2TZVPP Symm(None) scf(xqc) pop(None) opt(NoFreeze,TS,CalcA
 ll,NoEigentest,MaxCycle=999)
 ----------------------------------------------------------------------

 ------------------------------
 Gaussian input prepared by ASE
 ------------------------------
 Symbolic Z-matrix:
 Charge =  0 Multiplicity = 1

 SCF Done:  E(RM062X) =  -764.383018744     A.U. after   22 cycles
 SCF Done:  E(RM062X) =  -764.371391527     A.U. after   20 cycles
 SCF Done:  E(RM062X) =  -764.359552006     A.U. after   20 cycles
 SCF Done:  E(RM062X) =  -764.348209917     A.U. after   23 cycles
 SCF Done:  E(RM062X) =  -764.341981693     A.U. after   23 cycles
 SCF Done:  E(RM062X) =  -764.338456052     A.U. after   21 cycles
 SCF Done:  E(RM062X) =  -764.336160772     A.U. after   22 cycles
 SCF Done:  E(RM062X) =  -764.333502424     A.U. after   22 cycles
 SCF Done:  E(RM062X) =  -764.335015452     A.U. after   21 cycles
 SCF Done:  E(RM062X) =  -764.346951194     A.U. after   21 cycles
 SCF Done:  E(RM062X) =  -764.579351911     A.U. after   12 cycles
 SCF Done:  E(RM062X) =  -764.580935163     A.U. after   11 cycles
 SCF Done:  E(RM062X) =  -764.582316131     A.U. after   11 cycles
 SCF Done:  E(RM062X) =  -764.583065826     A.U. after   10 cycles
 SCF Done:  E(RM062X) =  -764.583411417     A.U. after   10 cycles
 SCF Done:  E(RM062X) =  -764.583514237     A.U. after   12 cycles
 SCF Done:  E(RM062X) =  -764.583534995     A.U. after   10 cycles
 SCF Done:  E(RM062X) =  -764.583539365     A.U. after   10 cycles
 SCF Done:  E(RM062X) =  -764.583539798     A.U. after   10 cycles
 SCF Done:  E(RM062X) =  -764.583539940     A.U. after    8 cycles

 Isotropic polarizability for W=    0.000000       45.44 Bohr**3.
 End of Minotr F.D. properties file   721 does not exist.

 Optimization completed.
    -- Stationary point found.

                          Input orientation:
 ---------------------------------------------------------------------
 Center     Atomic      Atomic             Coordinates (Angstroms)
 Number     Number       Type             X           Y           Z
 ---------------------------------------------------------------------
      1          6           0        4.108019    1.572747   -0.795177
      2          8           0        4.601223    2.558489   -0.992282
      3          6           0        1.157783    0.345927    0.279488
      4          6           0        1.566050   -0.628063    1.404542
      5          9           0        1.042047   -1.824948    1.211404
      6          9           0        2.890843   -0.729292    1.391462
      7          9           0        1.181232   -0.158359    2.575094
      8          9           0       -0.550067    0.379508    0.517674
      9          9           0        1.314871   -0.200962   -0.891077
     10          8           0        1.216225    1.592548    0.413525
     11          1           0        0.000682    1.425979    0.569637
 ---------------------------------------------------------------------

 ******    1 imaginary frequencies (negative Signs) ******

                      1                      2                      3
                      A                      A                      A
 Frequencies --  -1696.5740                20.5353                20.9000
 Red. masses --      1.2208                14.7544                16.9127
 Frc consts  --      2.0703                 0.0037                 0.0044
 IR Inten    --    409.2049                 0.1236                 0.0069

                      4                      5                      6
                      A                      A                      A
 Frequencies --     43.8095                59.3255                79.2547
 Red. masses --     14.7505                13.8126                14.6053
 Frc consts  --      0.0167                 0.0286                 0.0541
 IR Inten    --      0.0068                 0.2114                 0.0775

                      7                      8                      9
                      A                      A                      A
 Frequencies --    102.3933               178.0292               224.5151
 Red. masses --     12.5842                14.9569                15.2933
 Frc consts  --      0.0777                 0.2793                 0.4542
 IR Inten    --      0.2006                 3.4950                 1.7139

                     10                     11                     12
                      A                      A                      A
 Frequencies --    275.8094               344.5681               383.2428
 Red. masses --     14.1018                15.8867                16.4320
 Frc consts  --      0.6320                 1.1113                 1.4220
 IR Inten    --      0.5499                27.2040                 3.0217

                     13                     14                     15
                      A                      A                      A
 Frequencies --    439.7752               556.2267               599.2134
 Red. masses --     14.4684                17.2968                15.6158
 Frc consts  --      1.6487                 3.1530                 3.3035
 IR Inten    --     14.0724                29.1851                20.4153

                     16                     17                     18
                      A                      A                      A
 Frequencies --    649.5967               745.7044               815.0563
 Red. masses --      8.2011                 9.4297                 8.5793
 Frc consts  --      2.0390                 3.0895                 3.3580
 IR Inten    --     45.7004                72.3761               185.2387

                     19                     20                     21
                      A                      A                      A
 Frequencies --    879.7386               923.7097              1193.8537
 Red. masses --      2.2698                 2.2338                10.0895
 Frc consts  --      1.0350                 1.1230                 8.4727
 IR Inten    --    215.3804               179.4691               288.0424

                     22                     23                     24
                      A                      A                      A
 Frequencies --   1273.6807              1318.2898              1426.0877
 Red. masses --     13.0551                12.8455                10.3058
 Frc consts  --     12.4782                13.1530                12.3488
 IR Inten    --    335.2808               269.9297               166.4571

                     25                     26                     27
                      A                      A                      A
 Frequencies --   1664.3473              2047.0988              2284.3116
 Red. masses --      7.3170                 1.0611                13.4255
 Frc consts  --     11.9418                 2.6199                41.2753
 IR Inten    --    427.0443               150.7406               102.6253

 - Thermochemistry -
 -------------------
 Temperature   298.150 Kelvin.  Pressure   1.00000 Atm.
 Atom     1 has atomic number  6 and mass  12.00000

 Molecular mass:   163.98967 amu.
 Principal axes and moments of inertia in atomic units:
                           1         2         3
     Eigenvalues --   995.813982247.455282579.56288
           X            0.69221   0.71899  -0.06240
           Y            0.55915  -0.47963   0.67624
           Z           -0.45628   0.50300   0.73403
 This molecule is an asymmetric top.
 Rotational symmetry number  1.
 Warning -- assumption of classical behavior for rotation
           may cause significant error
 Rotational temperatures (Kelvin)      0.08698     0.03854     0.03358
 Rotational constants (GHZ):           1.81233     0.80302     0.69963
    1 imaginary frequencies ignored.
 Zero-point vibrational energy     110948.1 (Joules/Mol)
                                   26.51723 (Kcal/Mol)
 Warning -- explicit consideration of  14 degrees of freedom as
           vibrations may cause significant error
 Vibrational temperatures:     29.55    30.07    63.03    85.36   114.03
          (Kelvin)            147.32   256.14   323.03   396.83   495.76
                              551.40   632.74   800.29   862.13   934.62
                             1072.90  1172.68  1265.75  1329.01  1717.69
                             1832.54  1896.73  2051.82  2394.62  2945.32
                             3286.61

 Zero-point correction=                           0.042258 (Hartree/Particle)
 Thermal correction to Energy=                    0.053399
 Thermal correction to Enthalpy=                  0.054343
 Thermal correction to Gibbs Free Energy=         0.000932
 Sum of electronic and zero-point Energies=           -764.541282
 Sum of electronic and thermal Energies=              -764.530141
 Sum of electronic and thermal Enthalpies=            -764.529197
 Sum of electronic and thermal Free Energies=         -764.582608

                     E (Thermal)             CV                S
                      KCal/Mol        Cal/Mol-Kelvin    Cal/Mol-Kelvin
 Total                   33.508             33.781            112.414
 Electronic               0.000              0.000              0.000
 Translational            0.889              2.981             41.192
 Rotational               0.889              2.981             30.136
 Vibrational             31.731             27.820             41.086
 Vibration     1          0.593              1.986              6.582
 Vibration     2          0.593              1.986              6.547
 Vibration     3          0.595              1.980              5.079
 Vibration     4          0.597              1.974              4.480
 Vibration     5          0.600              1.963              3.909
 Vibration     6          0.604              1.947              3.408
 Vibration     7          0.628              1.869              2.349
 Vibration     8          0.649              1.804              1.922
 Vibration     9          0.677              1.718              1.560
 Vibration    10          0.723              1.586              1.191
 Vibration    11          0.752              1.506              1.026
 Vibration    12          0.800              1.383              0.827
 Vibration    13          0.912              1.126              0.531
 Vibration    14          0.957              1.033              0.451

 Normal termination of Gaussian 16 at Sat May 24 08:14:33 2025.
