 Gaussian 16, Revision C.01,
 Gaussian 16:  ES64L-G16RevC.01  3-Jul-2019

 -----------------------------------------------------------------
 #P M062X/Def2TZVPP Symm(None) scf(xqc) pop(None) freq opt(CalcFC)
 -----------------------------------------------------------------

 ------------------------------
 Gaussian input prepared by ASE
 ------------------------------
 Symbolic Z-matrix:
 Charge =  0 Multiplicity = 1

 SCF Done:  E(RM062X) =  -764.542418683     A.U. after   16 cycles
 SCF Done:  E(RM062X) =  -764.547214301     A.U. after   15 cycles
 SCF Done:  E(RM062X) =  -764.548741733     A.U. after   15 cycles
 SCF Done:  E(RM062X) =  -764.549045587     A.U. after   14 cycles
 SCF Done:  E(RM062X) =  -764.549124166     A.U. after   13 cycles
 SCF Done:  E(RM062X) =  -764.549182028     A.U. after   13 cycles
 SCF Done:  E(RM062X) =  -764.549222306     A.U. after   13 cycles
 SCF Done:  E(RM062X) =  -764.549243395     A.U. after   13 cycles
 SCF Done:  E(RM062X) =  -764.549249262     A.U. after   12 cycles
 SCF Done:  E(RM062X) =  -764.549252563     A.U. after   12 cycles
 SCF Done:  E(RM062X) =  -764.549257869     A.U. after   12 cycles
 SCF Done:  E(RM062X) =  -764.549258778     A.U. after   10 cycles
 SCF Done:  E(RM062X) =  -764.549259275     A.U. after   10 cycles
 SCF Done:  E(RM062X) =  -764.549260000     A.U. after   10 cycles
 SCF Done:  E(RM062X) =  -764.549260592     A.U. after   10 cycles
 SCF Done:  E(RM062X) =  -764.549260764     A.U. after   10 cycles
 SCF Done:  E(RM062X) =  -764.549260899     A.U. after   10 cycles
 SCF Done:  E(RM062X) =  -764.549260970     A.U. after    9 cycles
 SCF Done:  E(RM062X) =  -764.549261006     A.U. after    8 cycles
 Optimization completed.
    -- Stationary point found.
 Normal termination of Gaussian 16 at Sat May 24 04:33:01 2025.

 ---------------------------------------------------------------------
 #P Geom=AllCheck Guess=TCheck SCRF=Check GenChk RM062X/def2TZVPP Freq
 ---------------------------------------------------------------------

 Structure from the checkpoint file:  "1642764945472630600001_r12_insertion_R_8_3_4_IRC_R_prod.chk"
 ------------------------------
 Gaussian input prepared by ASE
 ------------------------------
 Charge =  0 Multiplicity = 1

                          Input orientation:
 ---------------------------------------------------------------------
 Center     Atomic      Atomic             Coordinates (Angstroms)
 Number     Number       Type             X           Y           Z
 ---------------------------------------------------------------------
      1          6           0        2.067988   -0.470765   -0.890285
      2          8           0        3.165560   -0.946671   -0.901447
      3          6           0        0.902894   -1.321803   -0.428795
      4          6           0       -1.455891    0.703129    0.919623
      5          9           0       -2.343334    1.651326    1.140292
      6          9           0       -1.861446   -0.415691    1.473876
      7          9           0       -0.298051    1.061101    1.430546
      8          9           0       -1.326309    0.529136   -0.383589
      9          9           0        0.453549   -1.937790   -1.474278
     10          8           0        1.750047    0.794562   -1.140580
     11          1           0        2.562879    1.284528   -1.334892
 ---------------------------------------------------------------------

 SCF Done:  E(RM062X) =  -764.549261006     A.U. after    1 cycles

 Isotropic polarizability for W=    0.000000       47.54 Bohr**3.
 End of Minotr F.D. properties file   721 does not exist.

                      1                      2                      3
                      A                      A                      A
 Frequencies --     13.8410                25.7131                34.4436
 Red. masses --     14.9464                12.2827                15.1039
 Frc consts  --      0.0017                 0.0048                 0.0106
 IR Inten    --      0.1068                 2.0035                 0.4124

                      4                      5                      6
                      A                      A                      A
 Frequencies --     46.2162                53.5921                59.4907
 Red. masses --     16.0036                13.5400                16.4134
 Frc consts  --      0.0201                 0.0229                 0.0342
 IR Inten    --      0.0071                 0.5451                 0.2113

                      7                      8                      9
                      A                      A                      A
 Frequencies --    106.7880               273.8013               332.6207
 Red. masses --     11.5177                 6.9408                10.6164
 Frc consts  --      0.0774                 0.3066                 0.6920
 IR Inten    --      2.4633                 6.1946                11.3727

                     10                     11                     12
                      A                      A                      A
 Frequencies --    439.7995               440.4326               518.0740
 Red. masses --     18.9752                18.9677                 2.7572
 Frc consts  --      2.1624                 2.1678                 0.4360
 IR Inten    --      0.0034                 0.0696                36.9000

                     13                     14                     15
                      A                      A                      A
 Frequencies --    599.8596               637.6030               638.2153
 Red. masses --      1.5856                18.0721                18.0950
 Frc consts  --      0.3362                 4.3287                 4.3425
 IR Inten    --    116.2979                 7.2385                 6.7077

                     16                     17                     18
                      A                      A                      A
 Frequencies --    639.0193               787.1627               913.5606
 Red. masses --     18.0902                 5.0854                 8.5298
 Frc consts  --      4.3523                 1.8566                 4.1943
 IR Inten    --      5.3412                34.8566                 7.8053

                     19                     20                     21
                      A                      A                      A
 Frequencies --    943.1222              1167.8703              1285.2366
 Red. masses --     18.9936                 2.1914                 7.1852
 Frc consts  --      9.9539                 1.7610                 6.9928
 IR Inten    --      0.2054               247.3768               118.8845

                     22                     23                     24
                      A                      A                      A
 Frequencies --   1310.3659              1326.9179              1338.4532
 Red. masses --     13.0405                12.6223                12.9687
 Frc consts  --     13.1926                13.0941                13.6884
 IR Inten    --    464.7082               458.4197               401.2682

                     25                     26                     27
                      A                      A                      A
 Frequencies --   1419.9765              1861.6741              3784.5432
 Red. masses --      4.0231                11.3825                 1.0642
 Frc consts  --      4.7794                23.2431                 8.9804
 IR Inten    --     96.0401               361.2088               116.3929

 - Thermochemistry -
 -------------------
 Temperature   298.150 Kelvin.  Pressure   1.00000 Atm.
 Atom     1 has atomic number  6 and mass  12.00000

 Molecular mass:   163.98967 amu.
 Principal axes and moments of inertia in atomic units:
                           1         2         3
     Eigenvalues --   752.162672786.357313079.81276
           X            0.81076   0.47920   0.33622
           Y           -0.35831   0.86044  -0.36230
           Z           -0.46291   0.17327   0.86931
 This molecule is an asymmetric top.
 Rotational symmetry number  1.
 Warning -- assumption of classical behavior for rotation
           may cause significant error
 Rotational temperatures (Kelvin)      0.11515     0.03109     0.02812
 Rotational constants (GHZ):           2.39940     0.64771     0.58599
 Zero-point vibrational energy     125598.3 (Joules/Mol)
                                   30.01871 (Kcal/Mol)
 Warning -- explicit consideration of  13 degrees of freedom as
           vibrations may cause significant error
 Vibrational temperatures:     19.91    37.00    49.56    66.49    77.11
          (Kelvin)             85.59   153.64   393.94   478.57   632.77
                              633.68   745.39   863.06   917.37   918.25
                              919.41  1132.55  1314.41  1356.94  1680.30
                             1849.17  1885.32  1909.14  1925.74  2043.03
                             2678.53  5445.11

 Zero-point correction=                           0.047838 (Hartree/Particle)
 Thermal correction to Energy=                    0.058965
 Thermal correction to Enthalpy=                  0.059909
 Thermal correction to Gibbs Free Energy=         0.005132
 Sum of electronic and zero-point Energies=           -764.501423
 Sum of electronic and thermal Energies=              -764.490296
 Sum of electronic and thermal Enthalpies=            -764.489352
 Sum of electronic and thermal Free Energies=         -764.544129

                     E (Thermal)             CV                S
                      KCal/Mol        Cal/Mol-Kelvin    Cal/Mol-Kelvin
 Total                   37.001             33.490            115.287
 Electronic               0.000              0.000              0.000
 Translational            0.889              2.981             41.192
 Rotational               0.889              2.981             30.246
 Vibrational             35.223             27.529             43.848
 Vibration     1          0.593              1.986              7.365
 Vibration     2          0.593              1.985              6.135
 Vibration     3          0.594              1.983              5.555
 Vibration     4          0.595              1.979              4.973
 Vibration     5          0.596              1.976              4.680
 Vibration     6          0.597              1.974              4.474
 Vibration     7          0.606              1.944              3.326
 Vibration     8          0.676              1.722              1.572
 Vibration     9          0.715              1.610              1.247
 Vibration    10          0.800              1.383              0.827
 Vibration    11          0.800              1.382              0.825
 Vibration    12          0.873              1.210              0.614
 Vibration    13          0.958              1.032              0.450

                           ! Non-Optimized Parameters !
 Normal termination of Gaussian 16 at Sat May 24 04:35:54 2025.
