 Gaussian 16, Revision C.01,
 Gaussian 16:  ES64L-G16RevC.01  3-Jul-2019

 ----------------------------------------------------------------------
 #P mp2/6-31G Symm(None) scf(xqc) pop(None) guess(Mix,Always) freq opt(
 CalcFC)
 ----------------------------------------------------------------------

 ------------------------------
 Gaussian input prepared by ASE
 ------------------------------
 Symbolic Z-matrix:
 Charge =  0 Multiplicity = 1

 SCF Done:  E(RHF) =  -760.799823724     A.U. after   17 cycles
 E2 =    -0.1145609118D+01 EUMP2 =    -0.76194543284208D+03
 E2 =    -0.1145609118D+01 EUMP2 =    -0.76194543284208D+03
 SCF Done:  E(RHF) =  -760.801607490     A.U. after   17 cycles
 E2 =    -0.1145464051D+01 EUMP2 =    -0.76194707154093D+03
 SCF Done:  E(RHF) =  -760.804364759     A.U. after   17 cycles
 E2 =    -0.1145317425D+01 EUMP2 =    -0.76194968218339D+03
 SCF Done:  E(RHF) =  -760.805292201     A.U. after   17 cycles
 E2 =    -0.1145130242D+01 EUMP2 =    -0.76195042244302D+03
 SCF Done:  E(RHF) =  -760.805346503     A.U. after   17 cycles
 E2 =    -0.1145165677D+01 EUMP2 =    -0.76195051217942D+03
 SCF Done:  E(RHF) =  -760.805374875     A.U. after   17 cycles
 E2 =    -0.1145158487D+01 EUMP2 =    -0.76195053336163D+03
 SCF Done:  E(RHF) =  -760.805384245     A.U. after   17 cycles
 E2 =    -0.1145151391D+01 EUMP2 =    -0.76195053563598D+03
 SCF Done:  E(RHF) =  -760.805382313     A.U. after   17 cycles
 E2 =    -0.1145153610D+01 EUMP2 =    -0.76195053592230D+03
 SCF Done:  E(RHF) =  -760.805379365     A.U. after   17 cycles
 E2 =    -0.1145156628D+01 EUMP2 =    -0.76195053599230D+03
 Optimization completed.
    -- Stationary point found.
 Normal termination of Gaussian 16 at Sat May 24 03:13:08 2025.

 -------------------------------------------------------------------
 #P Geom=AllCheck Guess=TCheck SCRF=Check GenChk RMP2(FC)/6-31G Freq
 -------------------------------------------------------------------

 Structure from the checkpoint file:  "1642764945472630600001_R_Addition_MultipleBond_1_3_4_IRC_F_prod.chk"
 ------------------------------
 Gaussian input prepared by ASE
 ------------------------------
 Charge =  0 Multiplicity = 1

                          Input orientation:
 ---------------------------------------------------------------------
 Center     Atomic      Atomic             Coordinates (Angstroms)
 Number     Number       Type             X           Y           Z
 ---------------------------------------------------------------------
      1          6           0        1.287394    0.041252   -0.915047
      2          8           0        2.234391   -0.732536   -1.131169
      3          6           0       -0.114837   -0.394716   -0.461962
      4          6           0       -0.571466    0.173735    0.895515
      5          9           0       -0.882517    1.524348    0.804424
      6          9           0       -1.689017   -0.505631    1.368742
      7          9           0        0.471715    0.017030    1.817496
      8          9           0       -1.068064   -0.015433   -1.437097
      9          9           0       -0.122219   -1.797955   -0.351343
     10          8           0        1.311850    1.412913   -1.047980
     11          1           0        2.194364    1.731832   -1.347666
 ---------------------------------------------------------------------

 SCF Done:  E(RHF) =  -760.805379365     A.U. after    1 cycles
 E2 =    -0.1145156629D+01 EUMP2 =    -0.76195053599349D+03
 E2 =    -0.1145156629D+01 EUMP2 =    -0.76195053599349D+03

                      1                      2                      3
                      A                      A                      A
 Frequencies --     45.0204                64.9098               153.4366
 Red. masses --     12.1256                17.2590                10.5322
 Frc consts  --      0.0145                 0.0428                 0.1461
 IR Inten    --      1.1320                 0.2249                 1.8222

                      4                      5                      6
                      A                      A                      A
 Frequencies --    216.0514               242.3498               283.6208
 Red. masses --     17.0058                11.5809                14.5251
 Frc consts  --      0.4677                 0.4008                 0.6884
 IR Inten    --      2.7440                 0.9476                 2.0013

                      7                      8                      9
                      A                      A                      A
 Frequencies --    340.9471               363.7963               370.2069
 Red. masses --     18.2419                17.2332                13.1304
 Frc consts  --      1.2494                 1.3438                 1.0603
 IR Inten    --      0.0721                 0.8240                 2.2408

                     10                     11                     12
                      A                      A                      A
 Frequencies --    455.6195               496.0165               536.1020
 Red. masses --     11.0911                14.1232                 5.6868
 Frc consts  --      1.3565                 2.0473                 0.9630
 IR Inten    --      8.6152                15.0785                12.6112

                     13                     14                     15
                      A                      A                      A
 Frequencies --    584.6170               615.2830               649.5792
 Red. masses --      6.2610                 1.6205                 5.4250
 Frc consts  --      1.2608                 0.3614                 1.3487
 IR Inten    --     13.6758               146.1979                97.1032

                     16                     17                     18
                      A                      A                      A
 Frequencies --    710.6868               733.8238              1008.2437
 Red. masses --     10.0549                 9.3888                13.1926
 Frc consts  --      2.9922                 2.9788                 7.9015
 IR Inten    --      8.0608                23.2009               148.6923

                     19                     20                     21
                      A                      A                      A
 Frequencies --   1089.8965              1148.7420              1181.8760
 Red. masses --      4.0475                 6.7301                 7.3015
 Frc consts  --      2.8328                 5.2326                 6.0091
 IR Inten    --    287.2842               164.2614               100.2530

                     22                     23                     24
                      A                      A                      A
 Frequencies --   1206.2967              1224.1901              1328.0205
 Red. masses --     10.7035                 5.4221                12.2227
 Frc consts  --      9.1766                 4.7875                12.7007
 IR Inten    --    162.5618                98.4085                53.4431

                     25                     26                     27
                      A                      A                      A
 Frequencies --   1399.8214              1700.5854              3607.1742
 Red. masses --      3.0429                10.5862                 1.0645
 Frc consts  --      3.5130                18.0379                 8.1610
 IR Inten    --     49.2678               157.2813                93.2326

 - Thermochemistry -
 -------------------
 Temperature   298.150 Kelvin.  Pressure   1.00000 Atm.
 Atom     1 has atomic number  6 and mass  12.00000

 Molecular mass:   163.98967 amu.
 Principal axes and moments of inertia in atomic units:
                           1         2         3
     Eigenvalues --  1007.111761577.067181713.39688
           X            0.73483   0.25999   0.62645
           Y           -0.04572   0.94050  -0.33670
           Z           -0.67671   0.21878   0.70299
 This molecule is an asymmetric top.
 Rotational symmetry number  1.
 Warning -- assumption of classical behavior for rotation
           may cause significant error
 Rotational temperatures (Kelvin)      0.08600     0.05492     0.05055
 Rotational constants (GHZ):           1.79200     1.14437     1.05331
 Zero-point vibrational energy     130135.2 (Joules/Mol)
                                   31.10307 (Kcal/Mol)
 Warning -- explicit consideration of  14 degrees of freedom as
           vibrations may cause significant error
 Vibrational temperatures:     64.77    93.39   220.76   310.85   348.69
          (Kelvin)            408.07   490.55   523.42   532.65   655.53
                              713.66   771.33   841.13   885.26   934.60
                             1022.52  1055.81  1450.64  1568.12  1652.78
                             1700.46  1735.59  1761.34  1910.73  2014.03
                             2446.76  5189.92

 Zero-point correction=                           0.049566 (Hartree/Particle)
 Thermal correction to Energy=                    0.058716
 Thermal correction to Enthalpy=                  0.059660
 Thermal correction to Gibbs Free Energy=         0.014309
 Sum of electronic and zero-point Energies=           -761.900970
 Sum of electronic and thermal Energies=              -761.891820
 Sum of electronic and thermal Enthalpies=            -761.890876
 Sum of electronic and thermal Free Energies=         -761.936227

                     E (Thermal)             CV                S
                      KCal/Mol        Cal/Mol-Kelvin    Cal/Mol-Kelvin
 Total                   36.845             31.908             95.450
 Electronic               0.000              0.000              0.000
 Translational            0.889              2.981             41.192
 Rotational               0.889              2.981             29.388
 Vibrational             35.067             25.947             24.870
 Vibration     1          0.595              1.979              5.025
 Vibration     2          0.597              1.971              4.302
 Vibration     3          0.619              1.899              2.629
 Vibration     4          0.645              1.817              1.992
 Vibration     5          0.659              1.775              1.786
 Vibration     6          0.682              1.704              1.512
 Vibration     7          0.720              1.594              1.208
 Vibration     8          0.737              1.547              1.106
 Vibration     9          0.742              1.533              1.079
 Vibration    10          0.814              1.348              0.779
 Vibration    11          0.852              1.259              0.668
 Vibration    12          0.891              1.170              0.574
 Vibration    13          0.942              1.065              0.477
 Vibration    14          0.975              1.000              0.424

 Optimization completed.
    -- Stationary point found.
 Normal termination of Gaussian 16 at Sat May 24 03:13:27 2025.
