 Gaussian 16, Revision C.01,
 Gaussian 16:  ES64L-G16RevC.01  3-Jul-2019

 -----------------------------------------------------------------
 #P M062X/Def2TZVPP Symm(None) scf(xqc) pop(None) freq opt(CalcFC)
 -----------------------------------------------------------------

 ------------------------------
 Gaussian input prepared by ASE
 ------------------------------
 Symbolic Z-matrix:
 Charge =  0 Multiplicity = 1

 SCF Done:  E(RM062X) =  -764.617601526     A.U. after   13 cycles
 SCF Done:  E(RM062X) =  -764.621057026     A.U. after   12 cycles
 SCF Done:  E(RM062X) =  -764.624033920     A.U. after   13 cycles
 SCF Done:  E(RM062X) =  -764.624593214     A.U. after   13 cycles
 SCF Done:  E(RM062X) =  -764.625095239     A.U. after   13 cycles
 SCF Done:  E(RM062X) =  -764.625401738     A.U. after   11 cycles
 SCF Done:  E(RM062X) =  -764.625392433     A.U. after   12 cycles
 SCF Done:  E(RM062X) =  -764.625648829     A.U. after   12 cycles
 SCF Done:  E(RM062X) =  -764.625747018     A.U. after   13 cycles
 SCF Done:  E(RM062X) =  -764.625907520     A.U. after   11 cycles
 SCF Done:  E(RM062X) =  -764.626246037     A.U. after   10 cycles
 SCF Done:  E(RM062X) =  -764.626249017     A.U. after    9 cycles
 SCF Done:  E(RM062X) =  -764.626249681     A.U. after    9 cycles
 SCF Done:  E(RM062X) =  -764.626250087     A.U. after    9 cycles
 SCF Done:  E(RM062X) =  -764.626249848     A.U. after    8 cycles
 SCF Done:  E(RM062X) =  -764.626250515     A.U. after    9 cycles
 SCF Done:  E(RM062X) =  -764.626250608     A.U. after    7 cycles
 SCF Done:  E(RM062X) =  -764.626250775     A.U. after    7 cycles
 SCF Done:  E(RM062X) =  -764.626250806     A.U. after    7 cycles
 Optimization completed.
    -- Stationary point found.
 Normal termination of Gaussian 16 at Sat May 24 07:13:09 2025.

 ---------------------------------------------------------------------
 #P Geom=AllCheck Guess=TCheck SCRF=Check GenChk RM062X/def2TZVPP Freq
 ---------------------------------------------------------------------

 Structure from the checkpoint file:  "1642764945472630600001_r12_insertion_R_5_4_6_IRC_F_prod.chk"
 ------------------------------
 Gaussian input prepared by ASE
 ------------------------------
 Charge =  0 Multiplicity = 1

                          Input orientation:
 ---------------------------------------------------------------------
 Center     Atomic      Atomic             Coordinates (Angstroms)
 Number     Number       Type             X           Y           Z
 ---------------------------------------------------------------------
      1          6           0        2.031115   -0.289801   -0.736400
      2          8           0        1.822597   -1.374168   -1.062223
      3          6           0       -1.123215   -0.219318   -0.701565
      4          6           0       -1.160727    0.353037    0.483870
      5          9           0       -1.691065   -0.201282    1.540632
      6          9           0        1.229418   -0.063639    2.023688
      7          9           0       -0.678769    1.554663    0.709409
      8          9           0       -0.592859    0.358299   -1.758544
      9          9           0       -1.600110   -1.412071   -0.950785
     10          8           0        2.242177    0.803803   -0.417411
     11          1           0        1.548903    0.738948    1.698502
 ---------------------------------------------------------------------

 SCF Done:  E(RM062X) =  -764.626250806     A.U. after    1 cycles

 Isotropic polarizability for W=    0.000000       44.90 Bohr**3.
 End of Minotr F.D. properties file   721 does not exist.

                      1                      2                      3
                      A                      A                      A
 Frequencies --     33.2684                36.1928                44.7114
 Red. masses --     15.1957                14.4568                16.6300
 Frc consts  --      0.0099                 0.0112                 0.0196
 IR Inten    --      4.9223                 6.4034                 1.6421

                      4                      5                      6
                      A                      A                      A
 Frequencies --     64.8903                66.8770                85.5315
 Red. masses --     15.2173                15.0456                16.0599
 Frc consts  --      0.0378                 0.0396                 0.0692
 IR Inten    --      0.9154                 2.6670                 0.2084

                      7                      8                      9
                      A                      A                      A
 Frequencies --     93.3804               156.8811               210.5586
 Red. masses --     13.4156                 8.0386                17.3774
 Frc consts  --      0.0689                 0.1166                 0.4539
 IR Inten    --      1.0649                 5.7592                 4.8997

                     10                     11                     12
                      A                      A                      A
 Frequencies --    216.1973               302.4299               348.0573
 Red. masses --     17.9492                 1.1011                 1.0599
 Frc consts  --      0.4943                 0.0593                 0.0756
 IR Inten    --      0.6019               201.1404               247.4296

                     13                     14                     15
                      A                      A                      A
 Frequencies --    403.2948               444.9447               562.8898
 Red. masses --     18.3870                12.5678                17.3137
 Frc consts  --      1.7620                 1.4660                 3.2321
 IR Inten    --      0.5386                 2.8670                 3.7379

                     16                     17                     18
                      A                      A                      A
 Frequencies --    564.6478               597.2363               693.3697
 Red. masses --     17.2902                12.2492                12.5369
 Frc consts  --      3.2479                 2.5743                 3.5512
 IR Inten    --      0.1109                 0.0284                61.5081

                     19                     20                     21
                      A                      A                      A
 Frequencies --    694.5238               822.5110              1228.2581
 Red. masses --     12.3067                18.5709                13.8935
 Frc consts  --      3.4976                 7.4023                12.3493
 IR Inten    --     27.6811                 0.1708               362.0542

                     22                     23                     24
                      A                      A                      A
 Frequencies --   1393.6470              1403.7195              1410.9162
 Red. masses --     13.4690                13.0186                15.9833
 Frc consts  --     15.4131                15.1138                18.7465
 IR Inten    --    312.6149                67.2116                 1.7873

                     25                     26                     27
                      A                      A                      A
 Frequencies --   1970.0482              2444.8511              4099.7084
 Red. masses --     12.1965                12.7964                 1.0582
 Frc consts  --     27.8894                45.0654                10.4792
 IR Inten    --      0.7774               657.1596               129.8202

 - Thermochemistry -
 -------------------
 Temperature   298.150 Kelvin.  Pressure   1.00000 Atm.
 Atom     1 has atomic number  6 and mass  12.00000

 Molecular mass:   163.98967 amu.
 Principal axes and moments of inertia in atomic units:
                           1         2         3
     Eigenvalues --  1337.388191708.765992254.82908
           X            0.98319   0.17630  -0.04756
           Y           -0.02003   0.36303   0.93156
           Z           -0.18150   0.91495  -0.36046
 This molecule is an asymmetric top.
 Rotational symmetry number  1.
 Warning -- assumption of classical behavior for rotation
           may cause significant error
 Rotational temperatures (Kelvin)      0.06476     0.05069     0.03841
 Rotational constants (GHZ):           1.34945     1.05617     0.80039
 Zero-point vibrational energy     121980.5 (Joules/Mol)
                                   29.15403 (Kcal/Mol)
 Warning -- explicit consideration of  17 degrees of freedom as
           vibrations may cause significant error
 Vibrational temperatures:     47.87    52.07    64.33    93.36    96.22
          (Kelvin)            123.06   134.35   225.72   302.95   311.06
                              435.13   500.78   580.25   640.18   809.87
                              812.40   859.29   997.60   999.26  1183.41
                             1767.19  2005.15  2019.64  2029.99  2834.46
                             3517.60  5898.57

 Zero-point correction=                           0.046460 (Hartree/Particle)
 Thermal correction to Energy=                    0.058917
 Thermal correction to Enthalpy=                  0.059861
 Thermal correction to Gibbs Free Energy=         0.004470
 Sum of electronic and zero-point Energies=           -764.579791
 Sum of electronic and thermal Energies=              -764.567333
 Sum of electronic and thermal Enthalpies=            -764.566389
 Sum of electronic and thermal Free Energies=         -764.621781

                     E (Thermal)             CV                S
                      KCal/Mol        Cal/Mol-Kelvin    Cal/Mol-Kelvin
 Total                   36.971             37.450            116.581
 Electronic               0.000              0.000              0.000
 Translational            0.889              2.981             41.192
 Rotational               0.889              2.981             30.023
 Vibrational             35.194             31.488             45.366
 Vibration     1          0.594              1.983              5.624
 Vibration     2          0.594              1.982              5.457
 Vibration     3          0.595              1.980              5.039
 Vibration     4          0.597              1.971              4.303
 Vibration     5          0.598              1.970              4.243
 Vibration     6          0.601              1.959              3.760
 Vibration     7          0.602              1.954              3.588
 Vibration     8          0.621              1.895              2.587
 Vibration     9          0.643              1.825              2.039
 Vibration    10          0.645              1.816              1.991
 Vibration    11          0.694              1.669              1.403
 Vibration    12          0.726              1.579              1.175
 Vibration    13          0.769              1.463              0.951
 Vibration    14          0.804              1.372              0.811
 Vibration    15          0.919              1.112              0.518
 Vibration    16          0.920              1.108              0.515
 Vibration    17          0.955              1.038              0.454

                           ! Non-Optimized Parameters !
 Normal termination of Gaussian 16 at Sat May 24 07:17:04 2025.
