 Gaussian 16, Revision C.01,
 Gaussian 16:  ES64L-G16RevC.01  3-Jul-2019

 ----------------------------------------------------------------------
 #P M062X/Def2TZVPP Symm(None) scf(xqc) pop(None) opt(NoFreeze,TS,CalcA
 ll,NoEigentest,MaxCycle=999)
 ----------------------------------------------------------------------

 ------------------------------
 Gaussian input prepared by ASE
 ------------------------------
 Symbolic Z-matrix:
 Charge =  0 Multiplicity = 1

 SCF Done:  E(RM062X) =  -764.498843885     A.U. after   17 cycles
 SCF Done:  E(RM062X) =  -764.501979666     A.U. after   16 cycles
 SCF Done:  E(RM062X) =  -764.508149579     A.U. after   16 cycles
 SCF Done:  E(RM062X) =  -764.514175705     A.U. after   16 cycles
 SCF Done:  E(RM062X) =  -764.516840887     A.U. after   18 cycles
 SCF Done:  E(RM062X) =  -764.520348234     A.U. after   17 cycles
 SCF Done:  E(RM062X) =  -764.520544385     A.U. after   16 cycles
 SCF Done:  E(RM062X) =  -764.520630407     A.U. after   14 cycles
 SCF Done:  E(RM062X) =  -764.520631351     A.U. after   11 cycles

 Isotropic polarizability for W=    0.000000       49.41 Bohr**3.
 End of Minotr F.D. properties file   721 does not exist.

 Optimization completed.
    -- Stationary point found.

                          Input orientation:
 ---------------------------------------------------------------------
 Center     Atomic      Atomic             Coordinates (Angstroms)
 Number     Number       Type             X           Y           Z
 ---------------------------------------------------------------------
      1          6           0        1.349557    0.149231   -0.367695
      2          8           0        1.995199   -0.851591   -0.678598
      3          6           0       -0.006493   -0.205456    0.255630
      4          6           0       -0.650103    0.389253    1.531983
      5          9           0       -1.851967   -0.124653    1.727879
      6          9           0        0.134476    0.071106    2.546037
      7          9           0       -0.742019    1.692037    1.406186
      8          9           0        0.619313    0.857527   -1.464032
      9          9           0       -0.662123   -1.139548   -0.248500
     10          8           0        1.900454    1.164825    0.380490
     11          1           0        2.843203    0.968674    0.422713
 ---------------------------------------------------------------------

 ******    1 imaginary frequencies (negative Signs) ******

                      1                      2                      3
                      A                      A                      A
 Frequencies --   -313.3061                48.0538                89.2749
 Red. masses --     13.3233                15.5695                14.9237
 Frc consts  --      0.7706                 0.0212                 0.0701
 IR Inten    --      5.6500                 0.0793                 2.8579

                      4                      5                      6
                      A                      A                      A
 Frequencies --    144.7295               194.5041               232.9129
 Red. masses --     10.8736                16.4166                12.5222
 Frc consts  --      0.1342                 0.3659                 0.4002
 IR Inten    --      2.9445                 2.6849                 4.1403

                      7                      8                      9
                      A                      A                      A
 Frequencies --    278.5023               318.2525               374.0362
 Red. masses --     13.9170                 2.6639                 2.4576
 Frc consts  --      0.6360                 0.1590                 0.2026
 IR Inten    --      8.7867                28.5822                27.9039

                     10                     11                     12
                      A                      A                      A
 Frequencies --    449.0168               480.2994               498.0661
 Red. masses --      4.9055                14.8129                 7.9948
 Frc consts  --      0.5827                 2.0133                 1.1685
 IR Inten    --     12.1737                10.1105                14.5349

                     13                     14                     15
                      A                      A                      A
 Frequencies --    529.8579               595.8176               659.4227
 Red. masses --     15.9980                10.9385                 7.4390
 Frc consts  --      2.6463                 2.2879                 1.9059
 IR Inten    --     15.8228                36.7210                74.0687

                     16                     17                     18
                      A                      A                      A
 Frequencies --    755.9985               776.5196               814.7502
 Red. masses --     14.8102                13.0605                 9.5521
 Frc consts  --      4.9872                 4.6400                 3.7359
 IR Inten    --    111.8489                50.9639                98.1567

                     19                     20                     21
                      A                      A                      A
 Frequencies --   1018.2022              1090.7147              1278.4604
 Red. masses --     12.5792                 4.8099                 8.6333
 Frc consts  --      7.6837                 3.3714                 8.3138
 IR Inten    --    133.3980               218.2236               271.3316

                     22                     23                     24
                      A                      A                      A
 Frequencies --   1299.0688              1313.0470              1341.6630
 Red. masses --      3.0355                11.0922                 3.1956
 Frc consts  --      3.0182                11.2675                 3.3892
 IR Inten    --     58.9138               239.1440               154.2067

                     25                     26                     27
                      A                      A                      A
 Frequencies --   1546.1248              1568.6566              3857.8509
 Red. masses --     10.8060                11.5436                 1.0653
 Frc consts  --     15.2196                16.7358                 9.3413
 IR Inten    --    389.5001               100.6824               123.4276

 - Thermochemistry -
 -------------------
 Temperature   298.150 Kelvin.  Pressure   1.00000 Atm.
 Atom     1 has atomic number  6 and mass  12.00000

 Molecular mass:   163.98967 amu.
 Principal axes and moments of inertia in atomic units:
                           1         2         3
     Eigenvalues --   860.126621681.616481878.69204
           X           -0.68994   0.52795  -0.49524
           Y            0.05658   0.72139   0.69021
           Z            0.72166   0.44818  -0.52758
 This molecule is an asymmetric top.
 Rotational symmetry number  1.
 Warning -- assumption of classical behavior for rotation
           may cause significant error
 Rotational temperatures (Kelvin)      0.10070     0.05151     0.04610
 Rotational constants (GHZ):           2.09823     1.07322     0.96064
    1 imaginary frequencies ignored.
 Zero-point vibrational energy     128920.4 (Joules/Mol)
                                   30.81271 (Kcal/Mol)
 Warning -- explicit consideration of  13 degrees of freedom as
           vibrations may cause significant error
 Vibrational temperatures:     69.14   128.45   208.23   279.85   335.11
          (Kelvin)            400.70   457.89   538.15   646.04   691.04
                              716.61   762.35   857.25   948.76  1087.71
                             1117.24  1172.24  1464.97  1569.30  1839.42
                             1869.07  1889.18  1930.35  2224.53  2256.95
                             5550.59

 Zero-point correction=                           0.049103 (Hartree/Particle)
 Thermal correction to Energy=                    0.058032
 Thermal correction to Enthalpy=                  0.058976
 Thermal correction to Gibbs Free Energy=         0.014135
 Sum of electronic and zero-point Energies=           -764.471528
 Sum of electronic and thermal Energies=              -764.462600
 Sum of electronic and thermal Enthalpies=            -764.461655
 Sum of electronic and thermal Free Energies=         -764.506497

                     E (Thermal)             CV                S
                      KCal/Mol        Cal/Mol-Kelvin    Cal/Mol-Kelvin
 Total                   36.415             30.754             94.376
 Electronic               0.000              0.000              0.000
 Translational            0.889              2.981             41.192
 Rotational               0.889              2.981             29.387
 Vibrational             34.638             24.793             23.797
 Vibration     1          0.595              1.978              4.896
 Vibration     2          0.602              1.957              3.676
 Vibration     3          0.616              1.908              2.740
 Vibration     4          0.635              1.848              2.184
 Vibration     5          0.654              1.791              1.856
 Vibration     6          0.679              1.713              1.543
 Vibration     7          0.705              1.639              1.319
 Vibration     8          0.745              1.525              1.063
 Vibration     9          0.808              1.363              0.799
 Vibration    10          0.837              1.294              0.709
 Vibration    11          0.854              1.254              0.663
 Vibration    12          0.885              1.184              0.588
 Vibration    13          0.954              1.041              0.457

 Normal termination of Gaussian 16 at Sat May 24 02:36:48 2025.
