 Gaussian 16, Revision C.01,
 Gaussian 16:  ES64L-G16RevC.01  3-Jul-2019

 ----------------------------------------------------------------------
 #P M062X/Def2TZVPP Symm(None) scf(xqc) pop(None) geom(AllCheck,NoKeepC
 onstants) guess(Read) irc(RCFC,reverse,MaxPoints=100,StepSize=2)
 ----------------------------------------------------------------------

 Structure from the checkpoint file:  "1642764945472630600001_r12_insertion_R_2_1_3_IRC_R.chk"
 ------------------------------
 Gaussian input prepared by ASE
 ------------------------------
 Charge =  0 Multiplicity = 1

 SCF Done:  E(RM062X) =  -764.512612318     A.U. after   10 cycles
 SCF Done:  E(RM062X) =  -764.512776821     A.U. after   11 cycles
 SCF Done:  E(RM062X) =  -764.513048284     A.U. after   11 cycles
 SCF Done:  E(RM062X) =  -764.513423753     A.U. after   11 cycles
 SCF Done:  E(RM062X) =  -764.513899690     A.U. after   11 cycles
 SCF Done:  E(RM062X) =  -764.514472053     A.U. after   11 cycles
 SCF Done:  E(RM062X) =  -764.515136378     A.U. after   11 cycles
 SCF Done:  E(RM062X) =  -764.515887874     A.U. after   11 cycles
 SCF Done:  E(RM062X) =  -764.516721499     A.U. after   11 cycles
 SCF Done:  E(RM062X) =  -764.517632040     A.U. after   11 cycles
 SCF Done:  E(RM062X) =  -764.595127278     A.U. after    9 cycles
 SCF Done:  E(RM062X) =  -764.595339271     A.U. after    9 cycles
 SCF Done:  E(RM062X) =  -764.595530181     A.U. after    9 cycles
 SCF Done:  E(RM062X) =  -764.595708374     A.U. after    9 cycles
 SCF Done:  E(RM062X) =  -764.595874662     A.U. after    9 cycles
 SCF Done:  E(RM062X) =  -764.596029659     A.U. after    9 cycles
 SCF Done:  E(RM062X) =  -764.596173459     A.U. after    9 cycles
 SCF Done:  E(RM062X) =  -764.596306810     A.U. after    9 cycles
 SCF Done:  E(RM062X) =  -764.596311631     A.U. after    8 cycles
 SCF Done:  E(RM062X) =  -764.596437672     A.U. after    9 cycles

                          Input orientation:
 ---------------------------------------------------------------------
 Center     Atomic      Atomic             Coordinates (Angstroms)
 Number     Number       Type             X           Y           Z
 ---------------------------------------------------------------------
      1          6           0        1.277920    1.227124   -0.733070
      2          8           0        1.190210   -0.127109   -0.761921
      3          6           0       -0.064998   -0.622675   -0.454763
      4          6           0       -0.738259    0.084414    0.757558
      5          9           0       -1.232150    1.266340    0.454735
      6          9           0       -1.731796   -0.687853    1.176626
      7          9           0        0.149819    0.212741    1.737922
      8          9           0       -0.875779   -0.548596   -1.505490
      9          9           0        0.104409   -1.902150   -0.138782
     10          8           0        2.517335    1.533441   -0.900739
     11          1           0        3.096283    0.753025   -1.007436
 ---------------------------------------------------------------------

 Normal termination of Gaussian 16 at Sat May 24 04:32:56 2025.
