 Gaussian 16, Revision C.01,
 Gaussian 16:  ES64L-G16RevC.01  3-Jul-2019

 -----------------------------------------------------------------
 #P M062X/Def2TZVPP Symm(None) scf(xqc) pop(None) freq opt(CalcFC)
 -----------------------------------------------------------------

 ------------------------------
 Gaussian input prepared by ASE
 ------------------------------
 Symbolic Z-matrix:
 Charge =  0 Multiplicity = 1

 SCF Done:  E(RM062X) =  -764.667500141     A.U. after   13 cycles
 SCF Done:  E(RM062X) =  -764.668140876     A.U. after   12 cycles
 SCF Done:  E(RM062X) =  -764.668216173     A.U. after   12 cycles
 SCF Done:  E(RM062X) =  -764.668243894     A.U. after   12 cycles
 SCF Done:  E(RM062X) =  -764.668263310     A.U. after   12 cycles
 SCF Done:  E(RM062X) =  -764.668267358     A.U. after   12 cycles
 SCF Done:  E(RM062X) =  -764.668268074     A.U. after   11 cycles
 SCF Done:  E(RM062X) =  -764.668268079     A.U. after    7 cycles
 Optimization completed.
    -- Stationary point found.
 Normal termination of Gaussian 16 at Sat May 24 06:44:24 2025.

 ---------------------------------------------------------------------
 #P Geom=AllCheck Guess=TCheck SCRF=Check GenChk RM062X/def2TZVPP Freq
 ---------------------------------------------------------------------

 Structure from the checkpoint file:  "1642764945472630600001_r12_insertion_R_2_1_10_IRC_F_prod.chk"
 ------------------------------
 Gaussian input prepared by ASE
 ------------------------------
 Charge =  0 Multiplicity = 1

                          Input orientation:
 ---------------------------------------------------------------------
 Center     Atomic      Atomic             Coordinates (Angstroms)
 Number     Number       Type             X           Y           Z
 ---------------------------------------------------------------------
      1          6           0        1.389503   -0.271159   -0.580994
      2          8           0        2.006957   -1.284370   -0.524721
      3          6           0       -0.153575   -0.227868   -0.538905
      4          6           0       -0.696897    0.252642    0.824483
      5          9           0       -2.015280    0.142365    0.848180
      6          9           0       -0.181954   -0.494256    1.794966
      7          9           0       -0.368413    1.518249    1.039200
      8          9           0       -0.622824    0.596383   -1.487611
      9          9           0       -0.624662   -1.455906   -0.755106
     10          8           0        1.889247    0.956763   -0.674347
     11          1           0        2.854525    0.893022   -0.683054
 ---------------------------------------------------------------------

 SCF Done:  E(RM062X) =  -764.668268080     A.U. after    1 cycles

 Isotropic polarizability for W=    0.000000       43.87 Bohr**3.
 End of Minotr F.D. properties file   721 does not exist.

                      1                      2                      3
                      A                      A                      A
 Frequencies --     19.2297                66.0389               145.4652
 Red. masses --     12.9879                16.4377                10.2374
 Frc consts  --      0.0028                 0.0422                 0.1276
 IR Inten    --      1.4243                 0.4322                 0.9650

                      4                      5                      6
                      A                      A                      A
 Frequencies --    216.5279               249.2119               287.8626
 Red. masses --     17.3528                12.2074                14.7156
 Frc consts  --      0.4793                 0.4467                 0.7185
 IR Inten    --      1.5419                 1.1482                 1.4068

                      7                      8                      9
                      A                      A                      A
 Frequencies --    360.0351               380.2234               384.2907
 Red. masses --     16.5197                15.6268                13.6048
 Frc consts  --      1.2617                 1.3311                 1.1838
 IR Inten    --      0.3811                 0.8156                 0.6436

                     10                     11                     12
                      A                      A                      A
 Frequencies --    504.6239               548.6936               554.1633
 Red. masses --      8.1499                 6.4405                 2.7533
 Frc consts  --      1.2227                 1.1424                 0.4982
 IR Inten    --      6.0265                15.7573                17.8062

                     13                     14                     15
                      A                      A                      A
 Frequencies --    617.3011               637.5355               693.0341
 Red. masses --      7.4975                 2.9431                 4.4884
 Frc consts  --      1.6833                 0.7048                 1.2701
 IR Inten    --     14.1037                79.4388               103.3530

                     16                     17                     18
                      A                      A                      A
 Frequencies --    789.6774               797.8708              1062.5817
 Red. masses --     12.1430                 8.6607                11.7478
 Frc consts  --      4.4614                 3.2484                 7.8150
 IR Inten    --      2.5945                21.3111               123.8632

                     19                     20                     21
                      A                      A                      A
 Frequencies --   1187.6153              1229.6732              1277.0266
 Red. masses --      3.0636                 4.2580                10.3553
 Frc consts  --      2.5459                 3.7934                 9.9498
 IR Inten    --    245.5013               187.2818                40.3157

                     22                     23                     24
                      A                      A                      A
 Frequencies --   1290.3836              1297.0548              1382.1689
 Red. masses --     13.2798                 7.6207                 7.9499
 Frc consts  --     13.0281                 7.5537                 8.9481
 IR Inten    --    361.6312               146.0480               127.8948

                     25                     26                     27
                      A                      A                      A
 Frequencies --   1435.9882              1920.5138              3808.1590
 Red. masses --      5.0999                11.7409                 1.0646
 Frc consts  --      6.1961                25.5144                 9.0966
 IR Inten    --     55.3954               330.5375               129.7870

 - Thermochemistry -
 -------------------
 Temperature   298.150 Kelvin.  Pressure   1.00000 Atm.
 Atom     1 has atomic number  6 and mass  12.00000

 Molecular mass:   163.98967 amu.
 Principal axes and moments of inertia in atomic units:
                           1         2         3
     Eigenvalues --   948.581401521.960061601.23053
           X            0.83587   0.46245   0.29575
           Y           -0.18150   0.74131  -0.64616
           Z           -0.51806   0.48642   0.70357
 This molecule is an asymmetric top.
 Rotational symmetry number  1.
 Warning -- assumption of classical behavior for rotation
           may cause significant error
 Rotational temperatures (Kelvin)      0.09131     0.05691     0.05409
 Rotational constants (GHZ):           1.90257     1.18580     1.12710
 Zero-point vibrational energy     138425.6 (Joules/Mol)
                                   33.08451 (Kcal/Mol)
 Warning -- explicit consideration of  13 degrees of freedom as
           vibrations may cause significant error
 Vibrational temperatures:     27.67    95.02   209.29   311.54   358.56
          (Kelvin)            414.17   518.01   547.06   552.91   726.04
                              789.45   797.32   888.16   917.27   997.12
                             1136.17  1147.96  1528.82  1708.71  1769.23
                             1837.36  1856.57  1866.17  1988.63  2066.07
                             2763.19  5479.09

 Zero-point correction=                           0.052724 (Hartree/Particle)
 Thermal correction to Energy=                    0.061650
 Thermal correction to Enthalpy=                  0.062594
 Thermal correction to Gibbs Free Energy=         0.016945
 Sum of electronic and zero-point Energies=           -764.615545
 Sum of electronic and thermal Energies=              -764.606618
 Sum of electronic and thermal Enthalpies=            -764.605674
 Sum of electronic and thermal Free Energies=         -764.651323

                     E (Thermal)             CV                S
                      KCal/Mol        Cal/Mol-Kelvin    Cal/Mol-Kelvin
 Total                   38.686             30.696             96.077
 Electronic               0.000              0.000              0.000
 Translational            0.889              2.981             41.192
 Rotational               0.889              2.981             29.226
 Vibrational             36.909             24.734             25.658
 Vibration     1          0.593              1.986              6.712
 Vibration     2          0.597              1.970              4.268
 Vibration     3          0.617              1.908              2.731
 Vibration     4          0.645              1.816              1.988
 Vibration     5          0.662              1.764              1.736
 Vibration     6          0.685              1.696              1.486
 Vibration     7          0.735              1.555              1.122
 Vibration     8          0.750              1.512              1.038
 Vibration     9          0.753              1.504              1.022
 Vibration    10          0.860              1.240              0.647
 Vibration    11          0.904              1.143              0.547
 Vibration    12          0.910              1.131              0.536
 Vibration    13          0.977              0.995              0.421

 Optimization completed.
    -- Stationary point found.
 Normal termination of Gaussian 16 at Sat May 24 06:48:00 2025.
