 Gaussian 16, Revision C.01,
 Gaussian 16:  ES64L-G16RevC.01  3-Jul-2019

 ----------------------------------------------------------------------
 #P M062X/Def2TZVPP Symm(None) scf(xqc) pop(None) opt(NoFreeze,TS,CalcA
 ll,NoEigentest,MaxCycle=999)
 ----------------------------------------------------------------------

 ------------------------------
 Gaussian input prepared by ASE
 ------------------------------
 Symbolic Z-matrix:
 Charge =  0 Multiplicity = 1

 SCF Done:  E(RM062X) =  -764.461837484     A.U. after   18 cycles
 SCF Done:  E(RM062X) =  -764.459954068     A.U. after   16 cycles
 SCF Done:  E(RM062X) =  -764.473326505     A.U. after   16 cycles
 SCF Done:  E(RM062X) =  -764.491563378     A.U. after   15 cycles
 SCF Done:  E(RM062X) =  -764.504161800     A.U. after   14 cycles
 SCF Done:  E(RM062X) =  -764.510738583     A.U. after   14 cycles
 SCF Done:  E(RM062X) =  -764.513780589     A.U. after   13 cycles
 SCF Done:  E(RM062X) =  -764.514277311     A.U. after   13 cycles
 SCF Done:  E(RM062X) =  -764.514281527     A.U. after    9 cycles

 Isotropic polarizability for W=    0.000000       49.29 Bohr**3.
 End of Minotr F.D. properties file   721 does not exist.

 Optimization completed.
    -- Stationary point found.

                          Input orientation:
 ---------------------------------------------------------------------
 Center     Atomic      Atomic             Coordinates (Angstroms)
 Number     Number       Type             X           Y           Z
 ---------------------------------------------------------------------
      1          6           0        1.559983   -0.041947    0.016677
      2          8           0        2.161917   -0.877868   -0.571051
      3          6           0        0.093516   -0.243852    0.356065
      4          6           0       -0.745141    0.674951    1.055091
      5          9           0       -1.954812    0.396817    1.280752
      6          9           0        0.265172   -0.565118    2.090517
      7          9           0       -0.375038    1.794520    1.490955
      8          9           0       -0.608919    0.863618   -0.835997
      9          9           0       -0.420967   -1.352388   -0.031469
     10          8           0        2.010208    1.123610    0.451086
     11          1           0        2.943577    1.199060    0.209471
 ---------------------------------------------------------------------

 ******    1 imaginary frequencies (negative Signs) ******

                      1                      2                      3
                      A                      A                      A
 Frequencies --   -964.8716                69.4527               148.6372
 Red. masses --     12.5314                14.0802                13.9630
 Frc consts  --      6.8737                 0.0400                 0.1818
 IR Inten    --     10.2936                 2.2483                27.0741

                      4                      5                      6
                      A                      A                      A
 Frequencies --    148.8785               172.2436               243.8439
 Red. masses --     10.0004                17.5328                16.0220
 Frc consts  --      0.1306                 0.3065                 0.5613
 IR Inten    --      0.1490                35.3288                 1.6107

                      7                      8                      9
                      A                      A                      A
 Frequencies --    255.0573               316.4785               353.8824
 Red. masses --     12.0658                17.2122                18.8188
 Frc consts  --      0.4625                 1.0157                 1.3885
 IR Inten    --      8.7091                13.1417               132.3966

                     10                     11                     12
                      A                      A                      A
 Frequencies --    396.2747               405.2143               419.8991
 Red. masses --     16.5877                11.9436                11.8750
 Frc consts  --      1.5347                 1.1555                 1.2336
 IR Inten    --      2.9275                 9.9621                 0.0883

                     13                     14                     15
                      A                      A                      A
 Frequencies --    501.0582               536.7882               589.4816
 Red. masses --     18.1943                 1.2264                10.3167
 Frc consts  --      2.6913                 0.2082                 2.1122
 IR Inten    --      0.2961                37.6937                18.4425

                     16                     17                     18
                      A                      A                      A
 Frequencies --    674.4180               687.2372               769.4758
 Red. masses --      6.8152                 9.4308                 9.5491
 Frc consts  --      1.8264                 2.6243                 3.3312
 IR Inten    --     88.9238               766.2860                 0.9946

                     19                     20                     21
                      A                      A                      A
 Frequencies --    786.1434              1148.2245              1206.5636
 Red. masses --      6.9469                13.1523                 2.0464
 Frc consts  --      2.5296                10.2166                 1.7552
 IR Inten    --     19.2886               185.0866               263.3182

                     22                     23                     24
                      A                      A                      A
 Frequencies --   1365.7033              1482.3354              1554.1112
 Red. masses --      3.7696                 8.4842                11.4542
 Frc consts  --      4.1425                10.9839                16.2997
 IR Inten    --    143.5585                56.7388               270.5178

                     25                     26                     27
                      A                      A                      A
 Frequencies --   1717.0929              1929.3124              3813.1598
 Red. masses --     12.3413                11.8624                 1.0647
 Frc consts  --     21.4388                26.0152                 9.1212
 IR Inten    --     76.9863               374.6247               149.1713

 - Thermochemistry -
 -------------------
 Temperature   298.150 Kelvin.  Pressure   1.00000 Atm.
 Atom     1 has atomic number  6 and mass  12.00000

 Molecular mass:   163.98967 amu.
 Principal axes and moments of inertia in atomic units:
                           1         2         3
     Eigenvalues --   921.618301477.387421627.62674
           X            0.88162   0.39435   0.25928
           Y           -0.26317   0.86681  -0.42353
           Z           -0.39177   0.30516   0.86798
 This molecule is an asymmetric top.
 Rotational symmetry number  1.
 Warning -- assumption of classical behavior for rotation
           may cause significant error
 Rotational temperatures (Kelvin)      0.09398     0.05863     0.05321
 Rotational constants (GHZ):           1.95823     1.22158     1.10882
    1 imaginary frequencies ignored.
 Zero-point vibrational energy     129740.8 (Joules/Mol)
                                   31.00880 (Kcal/Mol)
 Warning -- explicit consideration of  14 degrees of freedom as
           vibrations may cause significant error
 Vibrational temperatures:     99.93   213.86   214.20   247.82   350.84
          (Kelvin)            366.97   455.34   509.16   570.15   583.01
                              604.14   720.91   772.32   848.13   970.34
                              988.78  1107.10  1131.08  1652.04  1735.98
                             1964.94  2132.75  2236.02  2470.51  2775.85
                             5486.29

 Zero-point correction=                           0.049416 (Hartree/Particle)
 Thermal correction to Energy=                    0.058635
 Thermal correction to Enthalpy=                  0.059579
 Thermal correction to Gibbs Free Energy=         0.014898
 Sum of electronic and zero-point Energies=           -764.464866
 Sum of electronic and thermal Energies=              -764.455646
 Sum of electronic and thermal Enthalpies=            -764.454702
 Sum of electronic and thermal Free Energies=         -764.499384

                     E (Thermal)             CV                S
                      KCal/Mol        Cal/Mol-Kelvin    Cal/Mol-Kelvin
 Total                   36.794             32.048             94.040
 Electronic               0.000              0.000              0.000
 Translational            0.889              2.981             41.192
 Rotational               0.889              2.981             29.184
 Vibrational             35.017             26.086             23.664
 Vibration     1          0.598              1.969              4.169
 Vibration     2          0.618              1.904              2.690
 Vibration     3          0.618              1.904              2.687
 Vibration     4          0.626              1.877              2.411
 Vibration     5          0.659              1.773              1.775
 Vibration     6          0.665              1.754              1.695
 Vibration     7          0.703              1.642              1.328
 Vibration     8          0.730              1.567              1.149
 Vibration     9          0.763              1.478              0.976
 Vibration    10          0.770              1.459              0.944
 Vibration    11          0.783              1.427              0.892
 Vibration    12          0.856              1.248              0.655
 Vibration    13          0.892              1.169              0.572
 Vibration    14          0.947              1.054              0.468

 Normal termination of Gaussian 16 at Sat May 24 02:36:15 2025.
