 Gaussian 16, Revision C.01,
 Gaussian 16:  ES64L-G16RevC.01  3-Jul-2019

 -----------------------------------------------------------------
 #P M062X/Def2TZVPP Symm(None) scf(xqc) pop(None) freq opt(CalcFC)
 -----------------------------------------------------------------

 ------------------------------
 Gaussian input prepared by ASE
 ------------------------------
 Symbolic Z-matrix:
 Charge =  0 Multiplicity = 1

 SCF Done:  E(RM062X) =  -764.598018495     A.U. after   13 cycles
 SCF Done:  E(RM062X) =  -764.598023448     A.U. after   11 cycles
 SCF Done:  E(RM062X) =  -764.598024263     A.U. after    9 cycles
 SCF Done:  E(RM062X) =  -764.598024189     A.U. after    7 cycles
 SCF Done:  E(RM062X) =  -764.598032313     A.U. after   12 cycles
 SCF Done:  E(RM062X) =  -764.598155662     A.U. after   14 cycles
 SCF Done:  E(RM062X) =  -764.597780831     A.U. after   14 cycles
 SCF Done:  E(RM062X) =  -764.598242097     A.U. after   11 cycles
 SCF Done:  E(RM062X) =  -764.598255745     A.U. after   11 cycles
 SCF Done:  E(RM062X) =  -764.598258251     A.U. after    9 cycles
 SCF Done:  E(RM062X) =  -764.598258524     A.U. after    7 cycles
 Optimization completed.
    -- Stationary point found.
 Normal termination of Gaussian 16 at Sat May 24 04:12:44 2025.

 ---------------------------------------------------------------------
 #P Geom=AllCheck Guess=TCheck SCRF=Check GenChk RM062X/def2TZVPP Freq
 ---------------------------------------------------------------------

 Structure from the checkpoint file:  "1642804744642041580601_well.chk"
 ------------------------------
 Gaussian input prepared by ASE
 ------------------------------
 Charge =  0 Multiplicity = 1

                          Input orientation:
 ---------------------------------------------------------------------
 Center     Atomic      Atomic             Coordinates (Angstroms)
 Number     Number       Type             X           Y           Z
 ---------------------------------------------------------------------
      1          6           0        1.840768    0.937994   -0.503230
      2          8           0        1.324578   -0.172129    0.086618
      3          6           0       -1.070229   -0.131114   -0.337554
      4          6           0        0.085725   -0.058207    0.688615
      5          9           0       -2.229514   -0.116531    0.303040
      6          9           0       -0.026452   -1.097693    1.509966
      7          9           0       -0.023610    1.060104    1.391065
      8          9           0       -1.023093    0.892886   -1.170942
      9          9           0       -0.974186   -1.258133   -1.031283
     10          8           0        2.981961    0.582876   -0.995003
     11          1           0        3.192997   -0.357393   -0.833547
 ---------------------------------------------------------------------

 SCF Done:  E(RM062X) =  -764.598258525     A.U. after    1 cycles

 Isotropic polarizability for W=    0.000000       46.92 Bohr**3.
 End of Minotr F.D. properties file   721 does not exist.

                      1                      2                      3
                      A                      A                      A
 Frequencies --     43.9519                94.8030               115.4290
 Red. masses --     14.4128                15.5822                 4.0279
 Frc consts  --      0.0164                 0.0825                 0.0316
 IR Inten    --      2.9580                 1.6450                25.2557

                      4                      5                      6
                      A                      A                      A
 Frequencies --    209.1868               223.7143               245.7272
 Red. masses --     13.9121                17.0742                14.0058
 Frc consts  --      0.3587                 0.5035                 0.4983
 IR Inten    --      1.9654                 1.5229                 7.5987

                      7                      8                      9
                      A                      A                      A
 Frequencies --    354.3047               375.1776               392.7710
 Red. masses --     17.1927                15.5063                14.8766
 Frc consts  --      1.2716                 1.2860                 1.3522
 IR Inten    --      0.4197                 1.5061                 1.2583

                     10                     11                     12
                      A                      A                      A
 Frequencies --    442.8552               529.3197               559.0857
 Red. masses --      9.8314                12.8857                14.4755
 Frc consts  --      1.1360                 2.1271                 2.6659
 IR Inten    --      7.1222                 1.1229                 2.7757

                     13                     14                     15
                      A                      A                      A
 Frequencies --    623.2689               685.6816               759.9891
 Red. masses --     14.5835                15.0236                10.4965
 Frc consts  --      3.3378                 4.1617                 3.5720
 IR Inten    --      2.0247                11.1580                26.3714

                     16                     17                     18
                      A                      A                      A
 Frequencies --    781.5855               864.9362              1084.6377
 Red. masses --      1.3129                 7.9673                 6.5819
 Frc consts  --      0.4725                 3.5118                 4.5622
 IR Inten    --    121.6521                19.8335                82.1498

                     19                     20                     21
                      A                      A                      A
 Frequencies --   1145.8365              1225.3983              1288.1690
 Red. masses --     12.3918                 5.2352                12.1414
 Frc consts  --      9.5858                 4.6317                11.8704
 IR Inten    --    479.6770               553.9213               136.2364

                     22                     23                     24
                      A                      A                      A
 Frequencies --   1297.8242              1304.6209              1364.4674
 Red. masses --      8.3716                11.6056                 2.3104
 Frc consts  --      8.3079                11.6382                 2.5343
 IR Inten    --    269.5169               417.5074               112.3013

                     25                     26                     27
                      A                      A                      A
 Frequencies --   1422.5075              1439.3166              3622.1152
 Red. masses --      6.0371                12.5407                 1.0625
 Frc consts  --      7.1976                15.3068                 8.2128
 IR Inten    --     67.4291                 1.4356                23.1575

 - Thermochemistry -
 -------------------
 Temperature   298.150 Kelvin.  Pressure   1.00000 Atm.
 Atom     1 has atomic number  6 and mass  12.00000

 Molecular mass:   163.98967 amu.
 Principal axes and moments of inertia in atomic units:
                           1         2         3
     Eigenvalues --   878.037761700.831801910.86628
           X            0.97071   0.15275  -0.18545
           Y            0.20412  -0.11720   0.97191
           Z           -0.12673   0.98129   0.14494
 This molecule is an asymmetric top.
 Rotational symmetry number  1.
 Warning -- assumption of classical behavior for rotation
           may cause significant error
 Rotational temperatures (Kelvin)      0.09864     0.05092     0.04533
 Rotational constants (GHZ):           2.05543     1.06109     0.94446
 Zero-point vibrational energy     134560.0 (Joules/Mol)
                                   32.16062 (Kcal/Mol)
 Warning -- explicit consideration of  12 degrees of freedom as
           vibrations may cause significant error
 Vibrational temperatures:     63.24   136.40   166.08   300.97   321.88
          (Kelvin)            353.55   509.77   539.80   565.11   637.17
                              761.57   804.40   896.74   986.54  1093.45
                             1124.53  1244.45  1560.55  1648.60  1763.07
                             1853.39  1867.28  1877.06  1963.16  2046.67
                             2070.86  5211.42

 Zero-point correction=                           0.051251 (Hartree/Particle)
 Thermal correction to Energy=                    0.060230
 Thermal correction to Enthalpy=                  0.061174
 Thermal correction to Gibbs Free Energy=         0.016059
 Sum of electronic and zero-point Energies=           -764.547007
 Sum of electronic and thermal Energies=              -764.538029
 Sum of electronic and thermal Enthalpies=            -764.537084
 Sum of electronic and thermal Free Energies=         -764.582200

                     E (Thermal)             CV                S
                      KCal/Mol        Cal/Mol-Kelvin    Cal/Mol-Kelvin
 Total                   37.795             30.763             94.953
 Electronic               0.000              0.000              0.000
 Translational            0.889              2.981             41.192
 Rotational               0.889              2.981             29.435
 Vibrational             36.017             24.801             24.326
 Vibration     1          0.595              1.980              5.072
 Vibration     2          0.603              1.953              3.558
 Vibration     3          0.608              1.937              3.176
 Vibration     4          0.642              1.827              2.051
 Vibration     5          0.649              1.805              1.929
 Vibration     6          0.660              1.770              1.761
 Vibration     7          0.730              1.566              1.147
 Vibration     8          0.746              1.523              1.059
 Vibration     9          0.760              1.486              0.990
 Vibration    10          0.802              1.377              0.818
 Vibration    11          0.884              1.185              0.589
 Vibration    12          0.915              1.120              0.526

 Optimization completed.
    -- Stationary point found.
 Normal termination of Gaussian 16 at Sat May 24 04:16:25 2025.
