 Gaussian 16, Revision C.01,
 Gaussian 16:  ES64L-G16RevC.01  3-Jul-2019

 ----------------------------------------------------------------------
 #P M062X/Def2TZVPP Symm(None) scf(xqc) pop(None) opt(NoFreeze,TS,CalcA
 ll,NoEigentest,MaxCycle=999)
 ----------------------------------------------------------------------

 ------------------------------
 Gaussian input prepared by ASE
 ------------------------------
 Symbolic Z-matrix:
 Charge =  0 Multiplicity = 1

 SCF Done:  E(RM062X) =  -764.483498812     A.U. after   14 cycles
 SCF Done:  E(RM062X) =  -764.543414906     A.U. after   14 cycles
 SCF Done:  E(RM062X) =  -764.584039262     A.U. after   12 cycles
 SCF Done:  E(RM062X) =  -764.602369586     A.U. after   12 cycles
 SCF Done:  E(RM062X) =  -764.605046425     A.U. after   11 cycles
 SCF Done:  E(RM062X) =  -764.605110910     A.U. after   12 cycles
 SCF Done:  E(RM062X) =  -764.605114134     A.U. after   12 cycles
 SCF Done:  E(RM062X) =  -764.605114609     A.U. after   11 cycles
 SCF Done:  E(RM062X) =  -764.605114839     A.U. after   11 cycles
 SCF Done:  E(RM062X) =  -764.603568005     A.U. after   16 cycles
 SCF Done:  E(RM062X) =  -764.604616997     A.U. after   15 cycles
 SCF Done:  E(RM062X) =  -764.604892430     A.U. after   15 cycles
 SCF Done:  E(RM062X) =  -764.605044004     A.U. after   13 cycles
 SCF Done:  E(RM062X) =  -764.605104829     A.U. after   13 cycles
 SCF Done:  E(RM062X) =  -764.605122720     A.U. after   12 cycles
 SCF Done:  E(RM062X) =  -764.605125559     A.U. after   11 cycles
 SCF Done:  E(RM062X) =  -764.605126607     A.U. after   12 cycles
 SCF Done:  E(RM062X) =  -764.605126780     A.U. after    9 cycles

 Isotropic polarizability for W=    0.000000       44.27 Bohr**3.
 End of Minotr F.D. properties file   721 does not exist.

 Optimization completed on the basis of negligible forces.
    -- Stationary point found.

                          Input orientation:
 ---------------------------------------------------------------------
 Center     Atomic      Atomic             Coordinates (Angstroms)
 Number     Number       Type             X           Y           Z
 ---------------------------------------------------------------------
      1          6           0        1.357649    0.214068   -1.138467
      2          8           0        0.399402    0.138641   -1.943419
      3          6           0        1.522437   -0.696253    0.075260
      4          6           0        2.519269   -1.843915   -0.208364
      5          9           0        2.579571   -2.646868    0.839616
      6          9           0        2.110614   -2.534271   -1.265272
      7          9           0        3.723864   -1.353597   -0.452175
      8          9           0        1.982179    0.014831    1.109418
      9          9           0        0.346237   -1.236758    0.398752
     10          8           0        2.182667    1.107629   -1.447699
     11          1           0        1.213884    1.084944   -2.321457
 ---------------------------------------------------------------------

 ******    1 imaginary frequencies (negative Signs) ******

                      1                      2                      3
                      A                      A                      A
 Frequencies --  -1995.8162                12.4366                63.3288
 Red. masses --      1.0983                16.3280                16.4666
 Frc consts  --      2.5775                 0.0015                 0.0389
 IR Inten    --    353.0737                 0.0013                 0.0175

                      4                      5                      6
                      A                      A                      A
 Frequencies --    136.8258               213.3834               234.9438
 Red. masses --     11.2199                17.2594                15.6052
 Frc consts  --      0.1238                 0.4630                 0.5075
 IR Inten    --      0.5306                 2.0333                 0.0043

                      7                      8                      9
                      A                      A                      A
 Frequencies --    284.8506               362.3534               379.7106
 Red. masses --     15.9480                17.8752                16.9168
 Frc consts  --      0.7624                 1.3828                 1.4371
 IR Inten    --      2.3133                 0.0088                 0.1317

                     10                     11                     12
                      A                      A                      A
 Frequencies --    392.4606               511.7447               549.9320
 Red. masses --     14.1874                15.3398                13.8633
 Frc consts  --      1.2875                 2.3669                 2.4702
 IR Inten    --      1.1725                 4.0816                 6.9833

                     13                     14                     15
                      A                      A                      A
 Frequencies --    569.5334               620.7202               740.8854
 Red. masses --     10.7001                17.0860                 8.3275
 Frc consts  --      2.0449                 3.8787                 2.6932
 IR Inten    --     11.0852                 0.7514                 5.2202

                     16                     17                     18
                      A                      A                      A
 Frequencies --    776.8975               938.7822              1092.7961
 Red. masses --     15.7887                13.3732                12.3463
 Frc consts  --      5.6147                 6.9441                 8.6869
 IR Inten    --     34.7888               103.2899               113.9475

                     19                     20                     21
                      A                      A                      A
 Frequencies --   1177.2027              1243.2787              1274.2701
 Red. masses --      1.2427                12.7429                12.9920
 Frc consts  --      1.0147                11.6053                12.4294
 IR Inten    --     66.0211               253.0071                61.2454

                     22                     23                     24
                      A                      A                      A
 Frequencies --   1294.6067              1306.9462              1386.5753
 Red. masses --     13.2040                12.8566                12.4232
 Frc consts  --     13.0386                12.9388                14.0725
 IR Inten    --    341.2890               145.1639               117.4031

                     25                     26                     27
                      A                      A                      A
 Frequencies --   1583.1364              1728.6544              2238.4946
 Red. masses --      7.5700                 8.4728                 1.0926
 Frc consts  --     11.1785                14.9174                 3.2257
 IR Inten    --     95.6877               505.0163                73.5787

 - Thermochemistry -
 -------------------
 Temperature   298.150 Kelvin.  Pressure   1.00000 Atm.
 Atom     1 has atomic number  6 and mass  12.00000

 Molecular mass:   163.98967 amu.
 Principal axes and moments of inertia in atomic units:
                           1         2         3
     Eigenvalues --   933.876421558.785981623.76043
           X           -0.43061  -0.70097   0.56853
           Y            0.78986   0.01210   0.61316
           Z           -0.43669   0.71309   0.54846
 This molecule is an asymmetric top.
 Rotational symmetry number  1.
 Warning -- assumption of classical behavior for rotation
           may cause significant error
 Rotational temperatures (Kelvin)      0.09275     0.05556     0.05334
 Rotational constants (GHZ):           1.93253     1.15779     1.11146
    1 imaginary frequencies ignored.
 Zero-point vibrational energy     126294.3 (Joules/Mol)
                                   30.18505 (Kcal/Mol)
 Warning -- explicit consideration of  13 degrees of freedom as
           vibrations may cause significant error
 Vibrational temperatures:     17.89    91.12   196.86   307.01   338.03
          (Kelvin)            409.84   521.35   546.32   564.66   736.29
                              791.23   819.43   893.08  1065.97  1117.78
                             1350.70  1572.29  1693.73  1788.80  1833.39
                             1862.65  1880.40  1994.97  2277.78  2487.15
                             3220.69

 Zero-point correction=                           0.048103 (Hartree/Particle)
 Thermal correction to Energy=                    0.056874
 Thermal correction to Enthalpy=                  0.057818
 Thermal correction to Gibbs Free Energy=         0.011881
 Sum of electronic and zero-point Energies=           -764.557024
 Sum of electronic and thermal Energies=              -764.548253
 Sum of electronic and thermal Enthalpies=            -764.547308
 Sum of electronic and thermal Free Energies=         -764.593246

                     E (Thermal)             CV                S
                      KCal/Mol        Cal/Mol-Kelvin    Cal/Mol-Kelvin
 Total                   35.689             29.382             96.683
 Electronic               0.000              0.000              0.000
 Translational            0.889              2.981             41.192
 Rotational               0.889              2.981             29.248
 Vibrational             33.912             23.421             26.242
 Vibration     1          0.593              1.987              7.578
 Vibration     2          0.597              1.972              4.351
 Vibration     3          0.614              1.917              2.848
 Vibration     4          0.644              1.821              2.015
 Vibration     5          0.655              1.787              1.841
 Vibration     6          0.683              1.702              1.504
 Vibration     7          0.736              1.550              1.112
 Vibration     8          0.750              1.513              1.040
 Vibration     9          0.760              1.486              0.991
 Vibration    10          0.867              1.224              0.629
 Vibration    11          0.905              1.140              0.544
 Vibration    12          0.926              1.097              0.505
 Vibration    13          0.981              0.988              0.415

 Normal termination of Gaussian 16 at Sat May 24 04:06:34 2025.
