 Gaussian 16, Revision C.01,
 Gaussian 16:  ES64L-G16RevC.01  3-Jul-2019

 ----------------------------------------------------------------------
 #P M062X/Def2TZVPP Symm(None) scf(xqc) pop(None) geom(AllCheck,NoKeepC
 onstants) guess(Read) irc(RCFC,forward,MaxPoints=100,StepSize=2)
 ----------------------------------------------------------------------

 Structure from the checkpoint file:  "1642764945472630600001_intra_H_migration_suprafacial_2_11_IRC_F.chk"
 ------------------------------
 Gaussian input prepared by ASE
 ------------------------------
 Charge =  0 Multiplicity = 1

 SCF Done:  E(RM062X) =  -764.605159807     A.U. after    9 cycles
 SCF Done:  E(RM062X) =  -764.605258719     A.U. after   10 cycles
 SCF Done:  E(RM062X) =  -764.605423039     A.U. after   10 cycles
 SCF Done:  E(RM062X) =  -764.605651923     A.U. after   10 cycles
 SCF Done:  E(RM062X) =  -764.605944146     A.U. after   10 cycles
 SCF Done:  E(RM062X) =  -764.606298117     A.U. after   10 cycles
 SCF Done:  E(RM062X) =  -764.606711948     A.U. after   10 cycles
 SCF Done:  E(RM062X) =  -764.607183560     A.U. after   10 cycles
 SCF Done:  E(RM062X) =  -764.607710779     A.U. after   10 cycles
 SCF Done:  E(RM062X) =  -764.608291418     A.U. after   10 cycles
 SCF Done:  E(RM062X) =  -764.664312403     A.U. after    8 cycles
 SCF Done:  E(RM062X) =  -764.664501257     A.U. after    8 cycles
 SCF Done:  E(RM062X) =  -764.664682630     A.U. after    8 cycles
 SCF Done:  E(RM062X) =  -764.664856666     A.U. after    8 cycles
 SCF Done:  E(RM062X) =  -764.665023511     A.U. after    8 cycles
 SCF Done:  E(RM062X) =  -764.665183312     A.U. after    8 cycles
 SCF Done:  E(RM062X) =  -764.665336221     A.U. after    8 cycles
 SCF Done:  E(RM062X) =  -764.665482393     A.U. after    8 cycles
 SCF Done:  E(RM062X) =  -764.665621986     A.U. after    8 cycles
 SCF Done:  E(RM062X) =  -764.665755166     A.U. after    8 cycles

                          Input orientation:
 ---------------------------------------------------------------------
 Center     Atomic      Atomic             Coordinates (Angstroms)
 Number     Number       Type             X           Y           Z
 ---------------------------------------------------------------------
      1          6           0       -0.487429    1.216295   -0.796965
      2          8           0       -1.540934    1.049986   -1.582012
      3          6           0       -0.378854    0.253622    0.427114
      4          6           0        0.618556   -0.898377    0.156131
      5          9           0        0.679912   -1.705503    1.203952
      6          9           0        0.211238   -1.593811   -0.900884
      7          9           0        1.825214   -0.414237   -0.086940
      8          9           0        0.081302    0.953332    1.471515
      9          9           0       -1.554305   -0.293230    0.758391
     10          8           0        0.340611    2.040488   -1.018912
     11          1           0       -1.438853    1.706950   -2.286641
 ---------------------------------------------------------------------

 Normal termination of Gaussian 16 at Sat May 24 05:21:30 2025.
