 Gaussian 16, Revision C.01,
 Gaussian 16:  ES64L-G16RevC.01  3-Jul-2019

 -----------------------------------------------------------
 #P mp2/6-31G Symm(None) scf(xqc) pop(None) freq opt(CalcFC)
 -----------------------------------------------------------

 ------------------------------
 Gaussian input prepared by ASE
 ------------------------------
 Symbolic Z-matrix:
 Charge =  0 Multiplicity = 1

 SCF Done:  E(RHF) =  -760.814621664     A.U. after   15 cycles
 E2 =    -0.1106484510D+01 EUMP2 =    -0.76192110617397D+03
 E2 =    -0.1106484510D+01 EUMP2 =    -0.76192110617397D+03
 SCF Done:  E(RHF) =  -760.812206704     A.U. after   14 cycles
 E2 =    -0.1136590944D+01 EUMP2 =    -0.76194879764788D+03
 SCF Done:  E(RHF) =  -760.805410682     A.U. after   16 cycles
 E2 =    -0.1145062071D+01 EUMP2 =    -0.76195047275277D+03
 SCF Done:  E(RHF) =  -760.804475107     A.U. after   14 cycles
 E2 =    -0.1145981866D+01 EUMP2 =    -0.76195045697254D+03
 SCF Done:  E(RHF) =  -760.805290874     A.U. after   13 cycles
 E2 =    -0.1145243464D+01 EUMP2 =    -0.76195053433751D+03
 SCF Done:  E(RHF) =  -760.805389341     A.U. after   12 cycles
 E2 =    -0.1145146128D+01 EUMP2 =    -0.76195053546921D+03
 SCF Done:  E(RHF) =  -760.805384353     A.U. after   11 cycles
 E2 =    -0.1145151636D+01 EUMP2 =    -0.76195053598899D+03
 Optimization completed.
    -- Stationary point found.
 Normal termination of Gaussian 16 at Fri May 23 23:16:38 2025.

 -------------------------------------------------------------------
 #P Geom=AllCheck Guess=TCheck SCRF=Check GenChk RMP2(FC)/6-31G Freq
 -------------------------------------------------------------------

 Structure from the checkpoint file:  "1642764945472630600001_well_mp2.chk"
 ------------------------------
 Gaussian input prepared by ASE
 ------------------------------
 Charge =  0 Multiplicity = 1

                          Input orientation:
 ---------------------------------------------------------------------
 Center     Atomic      Atomic             Coordinates (Angstroms)
 Number     Number       Type             X           Y           Z
 ---------------------------------------------------------------------
      1          6           0        1.228648    0.241388   -0.155046
      2          8           0        2.002824    0.662443   -1.030050
      3          6           0       -0.234773    0.681933    0.006045
      4          6           0       -1.277138   -0.444938   -0.128091
      5          9           0       -2.556925    0.076985   -0.283242
      6          9           0       -0.964358   -1.208303   -1.260462
      7          9           0       -1.272785   -1.278693    0.982796
      8          9           0       -0.410676    1.291076    1.271475
      9          9           0       -0.517389    1.633796   -0.991649
     10          8           0        1.533321   -0.677569    0.825969
     11          1           0        2.469252   -0.978115    0.762257
 ---------------------------------------------------------------------

 SCF Done:  E(RHF) =  -760.805384353     A.U. after    1 cycles
 E2 =    -0.1145151634D+01 EUMP2 =    -0.76195053598698D+03
 E2 =    -0.1145151634D+01 EUMP2 =    -0.76195053598698D+03

                      1                      2                      3
                      A                      A                      A
 Frequencies --     44.9291                64.9041               153.4184
 Red. masses --     12.1272                17.2588                10.5321
 Frc consts  --      0.0144                 0.0428                 0.1461
 IR Inten    --      1.1305                 0.2249                 1.8223

                      4                      5                      6
                      A                      A                      A
 Frequencies --    216.0266               242.3696               283.5933
 Red. masses --     17.0118                11.5815                14.5255
 Frc consts  --      0.4678                 0.4008                 0.6883
 IR Inten    --      2.7451                 0.9468                 2.0006

                      7                      8                      9
                      A                      A                      A
 Frequencies --    340.9476               363.7845               370.2241
 Red. masses --     18.2402                17.2317                13.1306
 Frc consts  --      1.2493                 1.3436                 1.0604
 IR Inten    --      0.0722                 0.8189                 2.2448

                     10                     11                     12
                      A                      A                      A
 Frequencies --    455.7037               496.0245               536.0716
 Red. masses --     11.0914                14.1241                 5.6795
 Frc consts  --      1.3571                 2.0475                 0.9616
 IR Inten    --      8.6315                15.0670                12.6016

                     13                     14                     15
                      A                      A                      A
 Frequencies --    584.5997               615.2821               649.5748
 Red. masses --      6.2735                 1.6203                 5.4223
 Frc consts  --      1.2632                 0.3614                 1.3480
 IR Inten    --     13.6310               146.2577                97.1689

                     16                     17                     18
                      A                      A                      A
 Frequencies --    710.6945               733.8132              1008.2438
 Red. masses --     10.0567                 9.3884                13.1923
 Frc consts  --      2.9927                 2.9786                 7.9014
 IR Inten    --      8.0488                23.1814               148.7223

                     19                     20                     21
                      A                      A                      A
 Frequencies --   1089.9408              1148.8168              1181.9251
 Red. masses --      4.0467                 6.7238                 7.3019
 Frc consts  --      2.8324                 5.2284                 6.0099
 IR Inten    --    287.2205               164.2699               100.1164

                     22                     23                     24
                      A                      A                      A
 Frequencies --   1206.2815              1224.2417              1328.0375
 Red. masses --     10.7054                 5.4276                12.2228
 Frc consts  --      9.1781                 4.7928                12.7011
 IR Inten    --    162.6516                98.4040                53.4717

                     25                     26                     27
                      A                      A                      A
 Frequencies --   1399.8445              1700.5614              3607.1617
 Red. masses --      3.0427                10.5862                 1.0645
 Frc consts  --      3.5130                18.0374                 8.1609
 IR Inten    --     49.2666               157.2694                93.2276

 - Thermochemistry -
 -------------------
 Temperature   298.150 Kelvin.  Pressure   1.00000 Atm.
 Atom     1 has atomic number  6 and mass  12.00000

 Molecular mass:   163.98967 amu.
 Principal axes and moments of inertia in atomic units:
                           1         2         3
     Eigenvalues --  1007.159971577.139921713.21895
           X            0.96988  -0.23402  -0.06763
           Y            0.24203   0.89441   0.37610
           Z           -0.02753  -0.38114   0.92411
 This molecule is an asymmetric top.
 Rotational symmetry number  1.
 Warning -- assumption of classical behavior for rotation
           may cause significant error
 Rotational temperatures (Kelvin)      0.08600     0.05492     0.05056
 Rotational constants (GHZ):           1.79191     1.14431     1.05342
 Zero-point vibrational energy     130135.9 (Joules/Mol)
                                   31.10322 (Kcal/Mol)
 Warning -- explicit consideration of  14 degrees of freedom as
           vibrations may cause significant error
 Vibrational temperatures:     64.64    93.38   220.73   310.81   348.72
          (Kelvin)            408.03   490.55   523.40   532.67   655.66
                              713.67   771.29   841.11   885.25   934.59
                             1022.53  1055.79  1450.64  1568.18  1652.89
                             1700.53  1735.57  1761.41  1910.75  2014.06
                             2446.73  5189.90

 Zero-point correction=                           0.049566 (Hartree/Particle)
 Thermal correction to Energy=                    0.058717
 Thermal correction to Enthalpy=                  0.059661
 Thermal correction to Gibbs Free Energy=         0.014307
 Sum of electronic and zero-point Energies=           -761.900970
 Sum of electronic and thermal Energies=              -761.891819
 Sum of electronic and thermal Enthalpies=            -761.890875
 Sum of electronic and thermal Free Energies=         -761.936229

                     E (Thermal)             CV                S
                      KCal/Mol        Cal/Mol-Kelvin    Cal/Mol-Kelvin
 Total                   36.845             31.908             95.455
 Electronic               0.000              0.000              0.000
 Translational            0.889              2.981             41.192
 Rotational               0.889              2.981             29.388
 Vibrational             35.068             25.947             24.874
 Vibration     1          0.595              1.979              5.029
 Vibration     2          0.597              1.971              4.302
 Vibration     3          0.619              1.899              2.629
 Vibration     4          0.645              1.817              1.992
 Vibration     5          0.659              1.775              1.785
 Vibration     6          0.682              1.704              1.512
 Vibration     7          0.720              1.594              1.208
 Vibration     8          0.737              1.547              1.106
 Vibration     9          0.742              1.533              1.079
 Vibration    10          0.814              1.348              0.779
 Vibration    11          0.852              1.259              0.668
 Vibration    12          0.891              1.170              0.574
 Vibration    13          0.942              1.065              0.477
 Vibration    14          0.975              1.000              0.424

                           ! Non-Optimized Parameters !
 Normal termination of Gaussian 16 at Fri May 23 23:16:58 2025.
