 Gaussian 16, Revision C.01,
 Gaussian 16:  ES64L-G16RevC.01  3-Jul-2019

 -----------------------------------------------------------------
 #P M062X/Def2TZVPP Symm(None) scf(xqc) pop(None) freq opt(CalcFC)
 -----------------------------------------------------------------

 ------------------------------
 Gaussian input prepared by ASE
 ------------------------------
 Symbolic Z-matrix:
 Charge =  0 Multiplicity = 1

 SCF Done:  E(RM062X) =  -764.585602932     A.U. after   13 cycles
 SCF Done:  E(RM062X) =  -764.596449758     A.U. after   14 cycles
 SCF Done:  E(RM062X) =  -764.592073321     A.U. after   14 cycles
 SCF Done:  E(RM062X) =  -764.597159391     A.U. after   12 cycles
 SCF Done:  E(RM062X) =  -764.597194271     A.U. after   11 cycles
 SCF Done:  E(RM062X) =  -764.597272144     A.U. after   12 cycles
 SCF Done:  E(RM062X) =  -764.597508816     A.U. after   13 cycles
 SCF Done:  E(RM062X) =  -764.597670912     A.U. after   12 cycles
 SCF Done:  E(RM062X) =  -764.597864621     A.U. after   11 cycles
 SCF Done:  E(RM062X) =  -764.597934482     A.U. after   13 cycles
 SCF Done:  E(RM062X) =  -764.597996187     A.U. after   11 cycles
 SCF Done:  E(RM062X) =  -764.598014868     A.U. after    9 cycles
 SCF Done:  E(RM062X) =  -764.598018495     A.U. after    8 cycles
 Optimization completed.
    -- Stationary point found.
 Normal termination of Gaussian 16 at Sat May 24 03:33:44 2025.

 ---------------------------------------------------------------------
 #P Geom=AllCheck Guess=TCheck SCRF=Check GenChk RM062X/def2TZVPP Freq
 ---------------------------------------------------------------------

 Structure from the checkpoint file:  "1642764945472630600001_r12_insertion_R_3_4_5_IRC_F_prod.chk"
 ------------------------------
 Gaussian input prepared by ASE
 ------------------------------
 Charge =  0 Multiplicity = 1

                          Input orientation:
 ---------------------------------------------------------------------
 Center     Atomic      Atomic             Coordinates (Angstroms)
 Number     Number       Type             X           Y           Z
 ---------------------------------------------------------------------
      1          6           0        1.701672    0.689857   -0.815312
      2          8           0        1.363504   -0.158898    0.185585
      3          6           0       -1.054219   -0.082585   -0.338548
      4          6           0        0.092885   -0.024147    0.710789
      5          9           0       -2.187065   -0.359848    0.295139
      6          9           0       -0.061017   -1.047197    1.544375
      7          9           0       -0.013127    1.108907    1.398306
      8          9           0       -1.199396    1.061626   -0.974834
      9          9           0       -0.807001   -1.048511   -1.214041
     10          8           0        2.930198    0.428854   -1.115184
     11          1           0        3.312512   -0.285398   -0.568530
 ---------------------------------------------------------------------

 SCF Done:  E(RM062X) =  -764.598018495     A.U. after    1 cycles

 Isotropic polarizability for W=    0.000000       46.87 Bohr**3.
 End of Minotr F.D. properties file   721 does not exist.

                      1                      2                      3
                      A                      A                      A
 Frequencies --     35.2215                90.7278               120.0577
 Red. masses --     13.2743                 7.1376                 6.4024
 Frc consts  --      0.0097                 0.0346                 0.0544
 IR Inten    --      6.0359                15.8422                 6.5734

                      4                      5                      6
                      A                      A                      A
 Frequencies --    179.4575               228.6439               266.4678
 Red. masses --     11.4312                18.4480                14.2764
 Frc consts  --      0.2169                 0.5682                 0.5973
 IR Inten    --      3.2314                 1.7663                10.1844

                      7                      8                      9
                      A                      A                      A
 Frequencies --    356.8802               377.5191               396.5554
 Red. masses --     17.6239                13.9166                14.0662
 Frc consts  --      1.3225                 1.1686                 1.3033
 IR Inten    --      0.2086                 2.0514                 1.8304

                     10                     11                     12
                      A                      A                      A
 Frequencies --    439.9850               533.9159               558.1239
 Red. masses --     10.4205                14.9772                13.5705
 Frc consts  --      1.1885                 2.5155                 2.4906
 IR Inten    --      7.0736                 2.6687                 2.8889

                     13                     14                     15
                      A                      A                      A
 Frequencies --    626.3876               690.6718               752.4913
 Red. masses --     15.2753                16.2209                 9.5533
 Frc consts  --      3.5312                 4.5590                 3.1872
 IR Inten    --      1.3589                12.0764                27.8283

                     16                     17                     18
                      A                      A                      A
 Frequencies --    783.8930               850.5164              1112.6420
 Red. masses --      1.3060                 8.0705                 5.9254
 Frc consts  --      0.4728                 3.4397                 4.3219
 IR Inten    --    115.5631                13.8880               100.8455

                     19                     20                     21
                      A                      A                      A
 Frequencies --   1146.3894              1224.5086              1281.8871
 Red. masses --     11.6543                 5.4095                12.6573
 Frc consts  --      9.0240                 4.7789                12.2544
 IR Inten    --    423.3575               575.3354               351.1147

                     22                     23                     24
                      A                      A                      A
 Frequencies --   1288.1139              1308.1412              1366.4465
 Red. masses --     11.6678                11.6373                 2.1430
 Frc consts  --     11.4064                11.7331                 2.3576
 IR Inten    --    142.4837               340.0971               108.5288

                     25                     26                     27
                      A                      A                      A
 Frequencies --   1417.1632              1440.1805              3617.7563
 Red. masses --      8.5541                 8.7557                 1.0624
 Frc consts  --     10.1220                10.6998                 8.1927
 IR Inten    --     45.8274                20.2509                24.2675

 - Thermochemistry -
 -------------------
 Temperature   298.150 Kelvin.  Pressure   1.00000 Atm.
 Atom     1 has atomic number  6 and mass  12.00000

 Molecular mass:   163.98967 amu.
 Principal axes and moments of inertia in atomic units:
                           1         2         3
     Eigenvalues --   900.016291645.227651892.21373
           X            0.97285   0.19296  -0.12782
           Y            0.14707  -0.08890   0.98512
           Z           -0.17872   0.97717   0.11487
 This molecule is an asymmetric top.
 Rotational symmetry number  1.
 Warning -- assumption of classical behavior for rotation
           may cause significant error
 Rotational temperatures (Kelvin)      0.09624     0.05265     0.04577
 Rotational constants (GHZ):           2.00523     1.09696     0.95377
 Zero-point vibrational energy     134524.5 (Joules/Mol)
                                   32.15213 (Kcal/Mol)
 Warning -- explicit consideration of  12 degrees of freedom as
           vibrations may cause significant error
 Vibrational temperatures:     50.68   130.54   172.74   258.20   328.97
          (Kelvin)            383.39   513.47   543.17   570.55   633.04
                              768.19   803.02   901.23   993.72  1082.67
                             1127.85  1223.70  1600.84  1649.40  1761.79
                             1844.35  1853.31  1882.12  1966.01  2038.98
                             2072.10  5205.14

 Zero-point correction=                           0.051238 (Hartree/Particle)
 Thermal correction to Energy=                    0.060236
 Thermal correction to Enthalpy=                  0.061180
 Thermal correction to Gibbs Free Energy=         0.015829
 Sum of electronic and zero-point Energies=           -764.546781
 Sum of electronic and thermal Energies=              -764.537782
 Sum of electronic and thermal Enthalpies=            -764.536838
 Sum of electronic and thermal Free Energies=         -764.582189

                     E (Thermal)             CV                S
                      KCal/Mol        Cal/Mol-Kelvin    Cal/Mol-Kelvin
 Total                   37.799             30.740             95.450
 Electronic               0.000              0.000              0.000
 Translational            0.889              2.981             41.192
 Rotational               0.889              2.981             29.417
 Vibrational             36.021             24.778             24.840
 Vibration     1          0.594              1.982              5.511
 Vibration     2          0.602              1.956              3.644
 Vibration     3          0.609              1.933              3.099
 Vibration     4          0.629              1.868              2.334
 Vibration     5          0.651              1.797              1.890
 Vibration     6          0.672              1.735              1.619
 Vibration     7          0.732              1.561              1.136
 Vibration     8          0.748              1.518              1.049
 Vibration     9          0.763              1.478              0.975
 Vibration    10          0.800              1.383              0.827
 Vibration    11          0.889              1.175              0.579
 Vibration    12          0.914              1.122              0.528

                           ! Non-Optimized Parameters !
 Normal termination of Gaussian 16 at Sat May 24 03:37:01 2025.
