 Gaussian 16, Revision C.01,
 Gaussian 16:  ES64L-G16RevC.01  3-Jul-2019

 ----------------------------------------------------------------------
 #P M062X/Def2TZVPP Symm(None) scf(xqc) pop(None) opt(NoFreeze,TS,CalcA
 ll,NoEigentest,MaxCycle=999)
 ----------------------------------------------------------------------

 ------------------------------
 Gaussian input prepared by ASE
 ------------------------------
 Symbolic Z-matrix:
 Charge =  0 Multiplicity = 1

 SCF Done:  E(RM062X) =  -764.398183324     A.U. after   17 cycles
 SCF Done:  E(RM062X) =  -764.437396199     A.U. after   16 cycles
 SCF Done:  E(RM062X) =  -764.471433052     A.U. after   16 cycles
 SCF Done:  E(RM062X) =  -764.490771678     A.U. after   14 cycles
 SCF Done:  E(RM062X) =  -764.491147014     A.U. after    9 cycles
 SCF Done:  E(RM062X) =  -764.497819871     A.U. after   13 cycles
 SCF Done:  E(RM062X) =  -764.510587906     A.U. after   14 cycles
 SCF Done:  E(RM062X) =  -764.512028408     A.U. after   14 cycles
 SCF Done:  E(RM062X) =  -764.512288016     A.U. after   13 cycles
 SCF Done:  E(RM062X) =  -764.512648360     A.U. after   13 cycles
 SCF Done:  E(RM062X) =  -764.512492416     A.U. after   15 cycles
 SCF Done:  E(RM062X) =  -764.512537894     A.U. after   14 cycles
 SCF Done:  E(RM062X) =  -764.512541722     A.U. after   12 cycles
 SCF Done:  E(RM062X) =  -764.512556868     A.U. after   12 cycles
 SCF Done:  E(RM062X) =  -764.512557056     A.U. after    8 cycles

 Isotropic polarizability for W=    0.000000       49.42 Bohr**3.
 End of Minotr F.D. properties file   721 does not exist.

 Optimization completed.
    -- Stationary point found.

                          Input orientation:
 ---------------------------------------------------------------------
 Center     Atomic      Atomic             Coordinates (Angstroms)
 Number     Number       Type             X           Y           Z
 ---------------------------------------------------------------------
      1          6           0        1.360333    0.889441   -0.096467
      2          8           0        1.619192   -0.256890   -0.573678
      3          6           0        0.075327   -0.381798    0.187600
      4          6           0       -0.623849    0.268400    1.425144
      5          9           0       -1.107338    1.457525    1.129710
      6          9           0       -1.631671   -0.507617    1.813005
      7          9           0        0.240836    0.372386    2.424105
      8          9           0       -0.727512   -0.323257   -0.845921
      9          9           0        0.261791   -1.654507    0.556504
     10          8           0        2.327798    1.759549   -0.066892
     11          1           0        3.134590    1.348175   -0.441010
 ---------------------------------------------------------------------

 ******    1 imaginary frequencies (negative Signs) ******

                      1                      2                      3
                      A                      A                      A
 Frequencies --   -757.5325                66.3641                71.6094
 Red. masses --     12.8459                10.3678                14.7055
 Frc consts  --      4.3433                 0.0269                 0.0444
 IR Inten    --     63.3091                 1.3975                 1.8850

                      4                      5                      6
                      A                      A                      A
 Frequencies --    119.4145               215.8606               253.7947
 Red. masses --      7.7263                 8.6601                 9.8534
 Frc consts  --      0.0649                 0.2378                 0.3739
 IR Inten    --      2.1557                 1.6605                12.0289

                      7                      8                      9
                      A                      A                      A
 Frequencies --    326.3867               362.0033               375.0353
 Red. masses --     10.4893                16.2207                14.0237
 Frc consts  --      0.6584                 1.2524                 1.1621
 IR Inten    --     19.1231                19.3462                 2.7557

                     10                     11                     12
                      A                      A                      A
 Frequencies --    417.8914               471.8427               561.3096
 Red. masses --     15.2150                15.0542                15.2732
 Frc consts  --      1.5655                 1.9747                 2.8352
 IR Inten    --     12.1409                 4.9077                44.0914

                     13                     14                     15
                      A                      A                      A
 Frequencies --    598.1826               616.3588               679.0155
 Red. masses --      9.0458                 7.7862                 7.9825
 Frc consts  --      1.9071                 1.7428                 2.1684
 IR Inten    --     24.2645                64.3011               180.9376

                     16                     17                     18
                      A                      A                      A
 Frequencies --    718.3601               754.4148               859.9283
 Red. masses --      1.5216                 6.5414                12.6252
 Frc consts  --      0.4626                 2.1935                 5.5006
 IR Inten    --    115.6957                66.4860               180.8820

                     19                     20                     21
                      A                      A                      A
 Frequencies --   1041.1105              1216.9076              1246.9394
 Red. masses --     13.3951                 2.0135                12.5216
 Frc consts  --      8.5544                 1.7568                11.4710
 IR Inten    --    157.6406               141.4270               232.0988

                     22                     23                     24
                      A                      A                      A
 Frequencies --   1275.5915              1311.4162              1342.1997
 Red. masses --      9.1160                12.7998                10.6543
 Frc consts  --      8.7393                12.9698                11.3086
 IR Inten    --    270.9368               180.9874               224.4450

                     25                     26                     27
                      A                      A                      A
 Frequencies --   1395.2385              1580.5691              3593.7114
 Red. masses --      5.0943                 7.8222                 1.0619
 Frc consts  --      5.8430                11.5135                 8.0800
 IR Inten    --     56.0762               246.9769                28.6463

 - Thermochemistry -
 -------------------
 Temperature   298.150 Kelvin.  Pressure   1.00000 Atm.
 Atom     1 has atomic number  6 and mass  12.00000

 Molecular mass:   163.98967 amu.
 Principal axes and moments of inertia in atomic units:
                           1         2         3
     Eigenvalues --   947.513021500.532471802.44332
           X            0.81275   0.10200   0.57361
           Y            0.24912   0.82917  -0.50042
           Z           -0.52666   0.54962   0.64850
 This molecule is an asymmetric top.
 Rotational symmetry number  1.
 Warning -- assumption of classical behavior for rotation
           may cause significant error
 Rotational temperatures (Kelvin)      0.09141     0.05772     0.04805
 Rotational constants (GHZ):           1.90471     1.20273     1.00127
    1 imaginary frequencies ignored.
 Zero-point vibrational energy     128427.8 (Joules/Mol)
                                   30.69499 (Kcal/Mol)
 Warning -- explicit consideration of  13 degrees of freedom as
           vibrations may cause significant error
 Vibrational temperatures:     95.48   103.03   171.81   310.58   365.15
          (Kelvin)            469.60   520.84   539.59   601.25   678.88
                              807.60   860.65   886.80   976.95  1033.56
                             1085.43  1237.24  1497.93  1750.86  1794.07
                             1835.29  1886.84  1931.13  2007.44  2274.09
                             5170.55

 Zero-point correction=                           0.048916 (Hartree/Particle)
 Thermal correction to Energy=                    0.057646
 Thermal correction to Enthalpy=                  0.058590
 Thermal correction to Gibbs Free Energy=         0.014184
 Sum of electronic and zero-point Energies=           -764.463641
 Sum of electronic and thermal Energies=              -764.454911
 Sum of electronic and thermal Enthalpies=            -764.453967
 Sum of electronic and thermal Free Energies=         -764.498373

                     E (Thermal)             CV                S
                      KCal/Mol        Cal/Mol-Kelvin    Cal/Mol-Kelvin
 Total                   36.173             30.245             93.460
 Electronic               0.000              0.000              0.000
 Translational            0.889              2.981             41.192
 Rotational               0.889              2.981             29.329
 Vibrational             34.396             24.283             22.939
 Vibration     1          0.598              1.970              4.258
 Vibration     2          0.598              1.968              4.109
 Vibration     3          0.609              1.933              3.110
 Vibration     4          0.645              1.817              1.994
 Vibration     5          0.665              1.756              1.704
 Vibration     6          0.710              1.623              1.278
 Vibration     7          0.736              1.551              1.113
 Vibration     8          0.746              1.523              1.059
 Vibration     9          0.781              1.431              0.899
 Vibration    10          0.829              1.313              0.732
 Vibration    11          0.917              1.115              0.521
 Vibration    12          0.956              1.036              0.453
 Vibration    13          0.976              0.997              0.422

 Normal termination of Gaussian 16 at Sat May 24 03:07:53 2025.
