 Gaussian 16, Revision C.01,
 Gaussian 16:  ES64L-G16RevC.01  3-Jul-2019

 ----------------------------------------------------------------------
 #P M062X/Def2TZVPP Symm(None) scf(xqc) pop(None) geom(AllCheck,NoKeepC
 onstants) guess(Read) irc(RCFC,reverse,MaxPoints=100,StepSize=2)
 ----------------------------------------------------------------------

 Structure from the checkpoint file:  "1642764945472630600001_r12_insertion_R_5_4_6_IRC_R.chk"
 ------------------------------
 Gaussian input prepared by ASE
 ------------------------------
 Charge =  0 Multiplicity = 1

 SCF Done:  E(RM062X) =  -764.552289750     A.U. after   10 cycles
 SCF Done:  E(RM062X) =  -764.552380858     A.U. after   11 cycles
 SCF Done:  E(RM062X) =  -764.552535746     A.U. after   11 cycles
 SCF Done:  E(RM062X) =  -764.552757039     A.U. after   11 cycles
 SCF Done:  E(RM062X) =  -764.553047783     A.U. after   11 cycles
 SCF Done:  E(RM062X) =  -764.553411615     A.U. after   11 cycles
 SCF Done:  E(RM062X) =  -764.553852942     A.U. after   11 cycles
 SCF Done:  E(RM062X) =  -764.554376931     A.U. after   11 cycles
 SCF Done:  E(RM062X) =  -764.554989097     A.U. after   11 cycles
 SCF Done:  E(RM062X) =  -764.555694467     A.U. after   11 cycles
 SCF Done:  E(RM062X) =  -764.646759024     A.U. after    9 cycles
 SCF Done:  E(RM062X) =  -764.646982259     A.U. after    9 cycles
 SCF Done:  E(RM062X) =  -764.647193107     A.U. after    9 cycles
 SCF Done:  E(RM062X) =  -764.647392233     A.U. after    9 cycles
 SCF Done:  E(RM062X) =  -764.647580187     A.U. after    9 cycles
 SCF Done:  E(RM062X) =  -764.647757431     A.U. after    9 cycles
 SCF Done:  E(RM062X) =  -764.647924352     A.U. after    9 cycles
 SCF Done:  E(RM062X) =  -764.648081288     A.U. after    9 cycles
 SCF Done:  E(RM062X) =  -764.648228536     A.U. after    9 cycles
 SCF Done:  E(RM062X) =  -764.648366367     A.U. after    9 cycles

                          Input orientation:
 ---------------------------------------------------------------------
 Center     Atomic      Atomic             Coordinates (Angstroms)
 Number     Number       Type             X           Y           Z
 ---------------------------------------------------------------------
      1          6           0        1.324859   -0.517447   -0.785501
      2          8           0        1.588930   -1.176556   -1.733191
      3          6           0       -0.191978   -0.197923   -0.532665
      4          6           0       -0.622362    0.421625    0.864477
      5          9           0       -1.428195   -0.392715    1.511539
      6          9           0        0.432041    0.636578    1.684789
      7          9           0       -1.206404    1.591063    0.699690
      8          9           0       -0.574508    0.654802   -1.496202
      9          9           0       -0.878545   -1.329079   -0.708546
     10          8           0        2.251244   -0.010453    0.015886
     11          1           0        1.891023    0.459328    0.772626
 ---------------------------------------------------------------------

 Normal termination of Gaussian 16 at Sat May 24 06:42:57 2025.
