 Gaussian 16, Revision C.01,
 Gaussian 16:  ES64L-G16RevC.01  3-Jul-2019

 -----------------------------------------------------------------
 #P M062X/Def2TZVPP Symm(None) scf(xqc) pop(None) freq opt(CalcFC)
 -----------------------------------------------------------------

 ------------------------------
 Gaussian input prepared by ASE
 ------------------------------
 Symbolic Z-matrix:
 Charge =  0 Multiplicity = 1

 SCF Done:  E(RM062X) =  -764.638121882     A.U. after   14 cycles
 SCF Done:  E(RM062X) =  -764.660012416     A.U. after   13 cycles
 SCF Done:  E(RM062X) =  -764.666040162     A.U. after   12 cycles
 SCF Done:  E(RM062X) =  -764.667501032     A.U. after   14 cycles
 SCF Done:  E(RM062X) =  -764.667650167     A.U. after   11 cycles
 SCF Done:  E(RM062X) =  -764.667954642     A.U. after   11 cycles
 SCF Done:  E(RM062X) =  -764.668020941     A.U. after   11 cycles
 SCF Done:  E(RM062X) =  -764.668155822     A.U. after   13 cycles
 SCF Done:  E(RM062X) =  -764.668218677     A.U. after   12 cycles
 SCF Done:  E(RM062X) =  -764.668254182     A.U. after   12 cycles
 SCF Done:  E(RM062X) =  -764.668259596     A.U. after   12 cycles
 SCF Done:  E(RM062X) =  -764.668261320     A.U. after   11 cycles
 SCF Done:  E(RM062X) =  -764.668261479     A.U. after    9 cycles
 SCF Done:  E(RM062X) =  -764.668261490     A.U. after    7 cycles
 Optimization completed.
    -- Stationary point found.
 Normal termination of Gaussian 16 at Sat May 24 04:26:38 2025.

 ---------------------------------------------------------------------
 #P Geom=AllCheck Guess=TCheck SCRF=Check GenChk RM062X/def2TZVPP Freq
 ---------------------------------------------------------------------

 Structure from the checkpoint file:  "1642764945472630600001_r12_insertion_R_1_3_8_IRC_F_prod.chk"
 ------------------------------
 Gaussian input prepared by ASE
 ------------------------------
 Charge =  0 Multiplicity = 1

                          Input orientation:
 ---------------------------------------------------------------------
 Center     Atomic      Atomic             Coordinates (Angstroms)
 Number     Number       Type             X           Y           Z
 ---------------------------------------------------------------------
      1          6           0        1.418259   -0.187577   -0.542081
      2          8           0        2.072581   -1.178883   -0.530032
      3          6           0       -0.125793   -0.203556   -0.561124
      4          6           0       -0.740300    0.171673    0.805064
      5          9           0       -2.052804    0.007620    0.768920
      6          9           0       -0.231430   -0.611547    1.749893
      7          9           0       -0.473879    1.433973    1.107073
      8          9           0       -0.589060    0.660230   -1.477118
      9          9           0       -0.539765   -1.432101   -0.870632
     10          8           0        1.872329    1.061428   -0.530579
     11          1           0        2.839024    1.034119   -0.505060
 ---------------------------------------------------------------------

 SCF Done:  E(RM062X) =  -764.668261490     A.U. after    1 cycles

 Isotropic polarizability for W=    0.000000       43.86 Bohr**3.
 End of Minotr F.D. properties file   721 does not exist.

                      1                      2                      3
                      A                      A                      A
 Frequencies --     19.2854                65.2500               144.5203
 Red. masses --     12.9644                16.4055                10.2168
 Frc consts  --      0.0028                 0.0412                 0.1257
 IR Inten    --      1.4159                 0.4260                 0.9903

                      4                      5                      6
                      A                      A                      A
 Frequencies --    216.2593               248.7469               287.9069
 Red. masses --     17.3578                12.1696                14.6893
 Frc consts  --      0.4783                 0.4437                 0.7174
 IR Inten    --      1.5558                 1.1686                 1.4389

                      7                      8                      9
                      A                      A                      A
 Frequencies --    359.8978               379.9945               384.5101
 Red. masses --     16.5096                15.5530                13.6594
 Frc consts  --      1.2599                 1.3232                 1.1899
 IR Inten    --      0.3849                 0.8295                 0.6177

                     10                     11                     12
                      A                      A                      A
 Frequencies --    503.8350               548.2200               552.6141
 Red. masses --      7.7655                 4.3520                 3.2898
 Frc consts  --      1.1614                 0.7706                 0.5919
 IR Inten    --      5.9777                19.3947                17.0666

                     13                     14                     15
                      A                      A                      A
 Frequencies --    616.6320               636.3908               692.8269
 Red. masses --      7.0388                 3.1899                 4.5562
 Frc consts  --      1.5769                 0.7612                 1.2886
 IR Inten    --     16.8786                75.7401               101.6571

                     16                     17                     18
                      A                      A                      A
 Frequencies --    789.4889               797.9977              1062.3894
 Red. masses --     12.2834                 8.6861                11.7325
 Frc consts  --      4.5109                 3.2589                 7.8020
 IR Inten    --      2.4883                21.1804               124.2653

                     19                     20                     21
                      A                      A                      A
 Frequencies --   1187.4812              1229.7283              1277.3779
 Red. masses --      3.0559                 4.2852                10.3530
 Frc consts  --      2.5389                 3.8181                 9.9531
 IR Inten    --    245.6057               186.7571                41.9734

                     22                     23                     24
                      A                      A                      A
 Frequencies --   1290.1480              1296.9891              1383.1233
 Red. masses --     13.3128                 7.5844                 7.8222
 Frc consts  --     13.0557                 7.5170                 8.8166
 IR Inten    --    361.1818               147.4106               127.1077

                     25                     26                     27
                      A                      A                      A
 Frequencies --   1436.0916              1920.8601              3808.4059
 Red. masses --      5.1515                11.7405                 1.0646
 Frc consts  --      6.2597                25.5228                 9.0978
 IR Inten    --     54.0710               330.9165               129.6069

 - Thermochemistry -
 -------------------
 Temperature   298.150 Kelvin.  Pressure   1.00000 Atm.
 Atom     1 has atomic number  6 and mass  12.00000

 Molecular mass:   163.98967 amu.
 Principal axes and moments of inertia in atomic units:
                           1         2         3
     Eigenvalues --   948.437851520.872261602.19837
           X            0.86170   0.41510  -0.29183
           Y           -0.11941   0.72486   0.67846
           Z           -0.49317   0.54979  -0.67418
 This molecule is an asymmetric top.
 Rotational symmetry number  1.
 Warning -- assumption of classical behavior for rotation
           may cause significant error
 Rotational temperatures (Kelvin)      0.09132     0.05695     0.05406
 Rotational constants (GHZ):           1.90286     1.18665     1.12642
 Zero-point vibrational energy     138389.8 (Joules/Mol)
                                   33.07596 (Kcal/Mol)
 Warning -- explicit consideration of  13 degrees of freedom as
           vibrations may cause significant error
 Vibrational temperatures:     27.75    93.88   207.93   311.15   357.89
          (Kelvin)            414.23   517.81   546.73   553.22   724.91
                              788.77   795.09   887.20   915.62   996.82
                             1135.90  1148.14  1528.54  1708.52  1769.30
                             1837.86  1856.24  1866.08  1990.01  2066.22
                             2763.69  5479.45

 Zero-point correction=                           0.052710 (Hartree/Particle)
 Thermal correction to Energy=                    0.061644
 Thermal correction to Enthalpy=                  0.062588
 Thermal correction to Gibbs Free Energy=         0.016917
 Sum of electronic and zero-point Energies=           -764.615552
 Sum of electronic and thermal Energies=              -764.606618
 Sum of electronic and thermal Enthalpies=            -764.605674
 Sum of electronic and thermal Free Energies=         -764.651344

                     E (Thermal)             CV                S
                      KCal/Mol        Cal/Mol-Kelvin    Cal/Mol-Kelvin
 Total                   38.682             30.709             96.122
 Electronic               0.000              0.000              0.000
 Translational            0.889              2.981             41.192
 Rotational               0.889              2.981             29.226
 Vibrational             36.904             24.747             25.704
 Vibration     1          0.593              1.986              6.706
 Vibration     2          0.597              1.971              4.292
 Vibration     3          0.616              1.909              2.743
 Vibration     4          0.645              1.816              1.990
 Vibration     5          0.662              1.765              1.739
 Vibration     6          0.685              1.696              1.486
 Vibration     7          0.734              1.555              1.123
 Vibration     8          0.750              1.513              1.039
 Vibration     9          0.753              1.503              1.021
 Vibration    10          0.859              1.242              0.649
 Vibration    11          0.903              1.144              0.548
 Vibration    12          0.908              1.134              0.539
 Vibration    13          0.976              0.997              0.422

 Optimization completed.
    -- Stationary point found.
 Normal termination of Gaussian 16 at Sat May 24 04:29:57 2025.
