 Gaussian 16, Revision C.01,
 Gaussian 16:  ES64L-G16RevC.01  3-Jul-2019

 ----------------------------------------------------------------------
 #P M062X/Def2TZVPP Symm(None) scf(xqc) pop(None) opt(NoFreeze,TS,CalcA
 ll,NoEigentest,MaxCycle=999)
 ----------------------------------------------------------------------

 ------------------------------
 Gaussian input prepared by ASE
 ------------------------------
 Symbolic Z-matrix:
 Charge =  0 Multiplicity = 1

 SCF Done:  E(RM062X) =  -764.458999961     A.U. after   15 cycles
 SCF Done:  E(RM062X) =  -764.509868769     A.U. after   14 cycles
 SCF Done:  E(RM062X) =  -764.527350384     A.U. after   14 cycles
 SCF Done:  E(RM062X) =  -764.528967891     A.U. after   14 cycles
 SCF Done:  E(RM062X) =  -764.529106457     A.U. after   13 cycles
 SCF Done:  E(RM062X) =  -764.529106697     A.U. after   10 cycles

 Isotropic polarizability for W=    0.000000       51.14 Bohr**3.
 End of Minotr F.D. properties file   721 does not exist.

 Optimization completed.
    -- Stationary point found.

                          Input orientation:
 ---------------------------------------------------------------------
 Center     Atomic      Atomic             Coordinates (Angstroms)
 Number     Number       Type             X           Y           Z
 ---------------------------------------------------------------------
      1          6           0        1.135929    0.139891    0.304160
      2          8           0        1.975478   -0.669811    0.709219
      3          6           0        0.033001   -0.354767   -0.674032
      4          6           0       -0.035119    0.456189    1.518633
      5          9           0       -1.008896    1.299780    1.172482
      6          9           0       -0.591995   -0.664123    1.960837
      7          9           0        0.668972    1.003222    2.484250
      8          9           0       -0.773029    0.391312   -1.300543
      9          9           0       -0.375303   -1.545284   -0.607051
     10          8           0        1.483867    1.416702   -0.143271
     11          1           0        2.416593    1.498294    0.087411
 ---------------------------------------------------------------------

 ******    1 imaginary frequencies (negative Signs) ******

                      1                      2                      3
                      A                      A                      A
 Frequencies --   -303.9250                49.4298               110.4283
 Red. masses --      8.6642                18.1269                14.9189
 Frc consts  --      0.4715                 0.0261                 0.1072
 IR Inten    --     90.5659                 0.2337                 1.8371

                      4                      5                      6
                      A                      A                      A
 Frequencies --    158.2595               200.9955               214.3907
 Red. masses --     12.5110                14.8669                14.8263
 Frc consts  --      0.1846                 0.3539                 0.4015
 IR Inten    --      3.1050                 0.5118                 1.6986

                      7                      8                      9
                      A                      A                      A
 Frequencies --    267.8122               286.4202               333.4285
 Red. masses --      3.6156                 2.5062                13.7604
 Frc consts  --      0.1528                 0.1211                 0.9013
 IR Inten    --     13.8642                44.9292                10.2672

                     10                     11                     12
                      A                      A                      A
 Frequencies --    364.0958               475.6229               516.2298
 Red. masses --      3.3345                14.3541                 9.4036
 Frc consts  --      0.2604                 1.9132                 1.4765
 IR Inten    --     16.7295                 4.6954                18.7679

                     13                     14                     15
                      A                      A                      A
 Frequencies --    550.0815               589.0972               631.1876
 Red. masses --      7.0955                15.6620                 9.3026
 Frc consts  --      1.2650                 3.2024                 2.1836
 IR Inten    --     56.2646                 3.7744                42.3355

                     16                     17                     18
                      A                      A                      A
 Frequencies --    676.1997               753.7600               762.9104
 Red. masses --     12.0064                15.6547                 9.6641
 Frc consts  --      3.2345                 5.2404                 3.3140
 IR Inten    --      0.5864                25.5884                 7.8129

                     19                     20                     21
                      A                      A                      A
 Frequencies --   1026.3932              1095.4439              1247.7289
 Red. masses --      5.7586                13.7250                12.9081
 Frc consts  --      3.5744                 9.7039                11.8401
 IR Inten    --    286.8612               395.8425               182.1084

                     22                     23                     24
                      A                      A                      A
 Frequencies --   1284.7139              1309.5711              1440.6924
 Red. masses --      2.3804                 3.7409                11.4933
 Frc consts  --      2.3148                 3.7799                14.0552
 IR Inten    --     38.2311               200.2381               272.9921

                     25                     26                     27
                      A                      A                      A
 Frequencies --   1481.6961              1585.6483              3851.0583
 Red. masses --     12.2553                 8.2201                 1.0654
 Frc consts  --     15.8523                12.1770                 9.3094
 IR Inten    --    271.6103               473.5787               130.6850

 - Thermochemistry -
 -------------------
 Temperature   298.150 Kelvin.  Pressure   1.00000 Atm.
 Atom     1 has atomic number  6 and mass  12.00000

 Molecular mass:   163.98967 amu.
 Principal axes and moments of inertia in atomic units:
                           1         2         3
     Eigenvalues --  1032.214301415.534041523.32926
           X            0.17495   0.95857  -0.22483
           Y            0.37750   0.14559   0.91449
           Z            0.90933  -0.24486  -0.33639
 This molecule is an asymmetric top.
 Rotational symmetry number  1.
 Warning -- assumption of classical behavior for rotation
           may cause significant error
 Rotational temperatures (Kelvin)      0.08391     0.06119     0.05686
 Rotational constants (GHZ):           1.74842     1.27495     1.18473
    1 imaginary frequencies ignored.
 Zero-point vibrational energy     127182.8 (Joules/Mol)
                                   30.39741 (Kcal/Mol)
 Warning -- explicit consideration of  13 degrees of freedom as
           vibrations may cause significant error
 Vibrational temperatures:     71.12   158.88   227.70   289.19   308.46
          (Kelvin)            385.32   412.09   479.73   523.85   684.32
                              742.74   791.44   847.58   908.14   972.90
                             1084.49  1097.66  1476.75  1576.10  1795.20
                             1848.42  1884.18  2072.84  2131.83  2281.39
                             5540.81

 Zero-point correction=                           0.048441 (Hartree/Particle)
 Thermal correction to Energy=                    0.057547
 Thermal correction to Enthalpy=                  0.058491
 Thermal correction to Gibbs Free Energy=         0.013598
 Sum of electronic and zero-point Energies=           -764.480665
 Sum of electronic and thermal Energies=              -764.471560
 Sum of electronic and thermal Enthalpies=            -764.470616
 Sum of electronic and thermal Free Energies=         -764.515509

                     E (Thermal)             CV                S
                      KCal/Mol        Cal/Mol-Kelvin    Cal/Mol-Kelvin
 Total                   36.111             31.351             94.485
 Electronic               0.000              0.000              0.000
 Translational            0.889              2.981             41.192
 Rotational               0.889              2.981             29.189
 Vibrational             34.334             25.389             24.104
 Vibration     1          0.595              1.978              4.840
 Vibration     2          0.606              1.941              3.261
 Vibration     3          0.621              1.893              2.570
 Vibration     4          0.638              1.838              2.124
 Vibration     5          0.644              1.819              2.006
 Vibration     6          0.673              1.732              1.610
 Vibration     7          0.684              1.699              1.495
 Vibration     8          0.715              1.609              1.243
 Vibration     9          0.738              1.546              1.105
 Vibration    10          0.832              1.304              0.722
 Vibration    11          0.871              1.214              0.619
 Vibration    12          0.905              1.140              0.544
 Vibration    13          0.946              1.055              0.469

 Normal termination of Gaussian 16 at Sat May 24 02:29:12 2025.
