 Gaussian 16, Revision C.01,
 Gaussian 16:  ES64L-G16RevC.01  3-Jul-2019

 ----------------------------------------------------------------------
 #P M062X/Def2TZVPP Symm(None) scf(xqc) pop(None) opt(CalcAll,Cartesian
 )
 ----------------------------------------------------------------------

 ------------------------------
 Gaussian input prepared by ASE
 ------------------------------
 Symbolic Z-matrix:
 Charge =  0 Multiplicity = 1

 SCF Done:  E(RM062X) =  -764.663787750     A.U. after   13 cycles
 SCF Done:  E(RM062X) =  -764.663551212     A.U. after   13 cycles
 SCF Done:  E(RM062X) =  -764.663975302     A.U. after   10 cycles
 SCF Done:  E(RM062X) =  -764.664023778     A.U. after   10 cycles
 SCF Done:  E(RM062X) =  -764.664132948     A.U. after   10 cycles
 SCF Done:  E(RM062X) =  -764.664192791     A.U. after   11 cycles
 SCF Done:  E(RM062X) =  -764.664251870     A.U. after   10 cycles
 SCF Done:  E(RM062X) =  -764.663787315     A.U. after   13 cycles
 SCF Done:  E(RM062X) =  -764.664193285     A.U. after   11 cycles
 SCF Done:  E(RM062X) =  -764.664258427     A.U. after    8 cycles
 SCF Done:  E(RM062X) =  -764.664380146     A.U. after    8 cycles
 SCF Done:  E(RM062X) =  -764.664382722     A.U. after   10 cycles
 SCF Done:  E(RM062X) =  -764.664385177     A.U. after    9 cycles
 SCF Done:  E(RM062X) =  -764.664380413     A.U. after   10 cycles
 SCF Done:  E(RM062X) =  -764.664383899     A.U. after    9 cycles
 SCF Done:  E(RM062X) =  -764.658633855     A.U. after   11 cycles
 SCF Done:  E(RM062X) =  -764.664385308     A.U. after    7 cycles
 SCF Done:  E(RM062X) =  -764.664386093     A.U. after    8 cycles
 SCF Done:  E(RM062X) =  -764.664386216     A.U. after    7 cycles
 SCF Done:  E(RM062X) =  -764.664386214     A.U. after    7 cycles

 Isotropic polarizability for W=    0.000000       43.72 Bohr**3.
 End of Minotr F.D. properties file   721 does not exist.

 Optimization completed.
    -- Stationary point found.

                          Input orientation:
 ---------------------------------------------------------------------
 Center     Atomic      Atomic             Coordinates (Angstroms)
 Number     Number       Type             X           Y           Z
 ---------------------------------------------------------------------
      1          6           0        1.279624    2.364893   -2.975874
      2          8           0        1.207599    2.398107   -1.856370
      3          6           0       -0.140391    0.049402    0.046514
      4          6           0       -0.744741   -1.006590    0.994040
      5          9           0       -1.217627   -2.023762    0.286854
      6          9           0        0.182563   -1.457929    1.825659
      7          9           0       -1.734976   -0.476762    1.696811
      8          9           0       -1.094909    0.440140   -0.820894
      9          9           0        0.821079   -0.540455   -0.690995
     10          8           0        0.333834    1.072081    0.771027
     11          1           0        0.713279    1.734222    0.178757
 ---------------------------------------------------------------------

                      1                      2                      3
                      A                      A                      A
 Frequencies --     15.2015                23.7179                56.5674
 Red. masses --     12.6320                12.5655                15.2548
 Frc consts  --      0.0017                 0.0042                 0.0288
 IR Inten    --      0.2040                 0.3155                 0.4266

                      4                      5                      6
                      A                      A                      A
 Frequencies --     61.9381                70.3461                89.6251
 Red. masses --     13.9147                17.3062                14.9923
 Frc consts  --      0.0315                 0.0505                 0.0710
 IR Inten    --      0.3823                 0.0034                 0.9143

                      7                      8                      9
                      A                      A                      A
 Frequencies --    220.3294               232.8275               322.6769
 Red. masses --     18.6279                11.4784                 1.2486
 Frc consts  --      0.5328                 0.3666                 0.0766
 IR Inten    --      2.1889                 1.7114                78.7463

                     10                     11                     12
                      A                      A                      A
 Frequencies --    356.4716               390.1058               398.3116
 Red. masses --     14.9021                11.8772                 5.3931
 Frc consts  --      1.1157                 1.0650                 0.5041
 IR Inten    --      0.5693                 4.0863                19.1658

                     13                     14                     15
                      A                      A                      A
 Frequencies --    531.7878               543.4274               628.1755
 Red. masses --     15.4228                12.0028                17.1578
 Frc consts  --      2.5697                 2.0884                 3.9891
 IR Inten    --      9.4963                20.4183                 0.2902

                     16                     17                     18
                      A                      A                      A
 Frequencies --    629.5217               705.0348               826.1732
 Red. masses --     16.4271                 6.7296                11.0996
 Frc consts  --      3.8356                 1.9709                 4.4638
 IR Inten    --      0.1582                59.3549                 6.2073

                     19                     20                     21
                      A                      A                      A
 Frequencies --   1070.2187              1197.0494              1270.5730
 Red. masses --      3.7983                13.0111                 2.7529
 Frc consts  --      2.5632                10.9847                 2.6184
 IR Inten    --    151.6719               212.5826               269.0123

                     22                     23                     24
                      A                      A                      A
 Frequencies --   1295.0325              1296.6450              1315.4333
 Red. masses --     13.1085                 6.8176                 9.9094
 Frc consts  --     12.9528                 6.7534                10.1027
 IR Inten    --    319.8676               205.9721               312.4401

                     25                     26                     27
                      A                      A                      A
 Frequencies --   1523.2560              2260.6127              3824.2993
 Red. masses --      4.1304                13.4295                 1.0651
 Frc consts  --      5.6466                40.4355                 9.1778
 IR Inten    --      6.5172               135.1830               237.0076

 - Thermochemistry -
 -------------------
 Temperature   298.150 Kelvin.  Pressure   1.00000 Atm.
 Atom     1 has atomic number  6 and mass  12.00000

 Molecular mass:   163.98967 amu.
 Principal axes and moments of inertia in atomic units:
                           1         2         3
     Eigenvalues --   651.068992584.471312604.18713
           X            0.38319   0.24860   0.88958
           Y            0.65403   0.60704  -0.45137
           Z           -0.65223   0.75478   0.07002
 This molecule is an asymmetric top.
 Rotational symmetry number  1.
 Warning -- assumption of classical behavior for rotation
           may cause significant error
 Rotational temperatures (Kelvin)      0.13303     0.03351     0.03326
 Rotational constants (GHZ):           2.77197     0.69830     0.69302
 Zero-point vibrational energy     126537.1 (Joules/Mol)
                                   30.24310 (Kcal/Mol)
 Warning -- explicit consideration of  14 degrees of freedom as
           vibrations may cause significant error
 Vibrational temperatures:     21.87    34.12    81.39    89.12   101.21
          (Kelvin)            128.95   317.00   334.99   464.26   512.88
                              561.28   573.08   765.12   781.87   903.80
                              905.74  1014.39  1188.68  1539.81  1722.29
                             1828.07  1863.26  1865.58  1892.62  2191.63
                             3252.52  5502.31

 Zero-point correction=                           0.048195 (Hartree/Particle)
 Thermal correction to Energy=                    0.059388
 Thermal correction to Enthalpy=                  0.060332
 Thermal correction to Gibbs Free Energy=         0.007025
 Sum of electronic and zero-point Energies=           -764.616191
 Sum of electronic and thermal Energies=              -764.604998
 Sum of electronic and thermal Enthalpies=            -764.604054
 Sum of electronic and thermal Free Energies=         -764.657361

                     E (Thermal)             CV                S
                      KCal/Mol        Cal/Mol-Kelvin    Cal/Mol-Kelvin
 Total                   37.267             34.458            112.194
 Electronic               0.000              0.000              0.000
 Translational            0.889              2.981             41.192
 Rotational               0.889              2.981             29.862
 Vibrational             35.489             28.496             41.140
 Vibration     1          0.593              1.986              7.179
 Vibration     2          0.593              1.985              6.296
 Vibration     3          0.596              1.975              4.573
 Vibration     4          0.597              1.972              4.394
 Vibration     5          0.598              1.968              4.144
 Vibration     6          0.602              1.957              3.668
 Vibration     7          0.647              1.810              1.956
 Vibration     8          0.654              1.791              1.857
 Vibration     9          0.708              1.630              1.297
 Vibration    10          0.732              1.562              1.137
 Vibration    11          0.758              1.491              1.000
 Vibration    12          0.765              1.474              0.969
 Vibration    13          0.887              1.180              0.583
 Vibration    14          0.899              1.154              0.558

 Normal termination of Gaussian 16 at Sat May 24 10:47:12 2025.
