 Gaussian 16, Revision C.01,
 Gaussian 16:  ES64L-G16RevC.01  3-Jul-2019

 -----------------------------------------------------------------
 #P M062X/Def2TZVPP Symm(None) scf(xqc) pop(None) freq opt(CalcFC)
 -----------------------------------------------------------------

 ------------------------------
 Gaussian input prepared by ASE
 ------------------------------
 Symbolic Z-matrix:
 Charge =  0 Multiplicity = 1

 SCF Done:  E(RM062X) =  -764.634353787     A.U. after   14 cycles
 SCF Done:  E(RM062X) =  -764.657541786     A.U. after   13 cycles
 SCF Done:  E(RM062X) =  -764.666173638     A.U. after   15 cycles
 SCF Done:  E(RM062X) =  -764.667319914     A.U. after   12 cycles
 SCF Done:  E(RM062X) =  -764.668074929     A.U. after   13 cycles
 SCF Done:  E(RM062X) =  -764.668242522     A.U. after   12 cycles
 SCF Done:  E(RM062X) =  -764.668254136     A.U. after    9 cycles
 SCF Done:  E(RM062X) =  -764.668256799     A.U. after    9 cycles
 SCF Done:  E(RM062X) =  -764.668260468     A.U. after   11 cycles
 SCF Done:  E(RM062X) =  -764.668265612     A.U. after   12 cycles
 SCF Done:  E(RM062X) =  -764.668266851     A.U. after   10 cycles
 SCF Done:  E(RM062X) =  -764.668267022     A.U. after    7 cycles
 Optimization completed.
    -- Stationary point found.
 Normal termination of Gaussian 16 at Sat May 24 04:41:29 2025.

 ---------------------------------------------------------------------
 #P Geom=AllCheck Guess=TCheck SCRF=Check GenChk RM062X/def2TZVPP Freq
 ---------------------------------------------------------------------

 Structure from the checkpoint file:  "1642764945472630600001_r12_insertion_R_10_1_3_IRC_R_prod.chk"
 ------------------------------
 Gaussian input prepared by ASE
 ------------------------------
 Charge =  0 Multiplicity = 1

                          Input orientation:
 ---------------------------------------------------------------------
 Center     Atomic      Atomic             Coordinates (Angstroms)
 Number     Number       Type             X           Y           Z
 ---------------------------------------------------------------------
      1          6           0        1.384789   -0.253300   -0.573173
      2          8           0        1.948969   -1.297011   -0.631215
      3          6           0       -0.154288   -0.130807   -0.603450
      4          6           0       -0.751767    0.184894    0.785143
      5          9           0       -2.073080    0.146215    0.726424
      6          9           0       -0.330466   -0.717296    1.664580
      7          9           0       -0.375443    1.388006    1.193476
      8          9           0       -0.527653    0.842292   -1.448038
      9          9           0       -0.670382   -1.288612   -1.015522
     10          8           0        1.946987    0.946035   -0.464641
     11          1           0        2.907062    0.830977   -0.434138
 ---------------------------------------------------------------------

 SCF Done:  E(RM062X) =  -764.668267022     A.U. after    1 cycles

 Isotropic polarizability for W=    0.000000       43.86 Bohr**3.
 End of Minotr F.D. properties file   721 does not exist.

                      1                      2                      3
                      A                      A                      A
 Frequencies --     19.2669                65.8919               144.8700
 Red. masses --     13.0025                16.4147                10.1800
 Frc consts  --      0.0028                 0.0420                 0.1259
 IR Inten    --      1.4308                 0.4102                 0.9875

                      4                      5                      6
                      A                      A                      A
 Frequencies --    216.2357               248.5449               288.0960
 Red. masses --     17.3900                12.1744                14.7189
 Frc consts  --      0.4791                 0.4431                 0.7198
 IR Inten    --      1.5440                 1.1747                 1.4531

                      7                      8                      9
                      A                      A                      A
 Frequencies --    359.9403               380.0964               384.2799
 Red. masses --     16.5114                15.5793                13.5756
 Frc consts  --      1.2604                 1.3261                 1.1811
 IR Inten    --      0.3853                 0.8049                 0.6360

                     10                     11                     12
                      A                      A                      A
 Frequencies --    504.5237               547.8614               552.3058
 Red. masses --      7.7900                 3.6718                 3.7980
 Frc consts  --      1.1683                 0.6493                 0.6826
 IR Inten    --      5.9694                20.8470                15.5647

                     13                     14                     15
                      A                      A                      A
 Frequencies --    616.5862               636.5321               692.8293
 Red. masses --      7.1587                 3.1816                 4.5805
 Frc consts  --      1.6035                 0.7595                 1.2954
 IR Inten    --     16.8576                76.3567               101.2823

                     16                     17                     18
                      A                      A                      A
 Frequencies --    789.4207               798.0971              1062.0876
 Red. masses --     12.2974                 8.6752                11.7512
 Frc consts  --      4.5152                 3.2557                 7.8100
 IR Inten    --      2.4589                21.1221               124.1842

                     19                     20                     21
                      A                      A                      A
 Frequencies --   1188.4333              1229.9299              1277.3449
 Red. masses --      3.1192                 4.1942                10.2422
 Frc consts  --      2.5957                 3.7382                 9.8460
 IR Inten    --    246.3030               186.2469                40.2397

                     22                     23                     24
                      A                      A                      A
 Frequencies --   1290.0136              1297.3555              1382.5920
 Red. masses --     13.3138                 7.5787                 7.8477
 Frc consts  --     13.0539                 7.5156                 8.8386
 IR Inten    --    361.5633               148.6761               126.8551

                     25                     26                     27
                      A                      A                      A
 Frequencies --   1436.1467              1920.5023              3808.0431
 Red. masses --      5.0999                11.7346                 1.0646
 Frc consts  --      6.1974                25.5006                 9.0960
 IR Inten    --     54.3932               330.6843               129.7408

 - Thermochemistry -
 -------------------
 Temperature   298.150 Kelvin.  Pressure   1.00000 Atm.
 Atom     1 has atomic number  6 and mass  12.00000

 Molecular mass:   163.98967 amu.
 Principal axes and moments of inertia in atomic units:
                           1         2         3
     Eigenvalues --   948.604091521.669931601.24184
           X            0.85473   0.46867  -0.22312
           Y           -0.15389   0.63931   0.75339
           Z           -0.49573   0.60961  -0.61856
 This molecule is an asymmetric top.
 Rotational symmetry number  1.
 Warning -- assumption of classical behavior for rotation
           may cause significant error
 Rotational temperatures (Kelvin)      0.09131     0.05692     0.05409
 Rotational constants (GHZ):           1.90252     1.18603     1.12709
 Zero-point vibrational energy     138394.9 (Joules/Mol)
                                   33.07718 (Kcal/Mol)
 Warning -- explicit consideration of  13 degrees of freedom as
           vibrations may cause significant error
 Vibrational temperatures:     27.72    94.80   208.44   311.11   357.60
          (Kelvin)            414.51   517.87   546.87   552.89   725.90
                              788.25   794.64   887.13   915.83   996.83
                             1135.80  1148.28  1528.11  1709.89  1769.59
                             1837.81  1856.04  1866.61  1989.24  2066.29
                             2763.17  5478.92

 Zero-point correction=                           0.052712 (Hartree/Particle)
 Thermal correction to Energy=                    0.061644
 Thermal correction to Enthalpy=                  0.062588
 Thermal correction to Gibbs Free Energy=         0.016927
 Sum of electronic and zero-point Energies=           -764.615555
 Sum of electronic and thermal Energies=              -764.606623
 Sum of electronic and thermal Enthalpies=            -764.605679
 Sum of electronic and thermal Free Energies=         -764.651340

                     E (Thermal)             CV                S
                      KCal/Mol        Cal/Mol-Kelvin    Cal/Mol-Kelvin
 Total                   38.682             30.707             96.101
 Electronic               0.000              0.000              0.000
 Translational            0.889              2.981             41.192
 Rotational               0.889              2.981             29.226
 Vibrational             36.905             24.746             25.682
 Vibration     1          0.593              1.986              6.708
 Vibration     2          0.597              1.971              4.272
 Vibration     3          0.616              1.908              2.739
 Vibration     4          0.645              1.816              1.990
 Vibration     5          0.662              1.765              1.741
 Vibration     6          0.685              1.696              1.485
 Vibration     7          0.734              1.555              1.122
 Vibration     8          0.750              1.513              1.039
 Vibration     9          0.753              1.504              1.022
 Vibration    10          0.860              1.240              0.647
 Vibration    11          0.903              1.144              0.549
 Vibration    12          0.908              1.135              0.539
 Vibration    13          0.976              0.997              0.422

                           ! Non-Optimized Parameters !
 Normal termination of Gaussian 16 at Sat May 24 04:44:46 2025.
