 Gaussian 16, Revision C.01,
 Gaussian 16:  ES64L-G16RevC.01  3-Jul-2019

 ----------------------------------------------------------------------
 #P mp2/6-31G Symm(None) scf(xqc) pop(None) guess(Read,Mix) geom(AllChe
 ck,NoKeepConstants) irc(RCFC,forward,MaxPoints=100,StepSize=2)
 ----------------------------------------------------------------------

 Structure from the checkpoint file:  "1642764945472630600001_R_Addition_MultipleBond_1_10_11_IRC_F.chk"
 ------------------------------
 Gaussian input prepared by ASE
 ------------------------------
 Charge =  0 Multiplicity = 1

 SCF Done:  E(RHF) =  -760.702009054     A.U. after   16 cycles
 E2 =    -0.1175965894D+01 EUMP2 =    -0.76187797494767D+03
 SCF Done:  E(RHF) =  -760.702180095     A.U. after   11 cycles
 E2 =    -0.1175887940D+01 EUMP2 =    -0.76187806803454D+03
 SCF Done:  E(RHF) =  -760.702455164     A.U. after   11 cycles
 E2 =    -0.1175767857D+01 EUMP2 =    -0.76187822302119D+03
 SCF Done:  E(RHF) =  -760.702833069     A.U. after   11 cycles
 E2 =    -0.1175606577D+01 EUMP2 =    -0.76187843964550D+03
 SCF Done:  E(RHF) =  -760.703312476     A.U. after   11 cycles
 E2 =    -0.1175405059D+01 EUMP2 =    -0.76187871753456D+03
 SCF Done:  E(RHF) =  -760.703891693     A.U. after   11 cycles
 E2 =    -0.1175164501D+01 EUMP2 =    -0.76187905619397D+03
 SCF Done:  E(RHF) =  -760.704568698     A.U. after   11 cycles
 E2 =    -0.1174886303D+01 EUMP2 =    -0.76187945500092D+03
 SCF Done:  E(RHF) =  -760.705341157     A.U. after   11 cycles
 E2 =    -0.1174572040D+01 EUMP2 =    -0.76187991319699D+03
 SCF Done:  E(RHF) =  -760.706206448     A.U. after   11 cycles
 E2 =    -0.1174223433D+01 EUMP2 =    -0.76188042988094D+03
 SCF Done:  E(RHF) =  -760.707161683     A.U. after   11 cycles
 E2 =    -0.1173842319D+01 EUMP2 =    -0.76188100400212D+03
 E2 =    -0.1173430626D+01 EUMP2 =    -0.76188163435466D+03
 E2 =    -0.1172990344D+01 EUMP2 =    -0.76188231957308D+03
 E2 =    -0.1172523496D+01 EUMP2 =    -0.76188305812886D+03
 E2 =    -0.1172032122D+01 EUMP2 =    -0.76188384832905D+03
 E2 =    -0.1171518249D+01 EUMP2 =    -0.76188468831617D+03
 E2 =    -0.1170983880D+01 EUMP2 =    -0.76188557606994D+03
 E2 =    -0.1170430976D+01 EUMP2 =    -0.76188650941035D+03
 E2 =    -0.1169861441D+01 EUMP2 =    -0.76188748600246D+03
 E2 =    -0.1169277116D+01 EUMP2 =    -0.76188850336244D+03
 E2 =    -0.1168679769D+01 EUMP2 =    -0.76188955886483D+03
 E2 =    -0.1144796808D+01 EUMP2 =    -0.76194069215594D+03
 E2 =    -0.1144759572D+01 EUMP2 =    -0.76194099493218D+03
 E2 =    -0.1144730473D+01 EUMP2 =    -0.76194128840451D+03
 E2 =    -0.1144709135D+01 EUMP2 =    -0.76194157287613D+03
 E2 =    -0.1144695166D+01 EUMP2 =    -0.76194184862574D+03
 E2 =    -0.1144688154D+01 EUMP2 =    -0.76194211590932D+03
 E2 =    -0.1144687681D+01 EUMP2 =    -0.76194237496198D+03
 E2 =    -0.1144693318D+01 EUMP2 =    -0.76194262599986D+03
 E2 =    -0.1144704635D+01 EUMP2 =    -0.76194286922219D+03
 E2 =    -0.1144721200D+01 EUMP2 =    -0.76194310481317D+03
 SCF Done:  E(RHF) =  -760.798590363     A.U. after   10 cycles
 E2 =    -0.1144742581D+01 EUMP2 =    -0.76194333294382D+03
 SCF Done:  E(RHF) =  -760.798785423     A.U. after   10 cycles
 E2 =    -0.1144768351D+01 EUMP2 =    -0.76194355377388D+03
 SCF Done:  E(RHF) =  -760.798969365     A.U. after   10 cycles
 E2 =    -0.1144798088D+01 EUMP2 =    -0.76194376745336D+03
 SCF Done:  E(RHF) =  -760.799142747     A.U. after   10 cycles
 E2 =    -0.1144831377D+01 EUMP2 =    -0.76194397412432D+03
 SCF Done:  E(RHF) =  -760.799306112     A.U. after   10 cycles
 E2 =    -0.1144867810D+01 EUMP2 =    -0.76194417392221D+03
 SCF Done:  E(RHF) =  -760.799459991     A.U. after   10 cycles
 E2 =    -0.1144906986D+01 EUMP2 =    -0.76194436697720D+03
 SCF Done:  E(RHF) =  -760.799604902     A.U. after    9 cycles
 E2 =    -0.1144948525D+01 EUMP2 =    -0.76194455342743D+03
 SCF Done:  E(RHF) =  -760.799741352     A.U. after    9 cycles
 E2 =    -0.1144992021D+01 EUMP2 =    -0.76194473337271D+03
 SCF Done:  E(RHF) =  -760.799869835     A.U. after    9 cycles
 E2 =    -0.1145037111D+01 EUMP2 =    -0.76194490694636D+03
 SCF Done:  E(RHF) =  -760.799990842     A.U. after    9 cycles
 E2 =    -0.1145083427D+01 EUMP2 =    -0.76194507426917D+03

                          Input orientation:
 ---------------------------------------------------------------------
 Center     Atomic      Atomic             Coordinates (Angstroms)
 Number     Number       Type             X           Y           Z
 ---------------------------------------------------------------------
      1          6           0        1.423985    0.024747   -0.562775
      2          8           0        2.232923   -1.032923   -0.883738
      3          6           0       -0.103945   -0.209768   -0.552862
      4          6           0       -0.767912    0.185060    0.786131
      5          9           0       -2.117559   -0.148955    0.795273
      6          9           0       -0.126259   -0.506358    1.819539
      7          9           0       -0.643867    1.549110    1.018863
      8          9           0       -0.682303    0.604281   -1.561848
      9          9           0       -0.447652   -1.548274   -0.813472
     10          8           0        1.925567    1.136715   -0.309618
     11          1           0        3.163763   -0.701491   -0.858326
 ---------------------------------------------------------------------

 Normal termination of Gaussian 16 at Sat May 24 03:10:46 2025.
