 Gaussian 16, Revision C.01,
 Gaussian 16:  ES64L-G16RevC.01  3-Jul-2019

 ----------------------------------------------------------------------
 #P M062X/Def2TZVPP Symm(None) scf(xqc) pop(None) geom(AllCheck,NoKeepC
 onstants) guess(Read) irc(RCFC,forward,MaxPoints=100,StepSize=2)
 ----------------------------------------------------------------------

 Structure from the checkpoint file:  "1642764945472630600001_r12_insertion_R_11_10_1_IRC_F.chk"
 ------------------------------
 Gaussian input prepared by ASE
 ------------------------------
 Charge =  0 Multiplicity = 1

 SCF Done:  E(RM062X) =  -764.605151605     A.U. after    9 cycles
 SCF Done:  E(RM062X) =  -764.605250490     A.U. after    9 cycles
 SCF Done:  E(RM062X) =  -764.605414756     A.U. after    9 cycles
 SCF Done:  E(RM062X) =  -764.605643658     A.U. after    9 cycles
 SCF Done:  E(RM062X) =  -764.605936063     A.U. after   10 cycles
 SCF Done:  E(RM062X) =  -764.606290408     A.U. after   10 cycles
 SCF Done:  E(RM062X) =  -764.606704759     A.U. after   10 cycles
 SCF Done:  E(RM062X) =  -764.607176959     A.U. after   10 cycles
 SCF Done:  E(RM062X) =  -764.607704776     A.U. after   10 cycles
 SCF Done:  E(RM062X) =  -764.608286008     A.U. after   10 cycles
 SCF Done:  E(RM062X) =  -764.664457426     A.U. after    8 cycles
 SCF Done:  E(RM062X) =  -764.664647428     A.U. after    8 cycles
 SCF Done:  E(RM062X) =  -764.664829954     A.U. after    8 cycles
 SCF Done:  E(RM062X) =  -764.665005149     A.U. after    8 cycles
 SCF Done:  E(RM062X) =  -764.665173158     A.U. after    8 cycles
 SCF Done:  E(RM062X) =  -764.665334126     A.U. after    8 cycles
 SCF Done:  E(RM062X) =  -764.665488202     A.U. after    8 cycles
 SCF Done:  E(RM062X) =  -764.665635537     A.U. after    8 cycles
 SCF Done:  E(RM062X) =  -764.665776287     A.U. after    8 cycles
 SCF Done:  E(RM062X) =  -764.665910614     A.U. after    8 cycles

                          Input orientation:
 ---------------------------------------------------------------------
 Center     Atomic      Atomic             Coordinates (Angstroms)
 Number     Number       Type             X           Y           Z
 ---------------------------------------------------------------------
      1          6           0        1.397094    0.152213   -0.642890
      2          8           0        2.184750   -0.792967   -0.149506
      3          6           0       -0.135547   -0.147127   -0.590262
      4          6           0       -0.733503    0.057832    0.821063
      5          9           0       -2.051550   -0.057401    0.780793
      6          9           0       -0.247821   -0.846123    1.659904
      7          9           0       -0.417848    1.268917    1.263058
      8          9           0       -0.750211    0.703997   -1.415676
      9          9           0       -0.410969   -1.400515   -0.978653
     10          8           0        1.831347    1.167385   -1.081315
     11          1           0        3.085595   -0.449426   -0.243139
 ---------------------------------------------------------------------

 Normal termination of Gaussian 16 at Sat May 24 04:26:43 2025.
