 Gaussian 16, Revision C.01,
 Gaussian 16:  ES64L-G16RevC.01  3-Jul-2019

 ----------------------------------------------------------------------
 #P M062X/Def2TZVPP Symm(None) scf(xqc) pop(None) opt(NoFreeze,TS,CalcA
 ll,NoEigentest,MaxCycle=999)
 ----------------------------------------------------------------------

 ------------------------------
 Gaussian input prepared by ASE
 ------------------------------
 Symbolic Z-matrix:
 Charge =  0 Multiplicity = 1

 SCF Done:  E(RM062X) =  -764.505025885     A.U. after   15 cycles
 SCF Done:  E(RM062X) =  -764.506479234     A.U. after   14 cycles
 SCF Done:  E(RM062X) =  -764.498315176     A.U. after   15 cycles
 SCF Done:  E(RM062X) =  -764.493852897     A.U. after   15 cycles
 SCF Done:  E(RM062X) =  -764.492645668     A.U. after   16 cycles
 SCF Done:  E(RM062X) =  -764.494790041     A.U. after   14 cycles
 SCF Done:  E(RM062X) =  -764.495082582     A.U. after   13 cycles
 SCF Done:  E(RM062X) =  -764.495098262     A.U. after   12 cycles
 SCF Done:  E(RM062X) =  -764.495098496     A.U. after    8 cycles

 Isotropic polarizability for W=    0.000000       48.45 Bohr**3.
 End of Minotr F.D. properties file   721 does not exist.

 Optimization completed.
    -- Stationary point found.

                          Input orientation:
 ---------------------------------------------------------------------
 Center     Atomic      Atomic             Coordinates (Angstroms)
 Number     Number       Type             X           Y           Z
 ---------------------------------------------------------------------
      1          6           0        1.608826   -0.841019    0.155830
      2          8           0        2.550286   -1.447246   -0.013520
      3          6           0        0.168924    0.232710   -0.011775
      4          6           0       -0.453484    0.453999    1.396938
      5          9           0       -1.729417    0.098226    1.369855
      6          9           0        0.166649   -0.269966    2.319617
      7          9           0       -0.385119    1.728239    1.731535
      8          9           0       -0.176576    1.257282   -0.832712
      9          9           0       -0.547297   -0.777131   -0.636798
     10          8           0        1.708078    0.945969    0.342930
     11          1           0        2.018628    1.590344   -0.309805
 ---------------------------------------------------------------------

 ******    1 imaginary frequencies (negative Signs) ******

                      1                      2                      3
                      A                      A                      A
 Frequencies --   -721.4667                45.8673                80.4933
 Red. masses --      7.1654                16.9858                12.0969
 Frc consts  --      2.1975                 0.0211                 0.0462
 IR Inten    --      1.8437                 0.4313                 0.8910

                      4                      5                      6
                      A                      A                      A
 Frequencies --    155.2261               169.8565               255.3484
 Red. masses --     14.1069                 5.2350                 6.9683
 Frc consts  --      0.2003                 0.0890                 0.2677
 IR Inten    --      8.4208                13.6389                 2.6606

                      7                      8                      9
                      A                      A                      A
 Frequencies --    274.1376               319.0958               344.0799
 Red. masses --      4.6999                 5.5374                 9.0905
 Frc consts  --      0.2081                 0.3322                 0.6341
 IR Inten    --      1.8281                32.0142                 1.6607

                     10                     11                     12
                      A                      A                      A
 Frequencies --    382.5334               415.0620               445.6113
 Red. masses --     15.5858                 2.4913                 7.6456
 Frc consts  --      1.3437                 0.2529                 0.8945
 IR Inten    --      3.0258                96.5786                19.5457

                     13                     14                     15
                      A                      A                      A
 Frequencies --    530.1937               566.2620               586.9190
 Red. masses --      9.8472                13.2923                 9.5577
 Frc consts  --      1.6309                 2.5112                 1.9398
 IR Inten    --     33.9747                 9.0028                42.6968

                     16                     17                     18
                      A                      A                      A
 Frequencies --    611.7285               669.8591               745.4854
 Red. masses --     12.6956                13.5416                14.7352
 Frc consts  --      2.7991                 3.5800                 4.8249
 IR Inten    --      6.8212                 9.0275               162.1614

                     19                     20                     21
                      A                      A                      A
 Frequencies --    848.0638               879.8175               993.3523
 Red. masses --     14.7540                 1.6326                11.5801
 Frc consts  --      6.2520                 0.7446                 6.7324
 IR Inten    --    237.9948               102.8641               283.2291

                     22                     23                     24
                      A                      A                      A
 Frequencies --   1133.1002              1281.2891              1301.9983
 Red. masses --      5.9566                13.0707                13.0820
 Frc consts  --      4.5059                12.6428                13.0661
 IR Inten    --    282.8923               254.6280               265.7927

                     25                     26                     27
                      A                      A                      A
 Frequencies --   1383.7923              2155.8157              3793.1138
 Red. masses --     10.6475                13.1420                 1.0663
 Frc consts  --     12.0126                35.9862                 9.0387
 IR Inten    --     98.9850               222.3408               104.3369

 - Thermochemistry -
 -------------------
 Temperature   298.150 Kelvin.  Pressure   1.00000 Atm.
 Atom     1 has atomic number  6 and mass  12.00000

 Molecular mass:   163.98967 amu.
 Principal axes and moments of inertia in atomic units:
                           1         2         3
     Eigenvalues --   964.789941556.750561663.00916
           X            0.79376   0.37288   0.48052
           Y           -0.41854  -0.23838   0.87636
           Z           -0.44132   0.89674   0.03315
 This molecule is an asymmetric top.
 Rotational symmetry number  1.
 Warning -- assumption of classical behavior for rotation
           may cause significant error
 Rotational temperatures (Kelvin)      0.08977     0.05564     0.05208
 Rotational constants (GHZ):           1.87061     1.15930     1.08523
    1 imaginary frequencies ignored.
 Zero-point vibrational energy     121828.3 (Joules/Mol)
                                   29.11766 (Kcal/Mol)
 Warning -- explicit consideration of  15 degrees of freedom as
           vibrations may cause significant error
 Vibrational temperatures:     65.99   115.81   223.34   244.39   367.39
          (Kelvin)            394.42   459.11   495.05   550.38   597.18
                              641.14   762.83   814.72   844.45   880.14
                              963.78  1072.59  1220.17  1265.86  1429.21
                             1630.28  1843.49  1873.29  1990.97  3101.74
                             5457.44

 Zero-point correction=                           0.046402 (Hartree/Particle)
 Thermal correction to Energy=                    0.055820
 Thermal correction to Enthalpy=                  0.056764
 Thermal correction to Gibbs Free Energy=         0.011115
 Sum of electronic and zero-point Energies=           -764.448697
 Sum of electronic and thermal Energies=              -764.439278
 Sum of electronic and thermal Enthalpies=            -764.438334
 Sum of electronic and thermal Free Energies=         -764.483983

                     E (Thermal)             CV                S
                      KCal/Mol        Cal/Mol-Kelvin    Cal/Mol-Kelvin
 Total                   35.028             32.844             96.076
 Electronic               0.000              0.000              0.000
 Translational            0.889              2.981             41.192
 Rotational               0.889              2.981             29.303
 Vibrational             33.250             26.883             25.581
 Vibration     1          0.595              1.979              4.988
 Vibration     2          0.600              1.962              3.879
 Vibration     3          0.620              1.897              2.607
 Vibration     4          0.625              1.880              2.437
 Vibration     5          0.666              1.754              1.693
 Vibration     6          0.676              1.721              1.570
 Vibration     7          0.705              1.637              1.315
 Vibration     8          0.723              1.587              1.193
 Vibration     9          0.752              1.507              1.029
 Vibration    10          0.778              1.438              0.909
 Vibration    11          0.805              1.371              0.809
 Vibration    12          0.885              1.183              0.587
 Vibration    13          0.922              1.104              0.511
 Vibration    14          0.944              1.060              0.473
 Vibration    15          0.971              1.007              0.430

 Normal termination of Gaussian 16 at Sat May 24 02:58:56 2025.
