 Gaussian 16, Revision C.01,
 Gaussian 16:  ES64L-G16RevC.01  3-Jul-2019

 ----------------------------------------------------------------------
 #P M062X/Def2TZVPP Symm(None) scf(xqc) pop(None) geom(AllCheck,NoKeepC
 onstants) guess(Read) irc(RCFC,forward,MaxPoints=100,StepSize=2)
 ----------------------------------------------------------------------

 Structure from the checkpoint file:  "1642764945472630600001_ketoenol_2_1_3_8_IRC_F.chk"
 ------------------------------
 Gaussian input prepared by ASE
 ------------------------------
 Charge =  0 Multiplicity = 1

 SCF Done:  E(RM062X) =  -764.454992213     A.U. after   15 cycles
 SCF Done:  E(RM062X) =  -764.455089993     A.U. after   17 cycles
 SCF Done:  E(RM062X) =  -764.455254493     A.U. after   17 cycles
 SCF Done:  E(RM062X) =  -764.455486822     A.U. after   17 cycles
 SCF Done:  E(RM062X) =  -764.455787976     A.U. after   17 cycles
 SCF Done:  E(RM062X) =  -764.456158770     A.U. after   17 cycles
 SCF Done:  E(RM062X) =  -764.456599753     A.U. after   17 cycles
 SCF Done:  E(RM062X) =  -764.457111111     A.U. after   17 cycles
 SCF Done:  E(RM062X) =  -764.457692585     A.U. after   17 cycles
 SCF Done:  E(RM062X) =  -764.458343396     A.U. after   17 cycles
 SCF Done:  E(RM062X) =  -764.577082091     A.U. after   10 cycles
 SCF Done:  E(RM062X) =  -764.578988380     A.U. after   10 cycles
 SCF Done:  E(RM062X) =  -764.580901549     A.U. after   10 cycles
 SCF Done:  E(RM062X) =  -764.582820686     A.U. after   11 cycles
 SCF Done:  E(RM062X) =  -764.584744802     A.U. after   11 cycles
 SCF Done:  E(RM062X) =  -764.586672824     A.U. after   11 cycles
 SCF Done:  E(RM062X) =  -764.588603588     A.U. after   11 cycles
 SCF Done:  E(RM062X) =  -764.590535830     A.U. after   10 cycles
 SCF Done:  E(RM062X) =  -764.592468168     A.U. after   10 cycles
 SCF Done:  E(RM062X) =  -764.594399094     A.U. after   10 cycles

                          Input orientation:
 ---------------------------------------------------------------------
 Center     Atomic      Atomic             Coordinates (Angstroms)
 Number     Number       Type             X           Y           Z
 ---------------------------------------------------------------------
      1          6           0       -0.437410   -1.070581    1.097916
      2          8           0       -1.404576   -1.578488    0.643413
      3          6           0        0.360058   -0.075420    0.304963
      4          6           0       -0.146646    0.885378   -0.792734
      5          9           0       -0.465554    2.105660   -0.347109
      6          9           0        0.881678    1.028354   -1.615384
      7          9           0       -1.191369    0.384961   -1.396972
      8          9           0        0.736690   -1.416079   -0.617166
      9          9           0        1.197714    0.650738    1.038329
     10          8           0        0.207812   -1.363530    2.225307
     11          1           0       -0.226736   -2.127436    2.630618
 ---------------------------------------------------------------------

 Normal termination of Gaussian 16 at Sat May 24 05:58:26 2025.
