 Gaussian 16, Revision C.01,
 Gaussian 16:  ES64L-G16RevC.01  3-Jul-2019

 ----------------------------------------------------------------------
 #P M062X/Def2TZVPP Symm(None) scf(xqc) pop(None) geom(AllCheck,NoKeepC
 onstants) guess(Read) irc(RCFC,forward,MaxPoints=100,StepSize=2)
 ----------------------------------------------------------------------

 Structure from the checkpoint file:  "1642764945472630600001_r12_insertion_R_5_4_3_IRC_F.chk"
 ------------------------------
 Gaussian input prepared by ASE
 ------------------------------
 Charge =  0 Multiplicity = 1

 SCF Done:  E(RM062X) =  -764.529110418     A.U. after   11 cycles
 SCF Done:  E(RM062X) =  -764.529128051     A.U. after   11 cycles
 SCF Done:  E(RM062X) =  -764.529157848     A.U. after   11 cycles
 SCF Done:  E(RM062X) =  -764.529200109     A.U. after   11 cycles
 SCF Done:  E(RM062X) =  -764.529255150     A.U. after   11 cycles
 SCF Done:  E(RM062X) =  -764.529323289     A.U. after   11 cycles
 SCF Done:  E(RM062X) =  -764.529404854     A.U. after   11 cycles
 SCF Done:  E(RM062X) =  -764.529500179     A.U. after   11 cycles
 SCF Done:  E(RM062X) =  -764.529609604     A.U. after   11 cycles
 SCF Done:  E(RM062X) =  -764.529733468     A.U. after   11 cycles
 SCF Done:  E(RM062X) =  -764.591160077     A.U. after   10 cycles
 SCF Done:  E(RM062X) =  -764.592177635     A.U. after   10 cycles
 SCF Done:  E(RM062X) =  -764.593189655     A.U. after   10 cycles
 SCF Done:  E(RM062X) =  -764.594195980     A.U. after   10 cycles
 SCF Done:  E(RM062X) =  -764.595196471     A.U. after   10 cycles
 SCF Done:  E(RM062X) =  -764.596191001     A.U. after   10 cycles
 SCF Done:  E(RM062X) =  -764.597179456     A.U. after   10 cycles
 SCF Done:  E(RM062X) =  -764.598161732     A.U. after   10 cycles
 SCF Done:  E(RM062X) =  -764.599137737     A.U. after   10 cycles
 SCF Done:  E(RM062X) =  -764.600107383     A.U. after   10 cycles

                          Input orientation:
 ---------------------------------------------------------------------
 Center     Atomic      Atomic             Coordinates (Angstroms)
 Number     Number       Type             X           Y           Z
 ---------------------------------------------------------------------
      1          6           0        1.132679    0.460733   -0.592060
      2          8           0        1.352938    1.543249   -0.144556
      3          6           0       -0.250789    0.060209   -0.926545
      4          6           0       -0.431326   -0.211933    0.863550
      5          9           0       -1.327502    0.678542    1.206829
      6          9           0       -0.800106   -1.467139    0.937659
      7          9           0        0.544601   -0.090553    1.813485
      8          9           0       -1.049176    0.998389   -1.424013
      9          9           0       -0.486493   -1.039070   -1.641373
     10          8           0        1.848478   -0.654317   -0.431666
     11          1           0        2.616134   -0.448078    0.119815
 ---------------------------------------------------------------------

 Normal termination of Gaussian 16 at Sat May 24 04:36:49 2025.
