 Gaussian 16, Revision C.01,
 Gaussian 16:  ES64L-G16RevC.01  3-Jul-2019

 ----------------------------------------------------------------------
 #P M062X/Def2TZVPP Symm(None) scf(xqc) pop(None) geom(AllCheck,NoKeepC
 onstants) guess(Read) irc(RCFC,forward,MaxPoints=100,StepSize=2)
 ----------------------------------------------------------------------

 Structure from the checkpoint file:  "1642764945472630600001_r13_insertion_ROR_4_3_1_2_IRC_F.chk"
 ------------------------------
 Gaussian input prepared by ASE
 ------------------------------
 Charge =  0 Multiplicity = 1

 SCF Done:  E(RM062X) =  -764.486369592     A.U. after   11 cycles
 SCF Done:  E(RM062X) =  -764.486480139     A.U. after   14 cycles
 SCF Done:  E(RM062X) =  -764.486670680     A.U. after   14 cycles
 SCF Done:  E(RM062X) =  -764.486946053     A.U. after   14 cycles
 SCF Done:  E(RM062X) =  -764.487310697     A.U. after   14 cycles
 SCF Done:  E(RM062X) =  -764.487768421     A.U. after   14 cycles
 SCF Done:  E(RM062X) =  -764.488322202     A.U. after   14 cycles
 SCF Done:  E(RM062X) =  -764.488974000     A.U. after   14 cycles
 SCF Done:  E(RM062X) =  -764.489724615     A.U. after   14 cycles
 SCF Done:  E(RM062X) =  -764.490573560     A.U. after   14 cycles
 SCF Done:  E(RM062X) =  -764.591925215     A.U. after    9 cycles
 SCF Done:  E(RM062X) =  -764.592526285     A.U. after    9 cycles
 SCF Done:  E(RM062X) =  -764.593116021     A.U. after    9 cycles
 SCF Done:  E(RM062X) =  -764.593694732     A.U. after    9 cycles
 SCF Done:  E(RM062X) =  -764.594262635     A.U. after    9 cycles
 SCF Done:  E(RM062X) =  -764.594819801     A.U. after    9 cycles
 SCF Done:  E(RM062X) =  -764.595363418     A.U. after    9 cycles
 SCF Done:  E(RM062X) =  -764.595897357     A.U. after    9 cycles
 SCF Done:  E(RM062X) =  -764.596386664     A.U. after    9 cycles
 SCF Done:  E(RM062X) =  -764.596424648     A.U. after    9 cycles

                          Input orientation:
 ---------------------------------------------------------------------
 Center     Atomic      Atomic             Coordinates (Angstroms)
 Number     Number       Type             X           Y           Z
 ---------------------------------------------------------------------
      1          6           0        1.056602    0.541775   -0.088968
      2          8           0       -0.056505    0.978772    0.604858
      3          6           0        1.246358   -0.759044   -0.212316
      4          6           0       -1.263223    0.401985    0.258150
      5          9           0       -1.367802   -0.910259    0.420582
      6          9           0       -2.151765    0.955293    1.051251
      7          9           0       -1.562342    0.621070   -1.020870
      8          9           0        1.915462   -1.326566   -1.181580
      9          9           0        0.806180   -1.612864    0.681870
     10          8           0        1.979711    1.444655   -0.456380
     11          1           0        1.587762    2.191875   -0.925628
 ---------------------------------------------------------------------

 Normal termination of Gaussian 16 at Sat May 24 07:08:38 2025.
