 Gaussian 16, Revision C.01,
 Gaussian 16:  ES64L-G16RevC.01  3-Jul-2019

 ----------------------------------------------------------------------
 #P M062X/Def2TZVPP Symm(None) scf(xqc) pop(None) opt(NoFreeze,TS,CalcA
 ll,NoEigentest,MaxCycle=999)
 ----------------------------------------------------------------------

 ------------------------------
 Gaussian input prepared by ASE
 ------------------------------
 Symbolic Z-matrix:
 Charge =  0 Multiplicity = 1

 SCF Done:  E(RM062X) =  -764.466446743     A.U. after   16 cycles
 SCF Done:  E(RM062X) =  -764.467613213     A.U. after   14 cycles
 SCF Done:  E(RM062X) =  -764.479820223     A.U. after   14 cycles
 SCF Done:  E(RM062X) =  -764.489166785     A.U. after   13 cycles
 SCF Done:  E(RM062X) =  -764.490620362     A.U. after   12 cycles
 SCF Done:  E(RM062X) =  -764.490635240     A.U. after    9 cycles

 Isotropic polarizability for W=    0.000000       50.02 Bohr**3.
 End of Minotr F.D. properties file   721 does not exist.

 Optimization completed.
    -- Stationary point found.

                          Input orientation:
 ---------------------------------------------------------------------
 Center     Atomic      Atomic             Coordinates (Angstroms)
 Number     Number       Type             X           Y           Z
 ---------------------------------------------------------------------
      1          6           0        1.414951    0.362636   -0.056043
      2          8           0        1.611025    0.281431    1.188579
      3          6           0       -0.313895    0.264023    0.033303
      4          6           0        0.034746    0.172743    1.525515
      5          9           0       -1.924556    0.114439    0.900534
      6          9           0       -0.075081   -0.961668    2.128378
      7          9           0       -0.189532    1.188989    2.286640
      8          9           0       -0.690846    1.408066   -0.501278
      9          9           0       -0.572086   -0.823055   -0.665475
     10          8           0        2.384702    0.475348   -0.887230
     11          1           0        3.250066    0.488461   -0.440822
 ---------------------------------------------------------------------

 ******    1 imaginary frequencies (negative Signs) ******

                      1                      2                      3
                      A                      A                      A
 Frequencies --   -681.8856               115.3134               137.5450
 Red. masses --     12.3380                12.6847                17.3495
 Frc consts  --      3.3800                 0.0994                 0.1934
 IR Inten    --     30.5541                 0.0002                 0.0772

                      4                      5                      6
                      A                      A                      A
 Frequencies --    157.9402               196.7616               319.7616
 Red. masses --     10.8578                 7.9308                18.4199
 Frc consts  --      0.1596                 0.1809                 1.1097
 IR Inten    --      7.1389                 0.0140                 6.3167

                      7                      8                      9
                      A                      A                      A
 Frequencies --    351.1942               371.1694               387.4314
 Red. masses --     13.3496                15.3706                16.2374
 Frc consts  --      0.9701                 1.2476                 1.4360
 IR Inten    --      6.2533               272.1326                 4.9817

                     10                     11                     12
                      A                      A                      A
 Frequencies --    410.3011               480.5961               488.2305
 Red. masses --     16.7888                15.0220                 8.8920
 Frc consts  --      1.6652                 2.0443                 1.2488
 IR Inten    --      2.6978                55.1768                48.1152

                     13                     14                     15
                      A                      A                      A
 Frequencies --    514.9362               611.8352               664.1025
 Red. masses --      8.9636                 1.8057                14.5786
 Frc consts  --      1.4004                 0.3982                 3.7882
 IR Inten    --      9.6372                58.2251               672.3448

                     16                     17                     18
                      A                      A                      A
 Frequencies --    688.7765               728.2774               762.2332
 Red. masses --     10.6705                 5.1949                 3.2048
 Frc consts  --      2.9826                 1.6234                 1.0970
 IR Inten    --     11.2930                78.4358                69.3810

                     19                     20                     21
                      A                      A                      A
 Frequencies --    815.1839              1202.2393              1239.1030
 Red. masses --     15.5819                 3.0242                 3.0245
 Frc consts  --      6.1007                 2.5754                 2.7360
 IR Inten    --    374.5517               248.2913               160.6361

                     22                     23                     24
                      A                      A                      A
 Frequencies --   1342.5349              1431.5903              1471.7492
 Red. masses --     13.2382                13.1131                 6.9804
 Frc consts  --     14.0583                15.8340                 8.9083
 IR Inten    --    340.9555               151.5854                43.3890

                     25                     26                     27
                      A                      A                      A
 Frequencies --   1515.5992              1647.8407              3701.9787
 Red. masses --      6.1122                12.4978                 1.0640
 Frc consts  --      8.2721                19.9946                 8.5911
 IR Inten    --     75.7596               284.4745               117.4701

 - Thermochemistry -
 -------------------
 Temperature   298.150 Kelvin.  Pressure   1.00000 Atm.
 Atom     1 has atomic number  6 and mass  12.00000

 Molecular mass:   163.98967 amu.
 Principal axes and moments of inertia in atomic units:
                           1         2         3
     Eigenvalues --   990.428771343.836701677.36520
           X            0.83050   0.55449  -0.05300
           Y            0.08472  -0.03170   0.99590
           Z           -0.55054   0.83158   0.07330
 This molecule is an asymmetric top.
 Rotational symmetry number  1.
 Warning -- assumption of classical behavior for rotation
           may cause significant error
 Rotational temperatures (Kelvin)      0.08745     0.06445     0.05164
 Rotational constants (GHZ):           1.82218     1.34298     1.07594
    1 imaginary frequencies ignored.
 Zero-point vibrational energy     130119.2 (Joules/Mol)
                                   31.09923 (Kcal/Mol)
 Warning -- explicit consideration of  13 degrees of freedom as
           vibrations may cause significant error
 Vibrational temperatures:    165.91   197.90   227.24   283.10   460.07
          (Kelvin)            505.29   534.03   557.43   590.33   691.47
                              702.45   740.88   880.29   955.50   991.00
                             1047.83  1096.68  1172.87  1729.75  1782.79
                             1931.61  2059.74  2117.52  2180.61  2370.88
                             5326.32

 Zero-point correction=                           0.049560 (Hartree/Particle)
 Thermal correction to Energy=                    0.058084
 Thermal correction to Enthalpy=                  0.059028
 Thermal correction to Gibbs Free Energy=         0.015984
 Sum of electronic and zero-point Energies=           -764.441075
 Sum of electronic and thermal Energies=              -764.432551
 Sum of electronic and thermal Enthalpies=            -764.431607
 Sum of electronic and thermal Free Energies=         -764.474651

                     E (Thermal)             CV                S
                      KCal/Mol        Cal/Mol-Kelvin    Cal/Mol-Kelvin
 Total                   36.448             30.703             90.594
 Electronic               0.000              0.000              0.000
 Translational            0.889              2.981             41.192
 Rotational               0.889              2.981             29.192
 Vibrational             34.671             24.741             20.210
 Vibration     1          0.608              1.937              3.177
 Vibration     2          0.614              1.916              2.838
 Vibration     3          0.621              1.894              2.574
 Vibration     4          0.636              1.844              2.163
 Vibration     5          0.706              1.636              1.311
 Vibration     6          0.728              1.573              1.161
 Vibration     7          0.743              1.531              1.075
 Vibration     8          0.756              1.497              1.010
 Vibration     9          0.774              1.448              0.926
 Vibration    10          0.837              1.293              0.708
 Vibration    11          0.844              1.276              0.688
 Vibration    12          0.870              1.217              0.622
 Vibration    13          0.971              1.007              0.430

 Normal termination of Gaussian 16 at Sat May 24 02:23:19 2025.
