 Gaussian 16, Revision C.01,
 Gaussian 16:  ES64L-G16RevC.01  3-Jul-2019

 -----------------------------------------------------------------
 #P M062X/Def2TZVPP Symm(None) scf(xqc) pop(None) freq opt(CalcFC)
 -----------------------------------------------------------------

 ------------------------------
 Gaussian input prepared by ASE
 ------------------------------
 Symbolic Z-matrix:
 Charge =  0 Multiplicity = 1

 SCF Done:  E(RM062X) =  -764.655497427     A.U. after   13 cycles
 SCF Done:  E(RM062X) =  -764.667290819     A.U. after   12 cycles
 SCF Done:  E(RM062X) =  -764.668169404     A.U. after   13 cycles
 SCF Done:  E(RM062X) =  -764.668206500     A.U. after   13 cycles
 SCF Done:  E(RM062X) =  -764.668260615     A.U. after   12 cycles
 SCF Done:  E(RM062X) =  -764.668263622     A.U. after    9 cycles
 SCF Done:  E(RM062X) =  -764.668263904     A.U. after    8 cycles
 SCF Done:  E(RM062X) =  -764.668264001     A.U. after    9 cycles
 Optimization completed.
    -- Stationary point found.
 Normal termination of Gaussian 16 at Sat May 24 04:57:39 2025.

 ---------------------------------------------------------------------
 #P Geom=AllCheck Guess=TCheck SCRF=Check GenChk RM062X/def2TZVPP Freq
 ---------------------------------------------------------------------

 Structure from the checkpoint file:  "1642764945472630600001_r12_insertion_R_3_1_2_IRC_R_prod.chk"
 ------------------------------
 Gaussian input prepared by ASE
 ------------------------------
 Charge =  0 Multiplicity = 1

                          Input orientation:
 ---------------------------------------------------------------------
 Center     Atomic      Atomic             Coordinates (Angstroms)
 Number     Number       Type             X           Y           Z
 ---------------------------------------------------------------------
      1          6           0        1.430601   -0.136582   -0.627663
      2          8           0        2.121356   -1.102781   -0.644033
      3          6           0       -0.111182   -0.210230   -0.581228
      4          6           0       -0.680355    0.139712    0.811009
      5          9           0       -1.986358   -0.072077    0.829940
      6          9           0       -0.103755   -0.626106    1.730798
      7          9           0       -0.447415    1.410369    1.105628
      8          9           0       -0.645124    0.637081   -1.473852
      9          9           0       -0.492016   -1.452912   -0.876595
     10          8           0        1.837889    1.128497   -0.634114
     11          1           0        2.805172    1.137199   -0.648217
 ---------------------------------------------------------------------

 SCF Done:  E(RM062X) =  -764.668264001     A.U. after    1 cycles

 Isotropic polarizability for W=    0.000000       43.86 Bohr**3.
 End of Minotr F.D. properties file   721 does not exist.

                      1                      2                      3
                      A                      A                      A
 Frequencies --     18.8921                65.6014               144.5489
 Red. masses --     12.9205                16.4502                10.2744
 Frc consts  --      0.0027                 0.0417                 0.1265
 IR Inten    --      1.4571                 0.4045                 0.9868

                      4                      5                      6
                      A                      A                      A
 Frequencies --    215.9741               249.0530               288.1020
 Red. masses --     17.3792                12.1922                14.7591
 Frc consts  --      0.4776                 0.4456                 0.7218
 IR Inten    --      1.5473                 1.1955                 1.4219

                      7                      8                      9
                      A                      A                      A
 Frequencies --    359.9535               380.0784               384.5345
 Red. masses --     16.5377                15.5935                13.6475
 Frc consts  --      1.2625                 1.3272                 1.1890
 IR Inten    --      0.3769                 0.8269                 0.6238

                     10                     11                     12
                      A                      A                      A
 Frequencies --    504.3615               548.8944               553.9335
 Red. masses --      8.1839                 6.2358                 2.7641
 Frc consts  --      1.2266                 1.1069                 0.4997
 IR Inten    --      5.8923                16.1542                18.1138

                     13                     14                     15
                      A                      A                      A
 Frequencies --    617.0893               637.6323               693.1694
 Red. masses --      7.2658                 2.9956                 4.5263
 Frc consts  --      1.6302                 0.7176                 1.2814
 IR Inten    --     15.0604                78.5235               102.4667

                     16                     17                     18
                      A                      A                      A
 Frequencies --    789.5680               798.0864              1062.6563
 Red. masses --     12.1776                 8.6593                11.7473
 Frc consts  --      4.4729                 3.2496                 7.8158
 IR Inten    --      2.5612                21.3535               124.2987

                     19                     20                     21
                      A                      A                      A
 Frequencies --   1188.4953              1229.7710              1277.4715
 Red. masses --      3.1173                 4.2135                10.1539
 Frc consts  --      2.5943                 3.7544                 9.7631
 IR Inten    --    246.5399               185.7899                43.0126

                     22                     23                     24
                      A                      A                      A
 Frequencies --   1290.5171              1297.2352              1383.1750
 Red. masses --     13.3082                 7.5522                 7.8492
 Frc consts  --     13.0586                 7.4879                 8.8476
 IR Inten    --    360.2449               147.8410               126.5086

                     25                     26                     27
                      A                      A                      A
 Frequencies --   1436.2731              1921.0969              3808.4410
 Red. masses --      5.1127                11.7345                 1.0646
 Frc consts  --      6.2141                25.5160                 9.0980
 IR Inten    --     54.2714               331.0399               129.5775

 - Thermochemistry -
 -------------------
 Temperature   298.150 Kelvin.  Pressure   1.00000 Atm.
 Atom     1 has atomic number  6 and mass  12.00000

 Molecular mass:   163.98967 amu.
 Principal axes and moments of inertia in atomic units:
                           1         2         3
     Eigenvalues --   948.518891520.997121601.78889
           X            0.84387   0.41045  -0.34556
           Y           -0.08609   0.73927   0.66788
           Z           -0.52959   0.53386  -0.65919
 This molecule is an asymmetric top.
 Rotational symmetry number  1.
 Warning -- assumption of classical behavior for rotation
           may cause significant error
 Rotational temperatures (Kelvin)      0.09131     0.05695     0.05407
 Rotational constants (GHZ):           1.90269     1.18655     1.12670
 Zero-point vibrational energy     138435.5 (Joules/Mol)
                                   33.08687 (Kcal/Mol)
 Warning -- explicit consideration of  13 degrees of freedom as
           vibrations may cause significant error
 Vibrational temperatures:     27.18    94.39   207.97   310.74   358.33
          (Kelvin)            414.51   517.89   546.85   553.26   725.66
                              789.74   796.99   887.85   917.41   997.32
                             1136.01  1148.27  1528.93  1709.98  1769.37
                             1838.00  1856.77  1866.43  1990.08  2066.48
                             2764.03  5479.50

 Zero-point correction=                           0.052727 (Hartree/Particle)
 Thermal correction to Energy=                    0.061658
 Thermal correction to Enthalpy=                  0.062602
 Thermal correction to Gibbs Free Energy=         0.016922
 Sum of electronic and zero-point Energies=           -764.615537
 Sum of electronic and thermal Energies=              -764.606606
 Sum of electronic and thermal Enthalpies=            -764.605662
 Sum of electronic and thermal Free Energies=         -764.651342

                     E (Thermal)             CV                S
                      KCal/Mol        Cal/Mol-Kelvin    Cal/Mol-Kelvin
 Total                   38.691             30.696             96.141
 Electronic               0.000              0.000              0.000
 Translational            0.889              2.981             41.192
 Rotational               0.889              2.981             29.226
 Vibrational             36.913             24.735             25.723
 Vibration     1          0.593              1.986              6.747
 Vibration     2          0.597              1.971              4.281
 Vibration     3          0.616              1.909              2.743
 Vibration     4          0.645              1.817              1.993
 Vibration     5          0.662              1.764              1.737
 Vibration     6          0.685              1.696              1.485
 Vibration     7          0.734              1.555              1.122
 Vibration     8          0.750              1.513              1.039
 Vibration     9          0.753              1.503              1.021
 Vibration    10          0.860              1.240              0.647
 Vibration    11          0.904              1.142              0.546
 Vibration    12          0.909              1.131              0.536
 Vibration    13          0.977              0.996              0.421

 Optimization completed.
    -- Stationary point found.
 Normal termination of Gaussian 16 at Sat May 24 05:01:10 2025.
