 Gaussian 16, Revision C.01,
 Gaussian 16:  ES64L-G16RevC.01  3-Jul-2019

 ----------------------------------------------------------------------
 #P M062X/Def2TZVPP Symm(None) scf(xqc) pop(None) geom(AllCheck,NoKeepC
 onstants) guess(Read) irc(RCFC,reverse,MaxPoints=100,StepSize=2)
 ----------------------------------------------------------------------

 Structure from the checkpoint file:  "1642764945472630600001_r13_insertion_CO2_3_11_IRC_R.chk"
 ------------------------------
 Gaussian input prepared by ASE
 ------------------------------
 Charge =  0 Multiplicity = 1

 SCF Done:  E(RM062X) =  -764.545362269     A.U. after   10 cycles
 SCF Done:  E(RM062X) =  -764.545459113     A.U. after   11 cycles
 SCF Done:  E(RM062X) =  -764.545616703     A.U. after   11 cycles
 SCF Done:  E(RM062X) =  -764.545831920     A.U. after   11 cycles
 SCF Done:  E(RM062X) =  -764.546101693     A.U. after   11 cycles
 SCF Done:  E(RM062X) =  -764.546422955     A.U. after   11 cycles
 SCF Done:  E(RM062X) =  -764.546792588     A.U. after   11 cycles
 SCF Done:  E(RM062X) =  -764.547207420     A.U. after   10 cycles
 SCF Done:  E(RM062X) =  -764.547664289     A.U. after   10 cycles
 SCF Done:  E(RM062X) =  -764.548160120     A.U. after   10 cycles
 SCF Done:  E(RM062X) =  -764.605461856     A.U. after    9 cycles
 SCF Done:  E(RM062X) =  -764.606005119     A.U. after    9 cycles
 SCF Done:  E(RM062X) =  -764.606544038     A.U. after    9 cycles
 SCF Done:  E(RM062X) =  -764.607078652     A.U. after    9 cycles
 SCF Done:  E(RM062X) =  -764.607609001     A.U. after    9 cycles
 SCF Done:  E(RM062X) =  -764.608135124     A.U. after    9 cycles
 SCF Done:  E(RM062X) =  -764.608657058     A.U. after    9 cycles
 SCF Done:  E(RM062X) =  -764.609174843     A.U. after    9 cycles
 SCF Done:  E(RM062X) =  -764.609688517     A.U. after    9 cycles
 SCF Done:  E(RM062X) =  -764.610198122     A.U. after    9 cycles

                          Input orientation:
 ---------------------------------------------------------------------
 Center     Atomic      Atomic             Coordinates (Angstroms)
 Number     Number       Type             X           Y           Z
 ---------------------------------------------------------------------
      1          6           0        1.731656   -0.180499   -0.656695
      2          8           0        2.134548   -1.267976   -0.850376
      3          6           0       -0.195899    0.150731   -0.583791
      4          6           0       -0.791400   -0.014930    0.833761
      5          9           0       -2.105537   -0.220365    0.827525
      6          9           0       -0.205877   -1.059842    1.402502
      7          9           0       -0.549189    1.066540    1.578250
      8          9           0       -0.839705    1.265174   -1.097233
      9          9           0       -0.575390   -0.881636   -1.318759
     10          8           0        2.287239    0.997413   -0.474743
     11          1           0        1.560831    1.624047   -0.372424
 ---------------------------------------------------------------------

 Normal termination of Gaussian 16 at Sat May 24 06:47:58 2025.
