 Gaussian 16, Revision C.01,
 Gaussian 16:  ES64L-G16RevC.01  3-Jul-2019

 -----------------------------------------------------------------
 #P M062X/Def2TZVPP Symm(None) scf(xqc) pop(None) freq opt(CalcFC)
 -----------------------------------------------------------------

 ------------------------------
 Gaussian input prepared by ASE
 ------------------------------
 Symbolic Z-matrix:
 Charge =  0 Multiplicity = 1

 SCF Done:  E(RM062X) =  -764.557763805     A.U. after   15 cycles
 SCF Done:  E(RM062X) =  -764.565621843     A.U. after   13 cycles
 SCF Done:  E(RM062X) =  -764.575441859     A.U. after   13 cycles
 SCF Done:  E(RM062X) =  -764.577830901     A.U. after   16 cycles
 SCF Done:  E(RM062X) =  -764.560628615     A.U. after   14 cycles
 SCF Done:  E(RM062X) =  -764.579991943     A.U. after   14 cycles
 SCF Done:  E(RM062X) =  -764.537716963     A.U. after   13 cycles
 SCF Done:  E(RM062X) =  -764.580254831     A.U. after   12 cycles
 SCF Done:  E(RM062X) =  -764.580302870     A.U. after   11 cycles
 SCF Done:  E(RM062X) =  -764.580327517     A.U. after   11 cycles
 SCF Done:  E(RM062X) =  -764.580349065     A.U. after   11 cycles
 SCF Done:  E(RM062X) =  -764.580353904     A.U. after   11 cycles
 SCF Done:  E(RM062X) =  -764.580358722     A.U. after   10 cycles
 SCF Done:  E(RM062X) =  -764.580360289     A.U. after    9 cycles
 SCF Done:  E(RM062X) =  -764.580360571     A.U. after    7 cycles
 SCF Done:  E(RM062X) =  -764.580360800     A.U. after    7 cycles
 SCF Done:  E(RM062X) =  -764.580360987     A.U. after    8 cycles
 SCF Done:  E(RM062X) =  -764.580361107     A.U. after    8 cycles
 SCF Done:  E(RM062X) =  -764.580361161     A.U. after    7 cycles
 Optimization completed.
    -- Stationary point found.
 Normal termination of Gaussian 16 at Sat May 24 04:50:53 2025.

 ---------------------------------------------------------------------
 #P Geom=AllCheck Guess=TCheck SCRF=Check GenChk RM062X/def2TZVPP Freq
 ---------------------------------------------------------------------

 Structure from the checkpoint file:  "1642764945472630600001_r12_insertion_R_5_4_3_IRC_R_prod.chk"
 ------------------------------
 Gaussian input prepared by ASE
 ------------------------------
 Charge =  0 Multiplicity = 1

                          Input orientation:
 ---------------------------------------------------------------------
 Center     Atomic      Atomic             Coordinates (Angstroms)
 Number     Number       Type             X           Y           Z
 ---------------------------------------------------------------------
      1          6           0        1.220586    0.371257    0.330427
      2          8           0        1.289654    1.506645   -0.015090
      3          6           0       -0.816924   -0.130123   -1.858798
      4          6           0        0.094997   -0.153097    1.246436
      5          9           0       -0.989147    0.595982    1.117620
      6          9           0       -0.223690   -1.413940    0.988914
      7          9           0        0.508901   -0.079435    2.512834
      8          9           0       -1.269480    1.032425   -2.179905
      9          9           0       -1.534210   -0.966967   -2.531179
     10          8           0        2.097670   -0.591214    0.072889
     11          1           0        2.810818   -0.213202   -0.459517
 ---------------------------------------------------------------------

 SCF Done:  E(RM062X) =  -764.580361161     A.U. after    1 cycles

 Isotropic polarizability for W=    0.000000       46.14 Bohr**3.
 End of Minotr F.D. properties file   721 does not exist.

 ******    1 imaginary frequencies (negative Signs) ******

                      1                      2                      3
                      A                      A                      A
 Frequencies --     -5.2064                27.6806                35.0662
 Red. masses --     17.7150                18.0005                14.9073
 Frc consts  --      0.0003                 0.0081                 0.0108
 IR Inten    --      0.0645                 0.5684                 1.1451

                      4                      5                      6
                      A                      A                      A
 Frequencies --     58.9233                73.8913               104.0770
 Red. masses --     11.4817                15.7246                15.3902
 Frc consts  --      0.0235                 0.0506                 0.0982
 IR Inten    --      2.7020                 0.0244                 0.2264

                      7                      8                      9
                      A                      A                      A
 Frequencies --    150.3312               243.9800               247.7643
 Red. masses --     11.8245                10.9078                10.1840
 Frc consts  --      0.1574                 0.3826                 0.3683
 IR Inten    --      0.4457                 1.2935                 0.4810

                     10                     11                     12
                      A                      A                      A
 Frequencies --    395.0883               434.1845               514.6854
 Red. masses --     11.7341                15.6778                 4.6712
 Frc consts  --      1.0792                 1.7413                 0.7291
 IR Inten    --      2.3174                 0.1056                 1.5353

                     13                     14                     15
                      A                      A                      A
 Frequencies --    596.1883               601.3856               681.8728
 Red. masses --      1.6464                 6.4390                 4.8964
 Frc consts  --      0.3448                 1.3721                 1.3413
 IR Inten    --     93.2060                21.2736                75.9952

                     16                     17                     18
                      A                      A                      A
 Frequencies --    694.6978               800.8024               824.9406
 Red. masses --     17.6539                 9.6040                 8.7484
 Frc consts  --      5.0198                 3.6287                 3.5077
 IR Inten    --      5.9786                57.1459                 6.0246

                     19                     20                     21
                      A                      A                      A
 Frequencies --   1178.4809              1204.9285              1235.8870
 Red. masses --      4.3597                13.6485                 5.2570
 Frc consts  --      3.5674                11.6750                 4.7309
 IR Inten    --    283.0900               312.4417               325.4362

                     22                     23                     24
                      A                      A                      A
 Frequencies --   1257.1459              1299.9360              1304.6842
 Red. masses --      3.3670                 9.6243                 9.9938
 Frc consts  --      3.1352                 9.5821                10.0229
 IR Inten    --    241.4750                77.4753               212.2548

                     25                     26                     27
                      A                      A                      A
 Frequencies --   1463.5956              1922.1473              3814.2622
 Red. masses --      5.4180                11.6338                 1.0646
 Frc consts  --      6.8380                25.3248                 9.1254
 IR Inten    --     60.9628               305.7463               119.1206

 - Thermochemistry -
 -------------------
 Temperature   298.150 Kelvin.  Pressure   1.00000 Atm.
 Atom     1 has atomic number  6 and mass  12.00000

 Molecular mass:   163.98967 amu.
 Principal axes and moments of inertia in atomic units:
                           1         2         3
     Eigenvalues --   992.311712257.557332417.11369
           X            0.46693   0.77838  -0.41964
           Y           -0.01179   0.47999   0.87720
           Z            0.88422  -0.40464   0.23330
 This molecule is an asymmetric top.
 Rotational symmetry number  1.
 Warning -- assumption of classical behavior for rotation
           may cause significant error
 Rotational temperatures (Kelvin)      0.08728     0.03837     0.03583
 Rotational constants (GHZ):           1.81872     0.79942     0.74665
    1 imaginary frequencies ignored.
 Zero-point vibrational energy     126604.5 (Joules/Mol)
                                   30.25921 (Kcal/Mol)
 Warning -- explicit consideration of  13 degrees of freedom as
           vibrations may cause significant error
 Vibrational temperatures:     39.83    50.45    84.78   106.31   149.74
          (Kelvin)            216.29   351.03   356.48   568.44   624.69
                              740.52   857.78   865.26   981.06   999.52
                             1152.18  1186.91  1695.57  1733.62  1778.17
                             1808.75  1870.32  1877.15  2105.79  2765.54
                             5487.87

 Zero-point correction=                           0.048221 (Hartree/Particle)
 Thermal correction to Energy=                    0.058361
 Thermal correction to Enthalpy=                  0.059306
 Thermal correction to Gibbs Free Energy=         0.009184
 Sum of electronic and zero-point Energies=           -764.532140
 Sum of electronic and thermal Energies=              -764.522000
 Sum of electronic and thermal Enthalpies=            -764.521056
 Sum of electronic and thermal Free Energies=         -764.571177

                     E (Thermal)             CV                S
                      KCal/Mol        Cal/Mol-Kelvin    Cal/Mol-Kelvin
 Total                   36.622             31.551            105.489
 Electronic               0.000              0.000              0.000
 Translational            0.889              2.981             41.192
 Rotational               0.889              2.981             30.072
 Vibrational             34.845             25.589             34.224
 Vibration     1          0.593              1.984              5.989
 Vibration     2          0.594              1.982              5.520
 Vibration     3          0.596              1.974              4.493
 Vibration     4          0.599              1.966              4.047
 Vibration     5          0.605              1.946              3.376
 Vibration     6          0.618              1.902              2.668
 Vibration     7          0.659              1.773              1.774
 Vibration     8          0.661              1.766              1.746
 Vibration     9          0.762              1.481              0.981
 Vibration    10          0.795              1.396              0.845
 Vibration    11          0.870              1.217              0.622
 Vibration    12          0.954              1.040              0.456
 Vibration    13          0.960              1.029              0.447

                           ! Non-Optimized Parameters !
 Normal termination of Gaussian 16 at Sat May 24 04:53:49 2025.
