 Gaussian 16, Revision C.01,
 Gaussian 16:  ES64L-G16RevC.01  3-Jul-2019

 -----------------------------------------------------------------
 #P M062X/Def2TZVPP Symm(None) scf(xqc) pop(None) freq opt(CalcFC)
 -----------------------------------------------------------------

 ------------------------------
 Gaussian input prepared by ASE
 ------------------------------
 Symbolic Z-matrix:
 Charge =  0 Multiplicity = 1

 SCF Done:  E(RM062X) =  -764.653737268     A.U. after   14 cycles
 SCF Done:  E(RM062X) =  -764.665950146     A.U. after   12 cycles
 SCF Done:  E(RM062X) =  -764.666923702     A.U. after   13 cycles
 SCF Done:  E(RM062X) =  -764.667493737     A.U. after   13 cycles
 SCF Done:  E(RM062X) =  -764.666740391     A.U. after   14 cycles
 SCF Done:  E(RM062X) =  -764.668076097     A.U. after   12 cycles
 SCF Done:  E(RM062X) =  -764.668177368     A.U. after   13 cycles
 SCF Done:  E(RM062X) =  -764.668228357     A.U. after   11 cycles
 SCF Done:  E(RM062X) =  -764.668250219     A.U. after   12 cycles
 SCF Done:  E(RM062X) =  -764.668261417     A.U. after   12 cycles
 SCF Done:  E(RM062X) =  -764.668266574     A.U. after   12 cycles
 SCF Done:  E(RM062X) =  -764.668266673     A.U. after    8 cycles
 SCF Done:  E(RM062X) =  -764.668266692     A.U. after    8 cycles
 Optimization completed.
    -- Stationary point found.
 Normal termination of Gaussian 16 at Sat May 24 04:50:20 2025.

 ---------------------------------------------------------------------
 #P Geom=AllCheck Guess=TCheck SCRF=Check GenChk RM062X/def2TZVPP Freq
 ---------------------------------------------------------------------

 Structure from the checkpoint file:  "1642764945472630600001_r12_insertion_R_2_1_3_IRC_F_prod.chk"
 ------------------------------
 Gaussian input prepared by ASE
 ------------------------------
 Charge =  0 Multiplicity = 1

                          Input orientation:
 ---------------------------------------------------------------------
 Center     Atomic      Atomic             Coordinates (Angstroms)
 Number     Number       Type             X           Y           Z
 ---------------------------------------------------------------------
      1          6           0        1.368270    0.152092   -0.745544
      2          8           0        2.347506   -0.509696   -0.627032
      3          6           0       -0.049176   -0.391223   -0.461857
      4          6           0       -0.634234    0.140358    0.864864
      5          9           0       -0.847247    1.445990    0.792341
      6          9           0       -1.780297   -0.466660    1.127426
      7          9           0        0.220019   -0.100345    1.853639
      8          9           0       -0.886135   -0.048167   -1.452663
      9          9           0        0.008015   -1.720205   -0.378882
     10          8           0        1.314154    1.427262   -1.116222
     11          1           0        2.217003    1.738432   -1.270927
 ---------------------------------------------------------------------

 SCF Done:  E(RM062X) =  -764.668266692     A.U. after    1 cycles

 Isotropic polarizability for W=    0.000000       43.87 Bohr**3.
 End of Minotr F.D. properties file   721 does not exist.

                      1                      2                      3
                      A                      A                      A
 Frequencies --     18.6939                66.3473               145.1076
 Red. masses --     12.9515                16.5286                10.1866
 Frc consts  --      0.0027                 0.0429                 0.1264
 IR Inten    --      1.4360                 0.3882                 0.9965

                      4                      5                      6
                      A                      A                      A
 Frequencies --    217.1188               249.1641               287.7444
 Red. masses --     17.3057                12.1823                14.5942
 Frc consts  --      0.4807                 0.4456                 0.7119
 IR Inten    --      1.5812                 1.1926                 1.3571

                      7                      8                      9
                      A                      A                      A
 Frequencies --    360.0969               379.9206               384.6330
 Red. masses --     16.5470                15.5221                13.6588
 Frc consts  --      1.2642                 1.3200                 1.1906
 IR Inten    --      0.3660                 0.8530                 0.6134

                     10                     11                     12
                      A                      A                      A
 Frequencies --    503.2638               548.0628               552.0292
 Red. masses --      7.5396                 3.6032                 3.7923
 Frc consts  --      1.1251                 0.6377                 0.6809
 IR Inten    --      5.8330                21.9221                16.1859

                     13                     14                     15
                      A                      A                      A
 Frequencies --    616.2601               636.0328               692.9877
 Red. masses --      6.8403                 3.3437                 4.5882
 Frc consts  --      1.5306                 0.7970                 1.2982
 IR Inten    --     18.2890                73.3665               100.9469

                     16                     17                     18
                      A                      A                      A
 Frequencies --    789.5962               797.8489              1062.5349
 Red. masses --     12.2799                 8.7521                11.7359
 Frc consts  --      4.5108                 3.2825                 7.8064
 IR Inten    --      2.6823                20.8670               123.9086

                     19                     20                     21
                      A                      A                      A
 Frequencies --   1188.0619              1229.7906              1277.2219
 Red. masses --      3.1105                 4.2077                10.3845
 Frc consts  --      2.5868                 3.7494                 9.9809
 IR Inten    --    247.7118               186.6645                42.5883

                     22                     23                     24
                      A                      A                      A
 Frequencies --   1290.8120              1297.4514              1382.8723
 Red. masses --     13.2676                 7.5151                 7.8159
 Frc consts  --     13.0247                 7.4536                 8.8063
 IR Inten    --    360.9001               144.7645               127.4473

                     25                     26                     27
                      A                      A                      A
 Frequencies --   1435.8319              1920.9805              3809.0648
 Red. masses --      5.1223                11.7388                 1.0646
 Frc consts  --      6.2219                25.5222                 9.1010
 IR Inten    --     54.1771               331.1051               129.7657

 - Thermochemistry -
 -------------------
 Temperature   298.150 Kelvin.  Pressure   1.00000 Atm.
 Atom     1 has atomic number  6 and mass  12.00000

 Molecular mass:   163.98967 amu.
 Principal axes and moments of inertia in atomic units:
                           1         2         3
     Eigenvalues --   948.349531519.941381603.04557
           X            0.79454   0.15846   0.58617
           Y            0.03849   0.95026  -0.30907
           Z           -0.60599   0.26813   0.74892
 This molecule is an asymmetric top.
 Rotational symmetry number  1.
 Warning -- assumption of classical behavior for rotation
           may cause significant error
 Rotational temperatures (Kelvin)      0.09133     0.05699     0.05403
 Rotational constants (GHZ):           1.90303     1.18738     1.12582
 Zero-point vibrational energy     138405.1 (Joules/Mol)
                                   33.07962 (Kcal/Mol)
 Warning -- explicit consideration of  13 degrees of freedom as
           vibrations may cause significant error
 Vibrational temperatures:     26.90    95.46   208.78   312.39   358.49
          (Kelvin)            414.00   518.10   546.62   553.40   724.08
                              788.54   794.25   886.66   915.11   997.05
                             1136.05  1147.93  1528.75  1709.36  1769.39
                             1837.64  1857.19  1866.74  1989.64  2065.84
                             2763.86  5480.39

 Zero-point correction=                           0.052716 (Hartree/Particle)
 Thermal correction to Energy=                    0.061647
 Thermal correction to Enthalpy=                  0.062591
 Thermal correction to Gibbs Free Energy=         0.016913
 Sum of electronic and zero-point Energies=           -764.615551
 Sum of electronic and thermal Energies=              -764.606620
 Sum of electronic and thermal Enthalpies=            -764.605676
 Sum of electronic and thermal Free Energies=         -764.651354

                     E (Thermal)             CV                S
                      KCal/Mol        Cal/Mol-Kelvin    Cal/Mol-Kelvin
 Total                   38.684             30.709             96.137
 Electronic               0.000              0.000              0.000
 Translational            0.889              2.981             41.192
 Rotational               0.889              2.981             29.226
 Vibrational             36.906             24.747             25.718
 Vibration     1          0.593              1.986              6.768
 Vibration     2          0.598              1.970              4.259
 Vibration     3          0.616              1.908              2.735
 Vibration     4          0.646              1.815              1.983
 Vibration     5          0.662              1.764              1.736
 Vibration     6          0.685              1.696              1.487
 Vibration     7          0.735              1.554              1.122
 Vibration     8          0.750              1.513              1.039
 Vibration     9          0.754              1.503              1.021
 Vibration    10          0.859              1.243              0.650
 Vibration    11          0.903              1.144              0.548
 Vibration    12          0.907              1.135              0.540
 Vibration    13          0.976              0.998              0.423

                           ! Non-Optimized Parameters !
 Normal termination of Gaussian 16 at Sat May 24 04:53:47 2025.
