 Gaussian 16, Revision C.01,
 Gaussian 16:  ES64L-G16RevC.01  3-Jul-2019

 ----------------------------------------------------------------------
 #P M062X/Def2TZVPP Symm(None) scf(xqc) pop(None) geom(AllCheck,NoKeepC
 onstants) guess(Read) irc(RCFC,forward,MaxPoints=100,StepSize=2)
 ----------------------------------------------------------------------

 Structure from the checkpoint file:  "1642764945472630600001_r12_insertion_R_4_3_1_IRC_F.chk"
 ------------------------------
 Gaussian input prepared by ASE
 ------------------------------
 Charge =  0 Multiplicity = 1

 SCF Done:  E(RM062X) =  -764.457842958     A.U. after   10 cycles
 SCF Done:  E(RM062X) =  -764.457949553     A.U. after   12 cycles
 SCF Done:  E(RM062X) =  -764.458125339     A.U. after   12 cycles
 SCF Done:  E(RM062X) =  -764.458368614     A.U. after   12 cycles
 SCF Done:  E(RM062X) =  -764.458677587     A.U. after   12 cycles
 SCF Done:  E(RM062X) =  -764.459050379     A.U. after   12 cycles
 SCF Done:  E(RM062X) =  -764.459485027     A.U. after   11 cycles
 SCF Done:  E(RM062X) =  -764.459979488     A.U. after   11 cycles
 SCF Done:  E(RM062X) =  -764.460531633     A.U. after   11 cycles
 SCF Done:  E(RM062X) =  -764.461139256     A.U. after   11 cycles
 SCF Done:  E(RM062X) =  -764.549052512     A.U. after   10 cycles
 SCF Done:  E(RM062X) =  -764.549796724     A.U. after   10 cycles
 SCF Done:  E(RM062X) =  -764.550525951     A.U. after   10 cycles
 SCF Done:  E(RM062X) =  -764.551240270     A.U. after   10 cycles
 SCF Done:  E(RM062X) =  -764.551939802     A.U. after   10 cycles
 SCF Done:  E(RM062X) =  -764.552624689     A.U. after   10 cycles
 SCF Done:  E(RM062X) =  -764.553295063     A.U. after   10 cycles
 SCF Done:  E(RM062X) =  -764.553951034     A.U. after   10 cycles
 SCF Done:  E(RM062X) =  -764.554592702     A.U. after   10 cycles
 SCF Done:  E(RM062X) =  -764.555220172     A.U. after   10 cycles

                          Input orientation:
 ---------------------------------------------------------------------
 Center     Atomic      Atomic             Coordinates (Angstroms)
 Number     Number       Type             X           Y           Z
 ---------------------------------------------------------------------
      1          6           0        1.069372    0.172596    0.000403
      2          8           0        1.776818   -0.779302   -0.063849
      3          6           0       -1.237123   -0.725669   -1.277246
      4          6           0       -0.178546    0.301174    0.973465
      5          9           0       -1.134812    1.155074    0.617367
      6          9           0       -0.781048   -0.828798    1.320817
      7          9           0        0.442428    0.789088    2.040695
      8          9           0       -0.641605    0.186682   -1.992730
      9          9           0       -0.392763   -1.701213   -1.236667
     10          8           0        1.323944    1.359911   -0.537426
     11          1           0        2.186108    1.309216   -0.973531
 ---------------------------------------------------------------------

 Normal termination of Gaussian 16 at Sat May 24 04:13:37 2025.
