 Gaussian 16, Revision C.01,
 Gaussian 16:  ES64L-G16RevC.01  3-Jul-2019

 -----------------------------------------------------------------
 #P M062X/Def2TZVPP Symm(None) scf(xqc) pop(None) freq opt(CalcFC)
 -----------------------------------------------------------------

 ------------------------------
 Gaussian input prepared by ASE
 ------------------------------
 Symbolic Z-matrix:
 Charge =  0 Multiplicity = 1

 SCF Done:  E(RM062X) =  -764.646662782     A.U. after   14 cycles
 SCF Done:  E(RM062X) =  -764.659879895     A.U. after   15 cycles
 SCF Done:  E(RM062X) =  -764.663004614     A.U. after   14 cycles
 SCF Done:  E(RM062X) =  -764.661781984     A.U. after   15 cycles
 SCF Done:  E(RM062X) =  -764.663776151     A.U. after   13 cycles
 SCF Done:  E(RM062X) =  -764.663882708     A.U. after   12 cycles
 SCF Done:  E(RM062X) =  -764.664016241     A.U. after   13 cycles
 SCF Done:  E(RM062X) =  -764.664167463     A.U. after   13 cycles
 SCF Done:  E(RM062X) =  -764.664360302     A.U. after   12 cycles
 SCF Done:  E(RM062X) =  -764.664373147     A.U. after   12 cycles
 SCF Done:  E(RM062X) =  -764.663877361     A.U. after   15 cycles
 SCF Done:  E(RM062X) =  -764.664308356     A.U. after   14 cycles
 SCF Done:  E(RM062X) =  -764.664487167     A.U. after   13 cycles
 SCF Done:  E(RM062X) =  -764.664277036     A.U. after   13 cycles
 SCF Done:  E(RM062X) =  -764.664054489     A.U. after   15 cycles
 SCF Done:  E(RM062X) =  -764.664524101     A.U. after   13 cycles
 SCF Done:  E(RM062X) =  -764.664553343     A.U. after   12 cycles
 SCF Done:  E(RM062X) =  -764.664559069     A.U. after   12 cycles
 SCF Done:  E(RM062X) =  -764.664559204     A.U. after    8 cycles
 Optimization completed.
    -- Stationary point found.
 Normal termination of Gaussian 16 at Sat May 24 05:56:37 2025.

 ---------------------------------------------------------------------
 #P Geom=AllCheck Guess=TCheck SCRF=Check GenChk RM062X/def2TZVPP Freq
 ---------------------------------------------------------------------

 Structure from the checkpoint file:  "1642764945472630600001_r12_insertion_R_10_1_2_IRC_R_prod.chk"
 ------------------------------
 Gaussian input prepared by ASE
 ------------------------------
 Charge =  0 Multiplicity = 1

                          Input orientation:
 ---------------------------------------------------------------------
 Center     Atomic      Atomic             Coordinates (Angstroms)
 Number     Number       Type             X           Y           Z
 ---------------------------------------------------------------------
      1          6           0        1.423968    0.011472   -0.717888
      2          8           0        2.295015    0.510126   -0.088205
      3          6           0       -0.043579    0.471883   -0.529952
      4          6           0       -0.656572   -0.073077    0.775778
      5          9           0       -1.936115    0.257970    0.848076
      6          9           0       -0.555405   -1.401647    0.776224
      7          9           0       -0.023374    0.408760    1.827927
      8          9           0       -0.104913    1.801375   -0.512502
      9          9           0       -0.810498    0.014546   -1.548952
     10          8           0        1.601460   -0.968089   -1.598151
     11          1           0        0.774238   -1.206505   -2.034009
 ---------------------------------------------------------------------

 SCF Done:  E(RM062X) =  -764.664559204     A.U. after    1 cycles

 Isotropic polarizability for W=    0.000000       43.65 Bohr**3.
 End of Minotr F.D. properties file   721 does not exist.

                      1                      2                      3
                      A                      A                      A
 Frequencies --     29.3418                63.4475               142.6100
 Red. masses --      9.4075                14.8617                16.6643
 Frc consts  --      0.0048                 0.0352                 0.1997
 IR Inten    --      4.1784                 0.8545                 2.2914

                      4                      5                      6
                      A                      A                      A
 Frequencies --    215.0012               266.1000               292.8133
 Red. masses --     16.9546                13.5910                17.3912
 Frc consts  --      0.4618                 0.5670                 0.8785
 IR Inten    --      3.9627                 5.7202                 5.9306

                      7                      8                      9
                      A                      A                      A
 Frequencies --    360.2366               376.6733               395.2547
 Red. masses --     16.8526                 9.3799                16.1014
 Frc consts  --      1.2885                 0.7841                 1.4821
 IR Inten    --      0.4344                 6.8772                 2.4107

                     10                     11                     12
                      A                      A                      A
 Frequencies --    515.8771               526.9682               549.2759
 Red. masses --      7.8431                 1.4183                 7.4125
 Frc consts  --      1.2298                 0.2321                 1.3176
 IR Inten    --     22.7720                91.4647                19.8353

                     13                     14                     15
                      A                      A                      A
 Frequencies --    593.2266               625.1603               710.2841
 Red. masses --      8.3137                14.3356                 9.1629
 Frc consts  --      1.7238                 3.3010                 2.7236
 IR Inten    --      4.3889                 2.8126                33.7658

                     16                     17                     18
                      A                      A                      A
 Frequencies --    781.1789               798.1309              1055.8061
 Red. masses --     12.1413                13.0088                13.3092
 Frc consts  --      4.3653                 4.8824                 8.7412
 IR Inten    --      1.4857                15.1887               146.6011

                     19                     20                     21
                      A                      A                      A
 Frequencies --   1177.0279              1247.7716              1266.6095
 Red. masses --      4.9693                 2.1619                11.8349
 Frc consts  --      4.0562                 1.9831                11.1866
 IR Inten    --     94.5441               129.2346               297.4417

                     22                     23                     24
                      A                      A                      A
 Frequencies --   1280.5403              1309.8668              1376.6967
 Red. masses --      5.6193                13.1258                 6.7848
 Frc consts  --      5.4290                13.2688                 7.5764
 IR Inten    --     67.3027               263.7366               325.7333

                     25                     26                     27
                      A                      A                      A
 Frequencies --   1413.2784              1942.3763              3837.2995
 Red. masses --      6.3393                11.4882                 1.0657
 Frc consts  --      7.4601                25.5368                 9.2456
 IR Inten    --     90.9219               292.4936               138.0328

 - Thermochemistry -
 -------------------
 Temperature   298.150 Kelvin.  Pressure   1.00000 Atm.
 Atom     1 has atomic number  6 and mass  12.00000

 Molecular mass:   163.98967 amu.
 Principal axes and moments of inertia in atomic units:
                           1         2         3
     Eigenvalues --   948.732161534.357101592.26179
           X            0.79648   0.60128   0.06390
           Y           -0.03700  -0.05702   0.99769
           Z           -0.60353   0.79700   0.02317
 This molecule is an asymmetric top.
 Rotational symmetry number  1.
 Warning -- assumption of classical behavior for rotation
           may cause significant error
 Rotational temperatures (Kelvin)      0.09129     0.05645     0.05440
 Rotational constants (GHZ):           1.90227     1.17622     1.13345
 Zero-point vibrational energy     138460.9 (Joules/Mol)
                                   33.09295 (Kcal/Mol)
 Warning -- explicit consideration of  13 degrees of freedom as
           vibrations may cause significant error
 Vibrational temperatures:     42.22    91.29   205.18   309.34   382.86
          (Kelvin)            421.29   518.30   541.95   568.68   742.23
                              758.19   790.29   853.52   899.47  1021.94
                             1123.94  1148.33  1519.07  1693.48  1795.27
                             1822.37  1842.41  1884.61  1980.76  2033.39
                             2794.65  5521.02

 Zero-point correction=                           0.052737 (Hartree/Particle)
 Thermal correction to Energy=                    0.061643
 Thermal correction to Enthalpy=                  0.062587
 Thermal correction to Gibbs Free Energy=         0.017317
 Sum of electronic and zero-point Energies=           -764.611822
 Sum of electronic and thermal Energies=              -764.602916
 Sum of electronic and thermal Enthalpies=            -764.601972
 Sum of electronic and thermal Free Energies=         -764.647242

                     E (Thermal)             CV                S
                      KCal/Mol        Cal/Mol-Kelvin    Cal/Mol-Kelvin
 Total                   38.681             30.753             95.279
 Electronic               0.000              0.000              0.000
 Translational            0.889              2.981             41.192
 Rotational               0.889              2.981             29.229
 Vibrational             36.904             24.791             24.858
 Vibration     1          0.593              1.984              5.873
 Vibration     2          0.597              1.972              4.347
 Vibration     3          0.616              1.911              2.769
 Vibration     4          0.645              1.818              2.001
 Vibration     5          0.672              1.735              1.621
 Vibration     6          0.688              1.687              1.458
 Vibration     7          0.735              1.554              1.121
 Vibration     8          0.747              1.520              1.052
 Vibration     9          0.762              1.480              0.980
 Vibration    10          0.871              1.215              0.620
 Vibration    11          0.882              1.190              0.594
 Vibration    12          0.905              1.141              0.546
 Vibration    13          0.951              1.046              0.461

 Optimization completed.
    -- Stationary point found.
 Normal termination of Gaussian 16 at Sat May 24 06:00:17 2025.
