 Gaussian 16, Revision C.01,
 Gaussian 16:  ES64L-G16RevC.01  3-Jul-2019

 ----------------------------------------------------------------------
 #P mp2/6-31G Symm(None) scf(xqc) pop(None) guess(Mix,Always) freq opt(
 CalcFC)
 ----------------------------------------------------------------------

 ------------------------------
 Gaussian input prepared by ASE
 ------------------------------
 Symbolic Z-matrix:
 Charge =  0 Multiplicity = 1

 SCF Done:  E(RHF) =  -760.801870185     A.U. after   17 cycles
 E2 =    -0.1146137214D+01 EUMP2 =    -0.76194800739920D+03
 E2 =    -0.1146137214D+01 EUMP2 =    -0.76194800739920D+03
 SCF Done:  E(RHF) =  -760.802098642     A.U. after   17 cycles
 E2 =    -0.1146191068D+01 EUMP2 =    -0.76194828970941D+03
 SCF Done:  E(RHF) =  -760.803816840     A.U. after   17 cycles
 E2 =    -0.1145377465D+01 EUMP2 =    -0.76194919430486D+03
 SCF Done:  E(RHF) =  -760.717422084     A.U. after   18 cycles
 E2 =    -0.1166743058D+01 EUMP2 =    -0.76188416514228D+03
 SCF Done:  E(RHF) =  -760.801828223     A.U. after   17 cycles
 E2 =    -0.1148086939D+01 EUMP2 =    -0.76194991516263D+03
 SCF Done:  E(RHF) =  -760.804529330     A.U. after   17 cycles
 E2 =    -0.1145895562D+01 EUMP2 =    -0.76195042489154D+03
 SCF Done:  E(RHF) =  -760.806030295     A.U. after   17 cycles
 E2 =    -0.1144456832D+01 EUMP2 =    -0.76195048712704D+03
 SCF Done:  E(RHF) =  -760.805527437     A.U. after   17 cycles
 E2 =    -0.1144994773D+01 EUMP2 =    -0.76195052221067D+03
 SCF Done:  E(RHF) =  -760.805401766     A.U. after   17 cycles
 E2 =    -0.1145127779D+01 EUMP2 =    -0.76195052954574D+03
 SCF Done:  E(RHF) =  -760.805343681     A.U. after   17 cycles
 E2 =    -0.1145190924D+01 EUMP2 =    -0.76195053460483D+03
 SCF Done:  E(RHF) =  -760.805372131     A.U. after   17 cycles
 E2 =    -0.1145163574D+01 EUMP2 =    -0.76195053570514D+03
 SCF Done:  E(RHF) =  -760.805381676     A.U. after   17 cycles
 E2 =    -0.1145154218D+01 EUMP2 =    -0.76195053589460D+03
 Optimization completed.
    -- Stationary point found.
 Normal termination of Gaussian 16 at Sat May 24 03:00:24 2025.

 -------------------------------------------------------------------
 #P Geom=AllCheck Guess=TCheck SCRF=Check GenChk RMP2(FC)/6-31G Freq
 -------------------------------------------------------------------

 Structure from the checkpoint file:  "1642764945472630600001_R_Addition_MultipleBond_1_3_8_IRC_R_prod.chk"
 ------------------------------
 Gaussian input prepared by ASE
 ------------------------------
 Charge =  0 Multiplicity = 1

                          Input orientation:
 ---------------------------------------------------------------------
 Center     Atomic      Atomic             Coordinates (Angstroms)
 Number     Number       Type             X           Y           Z
 ---------------------------------------------------------------------
      1          6           0        1.373622    0.043112   -0.739420
      2          8           0        1.758919    0.456146   -1.845418
      3          6           0       -0.064268   -0.395560   -0.420341
      4          6           0       -0.765498    0.411249    0.689493
      5          9           0       -2.134322    0.164872    0.694237
      6          9           0       -0.257500    0.100870    1.944416
      7          9           0       -0.556718    1.775398    0.448119
      8          9           0       -0.834356   -0.253973   -1.590079
      9          9           0       -0.071248   -1.758829   -0.039633
     10          8           0        2.151721   -0.106502    0.388304
     11          1           0        3.086215    0.156101    0.220607
 ---------------------------------------------------------------------

 SCF Done:  E(RHF) =  -760.805381676     A.U. after    1 cycles
 E2 =    -0.1145154219D+01 EUMP2 =    -0.76195053589575D+03
 E2 =    -0.1145154219D+01 EUMP2 =    -0.76195053589575D+03

                      1                      2                      3
                      A                      A                      A
 Frequencies --     44.7874                64.8015               153.2805
 Red. masses --     12.1294                17.2526                10.5311
 Frc consts  --      0.0143                 0.0427                 0.1458
 IR Inten    --      1.1304                 0.2245                 1.8199

                      4                      5                      6
                      A                      A                      A
 Frequencies --    215.9835               242.3933               283.6450
 Red. masses --     17.0005                11.5850                14.5284
 Frc consts  --      0.4673                 0.4010                 0.6887
 IR Inten    --      2.7419                 0.9481                 2.0022

                      7                      8                      9
                      A                      A                      A
 Frequencies --    340.9611               363.7815               370.2233
 Red. masses --     18.2443                17.2325                13.1352
 Frc consts  --      1.2496                 1.3436                 1.0608
 IR Inten    --      0.0720                 0.8221                 2.2398

                     10                     11                     12
                      A                      A                      A
 Frequencies --    455.6881               496.0021               536.0839
 Red. masses --     11.0930                14.1248                 5.6835
 Frc consts  --      1.3572                 2.0474                 0.9624
 IR Inten    --      8.6297                15.0637                12.5939

                     13                     14                     15
                      A                      A                      A
 Frequencies --    584.5902               615.3210               649.5840
 Red. masses --      6.2838                 1.6195                 5.4214
 Frc consts  --      1.2652                 0.3613                 1.3478
 IR Inten    --     13.5836               146.2858                97.2204

                     16                     17                     18
                      A                      A                      A
 Frequencies --    710.6733               733.8081              1008.2555
 Red. masses --     10.0541                 9.3835                13.1926
 Frc consts  --      2.9918                 2.9770                 7.9017
 IR Inten    --      8.0497                23.2146               148.8208

                     19                     20                     21
                      A                      A                      A
 Frequencies --   1089.9957              1148.6775              1181.9009
 Red. masses --      4.0532                 6.7263                 7.2774
 Frc consts  --      2.8372                 5.2290                 5.9895
 IR Inten    --    287.0514               164.0445               100.0751

                     22                     23                     24
                      A                      A                      A
 Frequencies --   1206.3130              1224.1710              1327.9803
 Red. masses --     10.7121                 5.4298                12.2212
 Frc consts  --      9.1843                 4.7943                12.6983
 IR Inten    --    162.6649                98.7497                53.4349

                     25                     26                     27
                      A                      A                      A
 Frequencies --   1399.9302              1700.5034              3607.0970
 Red. masses --      3.0417                10.5861                 1.0645
 Frc consts  --      3.5122                18.0361                 8.1606
 IR Inten    --     49.2480               157.2909                93.2485

 - Thermochemistry -
 -------------------
 Temperature   298.150 Kelvin.  Pressure   1.00000 Atm.
 Atom     1 has atomic number  6 and mass  12.00000

 Molecular mass:   163.98967 amu.
 Principal axes and moments of inertia in atomic units:
                           1         2         3
     Eigenvalues --  1007.054371577.530211713.56009
           X            0.82983   0.55364  -0.06970
           Y           -0.11418   0.29074   0.94997
           Z           -0.54620   0.78035  -0.30448
 This molecule is an asymmetric top.
 Rotational symmetry number  1.
 Warning -- assumption of classical behavior for rotation
           may cause significant error
 Rotational temperatures (Kelvin)      0.08601     0.05490     0.05055
 Rotational constants (GHZ):           1.79210     1.14403     1.05321
 Zero-point vibrational energy     130132.4 (Joules/Mol)
                                   31.10238 (Kcal/Mol)
 Warning -- explicit consideration of  14 degrees of freedom as
           vibrations may cause significant error
 Vibrational temperatures:     64.44    93.23   220.54   310.75   348.75
          (Kelvin)            408.10   490.57   523.40   532.67   655.63
                              713.64   771.31   841.09   885.31   934.61
                             1022.50  1055.79  1450.65  1568.26  1652.69
                             1700.49  1735.62  1761.31  1910.67  2014.19
                             2446.65  5189.81

 Zero-point correction=                           0.049565 (Hartree/Particle)
 Thermal correction to Energy=                    0.058716
 Thermal correction to Enthalpy=                  0.059660
 Thermal correction to Gibbs Free Energy=         0.014301
 Sum of electronic and zero-point Energies=           -761.900971
 Sum of electronic and thermal Energies=              -761.891820
 Sum of electronic and thermal Enthalpies=            -761.890876
 Sum of electronic and thermal Free Energies=         -761.936235

                     E (Thermal)             CV                S
                      KCal/Mol        Cal/Mol-Kelvin    Cal/Mol-Kelvin
 Total                   36.845             31.909             95.466
 Electronic               0.000              0.000              0.000
 Translational            0.889              2.981             41.192
 Rotational               0.889              2.981             29.389
 Vibrational             35.067             25.947             24.885
 Vibration     1          0.595              1.979              5.035
 Vibration     2          0.597              1.971              4.305
 Vibration     3          0.619              1.899              2.631
 Vibration     4          0.645              1.817              1.993
 Vibration     5          0.659              1.775              1.785
 Vibration     6          0.682              1.704              1.512
 Vibration     7          0.720              1.594              1.208
 Vibration     8          0.737              1.547              1.106
 Vibration     9          0.742              1.533              1.079
 Vibration    10          0.814              1.348              0.779
 Vibration    11          0.852              1.259              0.668
 Vibration    12          0.891              1.170              0.574
 Vibration    13          0.942              1.065              0.477
 Vibration    14          0.975              0.999              0.424

                           ! Non-Optimized Parameters !
 Normal termination of Gaussian 16 at Sat May 24 03:00:46 2025.
