 Gaussian 16, Revision C.01,
 Gaussian 16:  ES64L-G16RevC.01  3-Jul-2019

 -----------------------------------------------------------------
 #P M062X/Def2TZVPP Symm(None) scf(xqc) pop(None) freq opt(CalcFC)
 -----------------------------------------------------------------

 ------------------------------
 Gaussian input prepared by ASE
 ------------------------------
 Symbolic Z-matrix:
 Charge =  0 Multiplicity = 1

 SCF Done:  E(RM062X) =  -764.667481522     A.U. after   13 cycles
 SCF Done:  E(RM062X) =  -764.668132910     A.U. after   12 cycles
 SCF Done:  E(RM062X) =  -764.668204290     A.U. after   12 cycles
 SCF Done:  E(RM062X) =  -764.668240542     A.U. after   12 cycles
 SCF Done:  E(RM062X) =  -764.668260838     A.U. after   12 cycles
 SCF Done:  E(RM062X) =  -764.668263484     A.U. after   11 cycles
 SCF Done:  E(RM062X) =  -764.668263770     A.U. after   10 cycles
 SCF Done:  E(RM062X) =  -764.668263787     A.U. after    8 cycles
 Optimization completed.
    -- Stationary point found.
 Normal termination of Gaussian 16 at Sat May 24 04:28:41 2025.

 ---------------------------------------------------------------------
 #P Geom=AllCheck Guess=TCheck SCRF=Check GenChk RM062X/def2TZVPP Freq
 ---------------------------------------------------------------------

 Structure from the checkpoint file:  "1642764945472630600001_r12_insertion_R_3_1_10_IRC_R_prod.chk"
 ------------------------------
 Gaussian input prepared by ASE
 ------------------------------
 Charge =  0 Multiplicity = 1

                          Input orientation:
 ---------------------------------------------------------------------
 Center     Atomic      Atomic             Coordinates (Angstroms)
 Number     Number       Type             X           Y           Z
 ---------------------------------------------------------------------
      1          6           0        1.413440   -0.248166   -0.531134
      2          8           0        2.021581   -1.268336   -0.510291
      3          6           0       -0.129592   -0.193621   -0.558287
      4          6           0       -0.733134    0.207928    0.805289
      5          9           0       -2.051785    0.107737    0.761348
      6          9           0       -0.268192   -0.600787    1.751202
      7          9           0       -0.407637    1.455308    1.111604
      8          9           0       -0.548286    0.691452   -1.475375
      9          9           0       -0.597770   -1.401663   -0.871382
     10          8           0        1.924197    0.978763   -0.523520
     11          1           0        2.888453    0.907263   -0.492180
 ---------------------------------------------------------------------

 SCF Done:  E(RM062X) =  -764.668263787     A.U. after    1 cycles

 Isotropic polarizability for W=    0.000000       43.86 Bohr**3.
 End of Minotr F.D. properties file   721 does not exist.

                      1                      2                      3
                      A                      A                      A
 Frequencies --     18.6070                65.5047               144.7470
 Red. masses --     12.9649                16.4214                10.1895
 Frc consts  --      0.0026                 0.0415                 0.1258
 IR Inten    --      1.4259                 0.4157                 0.9749

                      4                      5                      6
                      A                      A                      A
 Frequencies --    216.4524               248.3156               287.8257
 Red. masses --     17.3389                12.1782                14.6737
 Frc consts  --      0.4786                 0.4424                 0.7162
 IR Inten    --      1.5536                 1.1488                 1.4395

                      7                      8                      9
                      A                      A                      A
 Frequencies --    359.9250               380.2019               384.2345
 Red. masses --     16.4817                15.4822                13.6701
 Frc consts  --      1.2580                 1.3186                 1.1891
 IR Inten    --      0.3909                 0.8385                 0.6073

                     10                     11                     12
                      A                      A                      A
 Frequencies --    504.2269               547.4777               551.8856
 Red. masses --      7.6059                 3.4300                 4.0421
 Frc consts  --      1.1393                 0.6057                 0.7254
 IR Inten    --      6.0238                21.9820                15.2792

                     13                     14                     15
                      A                      A                      A
 Frequencies --    616.5047               635.8693               692.5327
 Red. masses --      7.0836                 3.2574                 4.5743
 Frc consts  --      1.5863                 0.7760                 1.2926
 IR Inten    --     17.4039                74.9808               101.2266

                     16                     17                     18
                      A                      A                      A
 Frequencies --    789.5011               797.9058              1062.2817
 Red. masses --     12.3079                 8.7120                11.7569
 Frc consts  --      4.5200                 3.2679                 7.8167
 IR Inten    --      2.5077                20.9428               124.2799

                     19                     20                     21
                      A                      A                      A
 Frequencies --   1187.4605              1229.7249              1277.3372
 Red. masses --      3.0580                 4.2844                10.2731
 Frc consts  --      2.5406                 3.8173                 9.8756
 IR Inten    --    245.4406               186.5248                40.7377

                     22                     23                     24
                      A                      A                      A
 Frequencies --   1289.8910              1297.0934              1383.0334
 Red. masses --     13.3130                 7.6174                 7.8369
 Frc consts  --     13.0507                 7.5509                 8.8320
 IR Inten    --    360.4086               148.8781               127.9844

                     25                     26                     27
                      A                      A                      A
 Frequencies --   1435.9848              1920.3579              3808.8283
 Red. masses --      5.1344                11.7394                 1.0646
 Frc consts  --      6.2379                25.5071                 9.0997
 IR Inten    --     53.9594               330.4412               129.7944

 - Thermochemistry -
 -------------------
 Temperature   298.150 Kelvin.  Pressure   1.00000 Atm.
 Atom     1 has atomic number  6 and mass  12.00000

 Molecular mass:   163.98967 amu.
 Principal axes and moments of inertia in atomic units:
                           1         2         3
     Eigenvalues --   948.586561521.556981601.28631
           X            0.85804   0.44405  -0.25803
           Y           -0.15739   0.70561   0.69090
           Z           -0.48886   0.55221  -0.67533
 This molecule is an asymmetric top.
 Rotational symmetry number  1.
 Warning -- assumption of classical behavior for rotation
           may cause significant error
 Rotational temperatures (Kelvin)      0.09131     0.05692     0.05409
 Rotational constants (GHZ):           1.90256     1.18611     1.12706
 Zero-point vibrational energy     138370.3 (Joules/Mol)
                                   33.07130 (Kcal/Mol)
 Warning -- explicit consideration of  13 degrees of freedom as
           vibrations may cause significant error
 Vibrational temperatures:     26.77    94.25   208.26   311.43   357.27
          (Kelvin)            414.12   517.85   547.03   552.83   725.47
                              787.70   794.04   887.01   914.87   996.40
                             1135.92  1148.01  1528.39  1708.49  1769.30
                             1837.80  1855.87  1866.23  1989.88  2066.06
                             2762.97  5480.05

 Zero-point correction=                           0.052702 (Hartree/Particle)
 Thermal correction to Energy=                    0.061638
 Thermal correction to Enthalpy=                  0.062583
 Thermal correction to Gibbs Free Energy=         0.016880
 Sum of electronic and zero-point Energies=           -764.615561
 Sum of electronic and thermal Energies=              -764.606625
 Sum of electronic and thermal Enthalpies=            -764.605681
 Sum of electronic and thermal Free Energies=         -764.651383

                     E (Thermal)             CV                S
                      KCal/Mol        Cal/Mol-Kelvin    Cal/Mol-Kelvin
 Total                   38.679             30.714             96.188
 Electronic               0.000              0.000              0.000
 Translational            0.889              2.981             41.192
 Rotational               0.889              2.981             29.226
 Vibrational             36.901             24.752             25.770
 Vibration     1          0.593              1.986              6.778
 Vibration     2          0.597              1.971              4.284
 Vibration     3          0.616              1.908              2.740
 Vibration     4          0.645              1.816              1.989
 Vibration     5          0.662              1.766              1.743
 Vibration     6          0.685              1.696              1.487
 Vibration     7          0.734              1.555              1.122
 Vibration     8          0.750              1.512              1.038
 Vibration     9          0.753              1.504              1.022
 Vibration    10          0.860              1.241              0.648
 Vibration    11          0.903              1.145              0.549
 Vibration    12          0.907              1.136              0.540
 Vibration    13          0.976              0.997              0.422

 Optimization completed.
    -- Stationary point found.
 Normal termination of Gaussian 16 at Sat May 24 04:32:11 2025.
