 Gaussian 16, Revision C.01,
 Gaussian 16:  ES64L-G16RevC.01  3-Jul-2019

 -----------------------------------------------------------------
 #P M062X/Def2TZVPP Symm(None) scf(xqc) pop(None) freq opt(CalcFC)
 -----------------------------------------------------------------

 ------------------------------
 Gaussian input prepared by ASE
 ------------------------------
 Symbolic Z-matrix:
 Charge =  0 Multiplicity = 1

 SCF Done:  E(RM062X) =  -764.665921678     A.U. after   13 cycles
 SCF Done:  E(RM062X) =  -764.668239645     A.U. after   11 cycles
 SCF Done:  E(RM062X) =  -764.668268863     A.U. after   12 cycles
 SCF Done:  E(RM062X) =  -764.668271965     A.U. after   10 cycles
 SCF Done:  E(RM062X) =  -764.668272111     A.U. after    9 cycles
 Optimization completed.
    -- Stationary point found.
 Normal termination of Gaussian 16 at Sat May 24 05:28:32 2025.

 ---------------------------------------------------------------------
 #P Geom=AllCheck Guess=TCheck SCRF=Check GenChk RM062X/def2TZVPP Freq
 ---------------------------------------------------------------------

 Structure from the checkpoint file:  "1642764945472630600001_intra_H_migration_suprafacial_2_11_IRC_R_prod.chk"
 ------------------------------
 Gaussian input prepared by ASE
 ------------------------------
 Charge =  0 Multiplicity = 1

                          Input orientation:
 ---------------------------------------------------------------------
 Center     Atomic      Atomic             Coordinates (Angstroms)
 Number     Number       Type             X           Y           Z
 ---------------------------------------------------------------------
      1          6           0       -0.659831    1.131414   -0.833189
      2          8           0       -1.644443    1.045983   -1.492189
      3          6           0       -0.404956    0.250522    0.409193
      4          6           0        0.622744   -0.870367    0.140390
      5          9           0        0.704607   -1.668596    1.192496
      6          9           0        0.237982   -1.580912   -0.914004
      7          9           0        1.820117   -0.357839   -0.103598
      8          9           0        0.051342    0.998216    1.425240
      9          9           0       -1.551146   -0.325714    0.771090
     10          8           0        0.362970    1.954317   -1.040312
     11          1           0        0.176637    2.478731   -1.831619
 ---------------------------------------------------------------------

 SCF Done:  E(RM062X) =  -764.668272111     A.U. after    1 cycles

 Isotropic polarizability for W=    0.000000       43.86 Bohr**3.
 End of Minotr F.D. properties file   721 does not exist.

                      1                      2                      3
                      A                      A                      A
 Frequencies --     18.7198                66.0260               145.0988
 Red. masses --     12.9741                16.3991                10.2097
 Frc consts  --      0.0027                 0.0421                 0.1266
 IR Inten    --      1.4353                 0.4170                 0.9862

                      4                      5                      6
                      A                      A                      A
 Frequencies --    217.7462               248.2382               288.4314
 Red. masses --     17.2088                12.2740                14.7730
 Frc consts  --      0.4807                 0.4456                 0.7241
 IR Inten    --      1.5745                 1.1447                 1.4930

                      7                      8                      9
                      A                      A                      A
 Frequencies --    360.2017               380.3092               384.2158
 Red. masses --     16.4833                15.5726                13.6092
 Frc consts  --      1.2600                 1.3270                 1.1837
 IR Inten    --      0.3881                 0.8042                 0.6411

                     10                     11                     12
                      A                      A                      A
 Frequencies --    504.9396               548.2445               553.0492
 Red. masses --      8.0929                 4.5060                 3.2661
 Frc consts  --      1.2157                 0.7980                 0.5886
 IR Inten    --      6.0788                18.5236                16.4873

                     13                     14                     15
                      A                      A                      A
 Frequencies --    616.9167               637.0442               692.4875
 Red. masses --      7.4604                 3.0217                 4.5282
 Frc consts  --      1.6729                 0.7225                 1.2794
 IR Inten    --     15.0294                78.5940               102.2176

                     16                     17                     18
                      A                      A                      A
 Frequencies --    789.5092               797.9270              1062.4427
 Red. masses --     12.2512                 8.6350                11.7495
 Frc consts  --      4.4993                 3.2392                 7.8141
 IR Inten    --      2.4087                21.4224               124.0946

                     19                     20                     21
                      A                      A                      A
 Frequencies --   1187.2004              1229.0984              1277.2574
 Red. masses --      3.0265                 4.3339                10.1192
 Frc consts  --      2.5133                 3.8574                 9.7264
 IR Inten    --    245.0594               185.1527                39.6455

                     22                     23                     24
                      A                      A                      A
 Frequencies --   1289.5776              1297.1034              1383.8598
 Red. masses --     13.3089                 7.7361                 7.8413
 Frc consts  --     13.0403                 7.6687                 8.8476
 IR Inten    --    359.6769               151.5923               128.7160

                     25                     26                     27
                      A                      A                      A
 Frequencies --   1435.8737              1920.5923              3809.2293
 Red. masses --      5.1603                11.7442                 1.0646
 Frc consts  --      6.2684                25.5237                 9.1018
 IR Inten    --     53.7271               330.5961               129.8284

 - Thermochemistry -
 -------------------
 Temperature   298.150 Kelvin.  Pressure   1.00000 Atm.
 Atom     1 has atomic number  6 and mass  12.00000

 Molecular mass:   163.98967 amu.
 Principal axes and moments of inertia in atomic units:
                           1         2         3
     Eigenvalues --   948.732971522.149651600.33167
           X           -0.47042   0.80428   0.36309
           Y            0.78025   0.18690   0.59688
           Z           -0.41220  -0.56409   0.71547
 This molecule is an asymmetric top.
 Rotational symmetry number  1.
 Warning -- assumption of classical behavior for rotation
           may cause significant error
 Rotational temperatures (Kelvin)      0.09129     0.05690     0.05412
 Rotational constants (GHZ):           1.90226     1.18565     1.12773
 Zero-point vibrational energy     138416.0 (Joules/Mol)
                                   33.08221 (Kcal/Mol)
 Warning -- explicit consideration of  13 degrees of freedom as
           vibrations may cause significant error
 Vibrational temperatures:     26.93    95.00   208.76   313.29   357.16
          (Kelvin)            414.99   518.25   547.18   552.80   726.50
                              788.80   795.71   887.61   916.56   996.34
                             1135.93  1148.04  1528.62  1708.12  1768.40
                             1837.69  1855.41  1866.24  1991.07  2065.90
                             2763.30  5480.63

 Zero-point correction=                           0.052720 (Hartree/Particle)
 Thermal correction to Energy=                    0.061648
 Thermal correction to Enthalpy=                  0.062592
 Thermal correction to Gibbs Free Energy=         0.016917
 Sum of electronic and zero-point Energies=           -764.615552
 Sum of electronic and thermal Energies=              -764.606624
 Sum of electronic and thermal Enthalpies=            -764.605680
 Sum of electronic and thermal Free Energies=         -764.651355

                     E (Thermal)             CV                S
                      KCal/Mol        Cal/Mol-Kelvin    Cal/Mol-Kelvin
 Total                   38.685             30.701             96.133
 Electronic               0.000              0.000              0.000
 Translational            0.889              2.981             41.192
 Rotational               0.889              2.981             29.226
 Vibrational             36.907             24.739             25.714
 Vibration     1          0.593              1.986              6.766
 Vibration     2          0.597              1.970              4.268
 Vibration     3          0.616              1.908              2.736
 Vibration     4          0.646              1.814              1.978
 Vibration     5          0.662              1.766              1.743
 Vibration     6          0.685              1.695              1.483
 Vibration     7          0.735              1.554              1.121
 Vibration     8          0.750              1.512              1.038
 Vibration     9          0.753              1.504              1.023
 Vibration    10          0.860              1.239              0.646
 Vibration    11          0.903              1.144              0.548
 Vibration    12          0.908              1.133              0.538
 Vibration    13          0.977              0.996              0.421

 Optimization completed.
    -- Stationary point found.
 Normal termination of Gaussian 16 at Sat May 24 05:31:50 2025.
