 Gaussian 16, Revision C.01,
 Gaussian 16:  ES64L-G16RevC.01  3-Jul-2019

 ----------------------------------------------------------------------
 #P M062X/Def2TZVPP Symm(None) scf(xqc) pop(None) geom(AllCheck,NoKeepC
 onstants) guess(Read) irc(RCFC,forward,MaxPoints=100,StepSize=2)
 ----------------------------------------------------------------------

 Structure from the checkpoint file:  "1642764945472630600001_r12_insertion_R_8_3_1_IRC_F.chk"
 ------------------------------
 Gaussian input prepared by ASE
 ------------------------------
 Charge =  0 Multiplicity = 1

 SCF Done:  E(RM062X) =  -764.524452112     A.U. after    9 cycles
 SCF Done:  E(RM062X) =  -764.524517166     A.U. after   11 cycles
 SCF Done:  E(RM062X) =  -764.524628023     A.U. after   11 cycles
 SCF Done:  E(RM062X) =  -764.524786614     A.U. after   11 cycles
 SCF Done:  E(RM062X) =  -764.524994725     A.U. after   11 cycles
 SCF Done:  E(RM062X) =  -764.525253985     A.U. after   11 cycles
 SCF Done:  E(RM062X) =  -764.525565857     A.U. after   11 cycles
 SCF Done:  E(RM062X) =  -764.525931637     A.U. after   11 cycles
 SCF Done:  E(RM062X) =  -764.526352450     A.U. after   11 cycles
 SCF Done:  E(RM062X) =  -764.526829260     A.U. after   11 cycles
 SCF Done:  E(RM062X) =  -764.628211257     A.U. after   10 cycles
 SCF Done:  E(RM062X) =  -764.628908998     A.U. after   10 cycles
 SCF Done:  E(RM062X) =  -764.629593748     A.U. after   10 cycles
 SCF Done:  E(RM062X) =  -764.630265785     A.U. after   10 cycles
 SCF Done:  E(RM062X) =  -764.630925377     A.U. after   10 cycles
 SCF Done:  E(RM062X) =  -764.631572787     A.U. after   10 cycles
 SCF Done:  E(RM062X) =  -764.632208267     A.U. after   10 cycles
 SCF Done:  E(RM062X) =  -764.632832064     A.U. after   10 cycles
 SCF Done:  E(RM062X) =  -764.633444416     A.U. after   10 cycles
 SCF Done:  E(RM062X) =  -764.634045553     A.U. after   10 cycles

                          Input orientation:
 ---------------------------------------------------------------------
 Center     Atomic      Atomic             Coordinates (Angstroms)
 Number     Number       Type             X           Y           Z
 ---------------------------------------------------------------------
      1          6           0        1.525902   -0.380880   -0.760327
      2          8           0        1.853445   -1.091918   -1.647526
      3          6           0       -0.002832   -0.364870   -0.322803
      4          6           0       -0.773938    0.300610    0.886588
      5          9           0       -1.970447    0.601683    0.401794
      6          9           0       -0.975226   -0.416512    1.979069
      7          9           0       -0.149566    1.429765    1.238091
      8          9           0       -0.322361    0.504622   -1.324077
      9          9           0       -0.603663   -1.539013   -0.497205
     10          8           0        2.247411    0.661879   -0.360369
     11          1           0        1.801131    1.181411    0.319315
 ---------------------------------------------------------------------

 Normal termination of Gaussian 16 at Sat May 24 03:39:03 2025.
