 Gaussian 16, Revision C.01,
 Gaussian 16:  ES64L-G16RevC.01  3-Jul-2019

 ----------------------------------------------------------------------
 #P mp2/6-31G Symm(None) scf(xqc) pop(None) guess(Mix,Always) opt(NoFre
 eze,TS,CalcAll,NoEigentest,MaxCycle=999)
 ----------------------------------------------------------------------

 ------------------------------
 Gaussian input prepared by ASE
 ------------------------------
 Symbolic Z-matrix:
 Charge =  0 Multiplicity = 1

 SCF Done:  E(RHF) =  -760.799532081     A.U. after   16 cycles
 E2 =    -0.1110144765D+01 EUMP2 =    -0.76190967684575D+03
 E2 =    -0.1110144765D+01 EUMP2 =    -0.76190967684575D+03
 SCF Done:  E(RHF) =  -760.806954142     A.U. after   17 cycles
 E2 =    -0.1137033043D+01 EUMP2 =    -0.76194398718502D+03
 E2 =    -0.1137033043D+01 EUMP2 =    -0.76194398718502D+03
 SCF Done:  E(RHF) =  -760.804350114     A.U. after   17 cycles
 E2 =    -0.1144369315D+01 EUMP2 =    -0.76194871942894D+03
 E2 =    -0.1144369315D+01 EUMP2 =    -0.76194871942894D+03
 SCF Done:  E(RHF) =  -760.802779106     A.U. after   17 cycles
 E2 =    -0.1145288414D+01 EUMP2 =    -0.76194806752051D+03
 E2 =    -0.1145288414D+01 EUMP2 =    -0.76194806752051D+03
 SCF Done:  E(RHF) =  -760.802794826     A.U. after   17 cycles
 E2 =    -0.1145242267D+01 EUMP2 =    -0.76194803709352D+03
 E2 =    -0.1145242267D+01 EUMP2 =    -0.76194803709352D+03
 SCF Done:  E(RHF) =  -760.802794688     A.U. after   17 cycles
 E2 =    -0.1145242763D+01 EUMP2 =    -0.76194803745158D+03
 E2 =    -0.1145242763D+01 EUMP2 =    -0.76194803745158D+03
 Optimization completed.
    -- Stationary point found.

                          Input orientation:
 ---------------------------------------------------------------------
 Center     Atomic      Atomic             Coordinates (Angstroms)
 Number     Number       Type             X           Y           Z
 ---------------------------------------------------------------------
      1          6           0        1.576566    0.071718   -0.193914
      2          8           0        2.153242   -0.418150   -1.179718
      3          6           0        0.068041   -0.090948    0.040230
      4          6           0       -0.567473    0.547443    1.286994
      5          9           0       -1.935922    0.279879    1.304539
      6          9           0       -0.008446    0.022322    2.449186
      7          9           0       -0.396359    1.929297    1.275026
      8          9           0       -0.600397    0.446081   -1.087358
      9          9           0       -0.208847   -1.478985    0.097935
     10          8           0        2.171547    0.808922    0.806424
     11          1           0        3.139311    0.911129    0.652693
 ---------------------------------------------------------------------

 ******    1 imaginary frequencies (negative Signs) ******

                      1                      2                      3
                      A                      A                      A
 Frequencies --    -45.6785                95.6699               164.0494
 Red. masses --     13.0400                14.4954                11.8278
 Frc consts  --      0.0160                 0.0782                 0.1875
 IR Inten    --      0.8008                 1.0813                 1.8537

                      4                      5                      6
                      A                      A                      A
 Frequencies --    209.6472               249.4340               273.9388
 Red. masses --     14.9926                11.5186                14.1021
 Frc consts  --      0.3882                 0.4222                 0.6235
 IR Inten    --      2.5483                 0.1028                 2.3946

                      7                      8                      9
                      A                      A                      A
 Frequencies --    331.4553               358.1664               376.9082
 Red. masses --     17.6750                14.2592                12.1985
 Frc consts  --      1.1441                 1.0777                 1.0210
 IR Inten    --      0.1742                 4.2824                 0.2857

                     10                     11                     12
                      A                      A                      A
 Frequencies --    393.3537               491.5688               547.8251
 Red. masses --     14.0346                15.4699                10.1486
 Frc consts  --      1.2794                 2.2025                 1.7945
 IR Inten    --      0.4840                20.6615                13.4700

                     13                     14                     15
                      A                      A                      A
 Frequencies --    607.6892               617.9110               655.1809
 Red. masses --      9.8592                 1.2348                 7.7335
 Frc consts  --      2.1451                 0.2778                 1.9559
 IR Inten    --     22.7660               160.9390                59.2198

                     16                     17                     18
                      A                      A                      A
 Frequencies --    715.2472               725.7829              1016.7681
 Red. masses --      8.9419                10.7033                13.2840
 Frc consts  --      2.6952                 3.3219                 8.0914
 IR Inten    --     12.4601                26.9774               137.0170

                     19                     20                     21
                      A                      A                      A
 Frequencies --   1080.2649              1126.8051              1174.0912
 Red. masses --      4.3553                12.6429                 5.4263
 Frc consts  --      2.9945                 9.4579                 4.4072
 IR Inten    --    327.8415               124.4846                78.4986

                     22                     23                     24
                      A                      A                      A
 Frequencies --   1209.4716              1216.1462              1341.8833
 Red. masses --      3.9532                13.0658                11.5545
 Frc consts  --      3.4071                11.3857                12.2583
 IR Inten    --    110.5151               220.0098                41.9748

                     25                     26                     27
                      A                      A                      A
 Frequencies --   1406.5851              1696.1823              3604.1067
 Red. masses --      3.2282                10.4726                 1.0645
 Frc consts  --      3.7631                17.7520                 8.1467
 IR Inten    --     50.0002               164.3368                94.9963

 - Thermochemistry -
 -------------------
 Temperature   298.150 Kelvin.  Pressure   1.00000 Atm.
 Atom     1 has atomic number  6 and mass  12.00000

 Molecular mass:   163.98967 amu.
 Principal axes and moments of inertia in atomic units:
                           1         2         3
     Eigenvalues --   968.457451555.654521816.50776
           X            0.78450   0.59617  -0.17071
           Y           -0.20154   0.50544   0.83899
           Z           -0.58647   0.62378  -0.51667
 This molecule is an asymmetric top.
 Rotational symmetry number  1.
 Warning -- assumption of classical behavior for rotation
           may cause significant error
 Rotational temperatures (Kelvin)      0.08943     0.05568     0.04768
 Rotational constants (GHZ):           1.86352     1.16012     0.99352
    1 imaginary frequencies ignored.
 Zero-point vibrational energy     129711.9 (Joules/Mol)
                                   31.00188 (Kcal/Mol)
 Warning -- explicit consideration of  13 degrees of freedom as
           vibrations may cause significant error
 Vibrational temperatures:    137.65   236.03   301.64   358.88   394.14
          (Kelvin)            476.89   515.32   542.29   565.95   707.26
                              788.20   874.33   889.04   942.66  1029.08
                             1044.24  1462.90  1554.26  1621.22  1689.26
                             1740.16  1749.76  1930.67  2023.76  2440.43
                             5185.51

 Zero-point correction=                           0.049405 (Hartree/Particle)
 Thermal correction to Energy=                    0.057691
 Thermal correction to Enthalpy=                  0.058636
 Thermal correction to Gibbs Free Energy=         0.015969
 Sum of electronic and zero-point Energies=           -761.898633
 Sum of electronic and thermal Energies=              -761.890346
 Sum of electronic and thermal Enthalpies=            -761.889402
 Sum of electronic and thermal Free Energies=         -761.932068

                     E (Thermal)             CV                S
                      KCal/Mol        Cal/Mol-Kelvin    Cal/Mol-Kelvin
 Total                   36.202             30.007             89.799
 Electronic               0.000              0.000              0.000
 Translational            0.889              2.981             41.192
 Rotational               0.889              2.981             29.394
 Vibrational             34.424             24.045             19.213
 Vibration     1          0.603              1.952              3.541
 Vibration     2          0.623              1.887              2.503
 Vibration     3          0.642              1.826              2.047
 Vibration     4          0.662              1.764              1.735
 Vibration     5          0.676              1.721              1.571
 Vibration     6          0.714              1.613              1.253
 Vibration     7          0.733              1.558              1.130
 Vibration     8          0.747              1.519              1.052
 Vibration     9          0.761              1.484              0.987
 Vibration    10          0.847              1.269              0.680
 Vibration    11          0.903              1.144              0.549
 Vibration    12          0.966              1.016              0.437
 Vibration    13          0.978              0.994              0.420

 Normal termination of Gaussian 16 at Sat May 24 02:31:03 2025.
