 Gaussian 16, Revision C.01,
 Gaussian 16:  ES64L-G16RevC.01  3-Jul-2019

 ----------------------------------------------------------------------
 #P M062X/Def2TZVPP Symm(None) scf(xqc) pop(None) geom(AllCheck,NoKeepC
 onstants) guess(Read) irc(RCFC,reverse,MaxPoints=100,StepSize=2)
 ----------------------------------------------------------------------

 Structure from the checkpoint file:  "1642764945472630600001_r12_insertion_R_1_3_4_IRC_R.chk"
 ------------------------------
 Gaussian input prepared by ASE
 ------------------------------
 Charge =  0 Multiplicity = 1

 SCF Done:  E(RM062X) =  -764.529112620     A.U. after   11 cycles
 SCF Done:  E(RM062X) =  -764.529130080     A.U. after   11 cycles
 SCF Done:  E(RM062X) =  -764.529158723     A.U. after   11 cycles
 SCF Done:  E(RM062X) =  -764.529198170     A.U. after   11 cycles
 SCF Done:  E(RM062X) =  -764.529248074     A.U. after   11 cycles
 SCF Done:  E(RM062X) =  -764.529308106     A.U. after   11 cycles
 SCF Done:  E(RM062X) =  -764.529377959     A.U. after   11 cycles
 SCF Done:  E(RM062X) =  -764.529457350     A.U. after   11 cycles
 SCF Done:  E(RM062X) =  -764.529546020     A.U. after   11 cycles
 SCF Done:  E(RM062X) =  -764.529643729     A.U. after   11 cycles
 SCF Done:  E(RM062X) =  -764.555180837     A.U. after    9 cycles
 SCF Done:  E(RM062X) =  -764.555553625     A.U. after    9 cycles
 SCF Done:  E(RM062X) =  -764.555924370     A.U. after    9 cycles
 SCF Done:  E(RM062X) =  -764.556293028     A.U. after    9 cycles
 SCF Done:  E(RM062X) =  -764.556659555     A.U. after    9 cycles
 SCF Done:  E(RM062X) =  -764.557023911     A.U. after    9 cycles
 SCF Done:  E(RM062X) =  -764.557386058     A.U. after    9 cycles
 SCF Done:  E(RM062X) =  -764.557745961     A.U. after    9 cycles
 SCF Done:  E(RM062X) =  -764.558103585     A.U. after    9 cycles
 SCF Done:  E(RM062X) =  -764.558458895     A.U. after    9 cycles

                          Input orientation:
 ---------------------------------------------------------------------
 Center     Atomic      Atomic             Coordinates (Angstroms)
 Number     Number       Type             X           Y           Z
 ---------------------------------------------------------------------
      1          6           0        1.099903    0.142963    0.073419
      2          8           0        1.844091   -0.782496    0.206515
      3          6           0       -0.359589   -0.579147   -1.395361
      4          6           0       -0.095874    0.353728    1.034935
      5          9           0       -1.062901    1.144252    0.561058
      6          9           0       -0.672576   -0.798757    1.365307
      7          9           0        0.412875    0.914355    2.123044
      8          9           0       -1.173471    0.104919   -2.096876
      9          9           0       -0.727105   -1.797465   -1.395707
     10          8           0        1.359840    1.283157   -0.591069
     11          1           0        2.238744    1.191233   -0.980198
 ---------------------------------------------------------------------

 Normal termination of Gaussian 16 at Sat May 24 03:35:30 2025.
