 Gaussian 16, Revision C.01,
 Gaussian 16:  ES64L-G16RevC.01  3-Jul-2019

 ----------------------------------------------------------------------
 #P M062X/Def2TZVPP Symm(None) scf(xqc) pop(None) opt(NoFreeze,TS,CalcA
 ll,NoEigentest,MaxCycle=999)
 ----------------------------------------------------------------------

 ------------------------------
 Gaussian input prepared by ASE
 ------------------------------
 Symbolic Z-matrix:
 Charge =  0 Multiplicity = 1

 SCF Done:  E(RM062X) =  -764.570772692     A.U. after   14 cycles
 SCF Done:  E(RM062X) =  -764.599952824     A.U. after   13 cycles
 SCF Done:  E(RM062X) =  -764.604912345     A.U. after   13 cycles
 SCF Done:  E(RM062X) =  -764.605102282     A.U. after   12 cycles
 SCF Done:  E(RM062X) =  -764.605119170     A.U. after   13 cycles
 SCF Done:  E(RM062X) =  -764.605123589     A.U. after   12 cycles
 SCF Done:  E(RM062X) =  -764.605123773     A.U. after   10 cycles

 Isotropic polarizability for W=    0.000000       44.29 Bohr**3.
 End of Minotr F.D. properties file   721 does not exist.

 Optimization completed.
    -- Stationary point found.

                          Input orientation:
 ---------------------------------------------------------------------
 Center     Atomic      Atomic             Coordinates (Angstroms)
 Number     Number       Type             X           Y           Z
 ---------------------------------------------------------------------
      1          6           0        1.483935    0.290314   -1.153080
      2          8           0        0.569774    0.243610   -2.009973
      3          6           0        1.555257   -0.627641    0.063938
      4          6           0        2.500638   -1.825869   -0.184529
      5          9           0        2.487738   -2.625092    0.867924
      6          9           0        2.091598   -2.500538   -1.250988
      7          9           0        3.735585   -1.397339   -0.392008
      8          9           0        2.012531    0.057385    1.116334
      9          9           0        0.340800   -1.105859    0.341723
     10          8           0        2.349626    1.160586   -1.413278
     11          1           0        1.430336    1.167057   -2.339227
 ---------------------------------------------------------------------

 ******    1 imaginary frequencies (negative Signs) ******

                      1                      2                      3
                      A                      A                      A
 Frequencies --  -1997.2307                14.1341                63.2620
 Red. masses --      1.0982                16.3323                16.4999
 Frc consts  --      2.5810                 0.0019                 0.0389
 IR Inten    --    353.4738                 0.0010                 0.0135

                      4                      5                      6
                      A                      A                      A
 Frequencies --    136.4150               212.7485               235.2682
 Red. masses --     11.2041                17.3521                15.5907
 Frc consts  --      0.1228                 0.4627                 0.5084
 IR Inten    --      0.5158                 2.0009                 0.0096

                      7                      8                      9
                      A                      A                      A
 Frequencies --    284.0855               362.3672               379.7452
 Red. masses --     15.8969                17.8695                17.0432
 Frc consts  --      0.7559                 1.3825                 1.4481
 IR Inten    --      2.2918                 0.0074                 0.0886

                     10                     11                     12
                      A                      A                      A
 Frequencies --    392.2494               513.5700               548.9594
 Red. masses --     14.1021                15.6141                13.3948
 Frc consts  --      1.2784                 2.4264                 2.3783
 IR Inten    --      1.2091                 3.9603                 7.1352

                     13                     14                     15
                      A                      A                      A
 Frequencies --    568.8788               620.3954               740.8379
 Red. masses --     10.7827                17.2395                 8.3458
 Frc consts  --      2.0560                 3.9094                 2.6988
 IR Inten    --     11.2152                 0.5376                 5.3039

                     16                     17                     18
                      A                      A                      A
 Frequencies --    776.9266               938.6758              1092.0351
 Red. masses --     15.7754                13.3640                12.3144
 Frc consts  --      5.6104                 6.9377                 8.6524
 IR Inten    --     34.7479               103.3965               113.1438

                     19                     20                     21
                      A                      A                      A
 Frequencies --   1177.2681              1243.3330              1274.1873
 Red. masses --      1.2425                12.7766                12.9944
 Frc consts  --      1.0146                11.6370                12.4301
 IR Inten    --     66.3615               251.4035                62.7407

                     22                     23                     24
                      A                      A                      A
 Frequencies --   1294.9340              1306.8651              1384.6918
 Red. masses --     13.2137                12.8471                12.4235
 Frc consts  --     13.0548                12.9275                14.0346
 IR Inten    --    338.5796               147.7688               117.8348

                     25                     26                     27
                      A                      A                      A
 Frequencies --   1582.8647              1728.4489              2236.8390
 Red. masses --      7.5519                 8.4785                 1.0930
 Frc consts  --     11.1480                14.9239                 3.2222
 IR Inten    --     95.8948               505.1058                73.3081

 - Thermochemistry -
 -------------------
 Temperature   298.150 Kelvin.  Pressure   1.00000 Atm.
 Atom     1 has atomic number  6 and mass  12.00000

 Molecular mass:   163.98967 amu.
 Principal axes and moments of inertia in atomic units:
                           1         2         3
     Eigenvalues --   934.251221560.976781621.10391
           X           -0.36960   0.70755   0.60230
           Y            0.81247  -0.06845   0.57898
           Z           -0.45089  -0.70334   0.54956
 This molecule is an asymmetric top.
 Rotational symmetry number  1.
 Warning -- assumption of classical behavior for rotation
           may cause significant error
 Rotational temperatures (Kelvin)      0.09271     0.05549     0.05343
 Rotational constants (GHZ):           1.93175     1.15616     1.11328
    1 imaginary frequencies ignored.
 Zero-point vibrational energy     126265.8 (Joules/Mol)
                                   30.17824 (Kcal/Mol)
 Warning -- explicit consideration of  13 degrees of freedom as
           vibrations may cause significant error
 Vibrational temperatures:     20.34    91.02   196.27   306.10   338.50
          (Kelvin)            408.74   521.37   546.37   564.36   738.91
                              789.83   818.49   892.61  1065.90  1117.82
                             1350.55  1571.19  1693.83  1788.88  1833.27
                             1863.12  1880.29  1992.26  2277.39  2486.85
                             3218.31

 Zero-point correction=                           0.048092 (Hartree/Particle)
 Thermal correction to Energy=                    0.056862
 Thermal correction to Enthalpy=                  0.057806
 Thermal correction to Gibbs Free Energy=         0.011982
 Sum of electronic and zero-point Energies=           -764.557032
 Sum of electronic and thermal Energies=              -764.548262
 Sum of electronic and thermal Enthalpies=            -764.547317
 Sum of electronic and thermal Free Energies=         -764.593141

                     E (Thermal)             CV                S
                      KCal/Mol        Cal/Mol-Kelvin    Cal/Mol-Kelvin
 Total                   35.682             29.386             96.445
 Electronic               0.000              0.000              0.000
 Translational            0.889              2.981             41.192
 Rotational               0.889              2.981             29.248
 Vibrational             33.904             23.425             26.004
 Vibration     1          0.593              1.986              7.324
 Vibration     2          0.597              1.972              4.353
 Vibration     3          0.614              1.917              2.854
 Vibration     4          0.644              1.821              2.020
 Vibration     5          0.655              1.787              1.838
 Vibration     6          0.682              1.703              1.509
 Vibration     7          0.736              1.550              1.112
 Vibration     8          0.750              1.513              1.040
 Vibration     9          0.760              1.487              0.992
 Vibration    10          0.869              1.220              0.625
 Vibration    11          0.904              1.142              0.546
 Vibration    12          0.925              1.099              0.506
 Vibration    13          0.980              0.989              0.416

 Normal termination of Gaussian 16 at Sat May 24 04:00:32 2025.
