 Gaussian 16, Revision C.01,
 Gaussian 16:  ES64L-G16RevC.01  3-Jul-2019

 ----------------------------------------------------------------------
 #P M062X/Def2TZVPP Symm(None) scf(xqc) pop(None) opt(NoFreeze,TS,CalcA
 ll,NoEigentest,MaxCycle=999)
 ----------------------------------------------------------------------

 ------------------------------
 Gaussian input prepared by ASE
 ------------------------------
 Symbolic Z-matrix:
 Charge =  0 Multiplicity = 1

 SCF Done:  E(RM062X) =  -764.476052788     A.U. after   20 cycles
 SCF Done:  E(RM062X) =  -764.471304995     A.U. after   18 cycles
 SCF Done:  E(RM062X) =  -764.461275757     A.U. after   18 cycles
 SCF Done:  E(RM062X) =  -764.453237458     A.U. after   17 cycles
 SCF Done:  E(RM062X) =  -764.447650547     A.U. after   20 cycles
 SCF Done:  E(RM062X) =  -764.441857603     A.U. after   17 cycles
 SCF Done:  E(RM062X) =  -764.439919005     A.U. after   16 cycles
 SCF Done:  E(RM062X) =  -764.439952844     A.U. after   15 cycles
 SCF Done:  E(RM062X) =  -764.439905638     A.U. after   20 cycles
 SCF Done:  E(RM062X) =  -764.439944546     A.U. after   14 cycles
 SCF Done:  E(RM062X) =  -764.439967939     A.U. after   14 cycles
 SCF Done:  E(RM062X) =  -764.439968680     A.U. after   13 cycles
 SCF Done:  E(RM062X) =  -764.439968686     A.U. after   11 cycles

 Isotropic polarizability for W=    0.000000       51.81 Bohr**3.
 End of Minotr F.D. properties file   721 does not exist.

 Optimization completed.
    -- Stationary point found.

                          Input orientation:
 ---------------------------------------------------------------------
 Center     Atomic      Atomic             Coordinates (Angstroms)
 Number     Number       Type             X           Y           Z
 ---------------------------------------------------------------------
      1          6           0        1.554269   -0.255490    0.035942
      2          8           0        2.236947   -1.165016    0.076432
      3          6           0        0.021800    0.005972   -0.037397
      4          6           0       -0.536349    0.401865    1.357426
      5          9           0       -1.855151    0.350737    1.301480
      6          9           0       -0.098237   -0.481759    2.248046
      7          9           0       -0.150456    1.605909    1.698366
      8          9           0       -0.235398    0.939696   -0.927020
      9          9           0       -0.526061   -1.150202   -0.406620
     10          8           0        2.461304    1.823353    0.096148
     11          1           0        2.056832    0.896338    0.069297
 ---------------------------------------------------------------------

 ******    2 imaginary frequencies (negative Signs) ******

                      1                      2                      3
                      A                      A                      A
 Frequencies --  -1437.3512             -1306.7597                19.7453
 Red. masses --      1.0390                 1.0399                15.8310
 Frc consts  --      1.2648                 1.0462                 0.0036
 IR Inten    --     58.4716                93.5017                 3.5447

                      4                      5                      6
                      A                      A                      A
 Frequencies --     65.2369               128.9734               169.4846
 Red. masses --     16.6462                15.2322                14.3231
 Frc consts  --      0.0417                 0.1493                 0.2424
 IR Inten    --      2.6259                 2.5473                 7.3647

                      7                      8                      9
                      A                      A                      A
 Frequencies --    212.7703               263.5591               295.1567
 Red. masses --     18.5706                17.2035                16.7479
 Frc consts  --      0.4953                 0.7041                 0.8596
 IR Inten    --      1.2239                 6.4292                 3.4627

                     10                     11                     12
                      A                      A                      A
 Frequencies --    350.8103               364.5426               449.2598
 Red. masses --     15.5867                17.8050                15.6938
 Frc consts  --      1.1302                 1.3941                 1.8663
 IR Inten    --      1.3024                 0.1318                 9.6159

                     13                     14                     15
                      A                      A                      A
 Frequencies --    456.9274               519.2477               562.2917
 Red. masses --     13.6227                14.0383                17.1050
 Frc consts  --      1.6757                 2.2300                 3.1864
 IR Inten    --     15.1378                10.5575                14.6381

                     16                     17                     18
                      A                      A                      A
 Frequencies --    603.3852               686.9940               757.2544
 Red. masses --     17.4874                15.2835                14.8645
 Frc consts  --      3.7511                 4.2499                 5.0221
 IR Inten    --      0.8729                17.4855               137.3973

                     19                     20                     21
                      A                      A                      A
 Frequencies --    842.6472              1049.8039              1200.2170
 Red. masses --     14.2589                12.8217                13.3945
 Frc consts  --      5.9652                 8.3255                11.3683
 IR Inten    --    159.5987               102.5073               194.9502

                     22                     23                     24
                      A                      A                      A
 Frequencies --   1290.6143              1302.2134              1334.1014
 Red. masses --     13.0724                13.0959                13.1322
 Frc consts  --     12.8291                13.0843                13.7710
 IR Inten    --    217.8804                89.0011               228.2777

                     25                     26                     27
                      A                      A                      A
 Frequencies --   1381.4497              2141.9246              3386.8345
 Red. masses --     12.7026                11.8045                 1.0514
 Frc consts  --     14.2828                31.9084                 7.1060
 IR Inten    --    103.7644               627.8787              2278.8185

 - Thermochemistry -
 -------------------
 Temperature   298.150 Kelvin.  Pressure   1.00000 Atm.
 Atom     1 has atomic number  6 and mass  12.00000

 Molecular mass:   163.98967 amu.
 Principal axes and moments of inertia in atomic units:
                           1         2         3
     Eigenvalues --  1092.480111569.432751748.67100
           X            0.89850   0.20744   0.38686
           Y           -0.00867   0.88951  -0.45683
           Z           -0.43888   0.40711   0.80103
 This molecule is an asymmetric top.
 Rotational symmetry number  1.
 Warning -- assumption of classical behavior for rotation
           may cause significant error
 Rotational temperatures (Kelvin)      0.07928     0.05519     0.04953
 Rotational constants (GHZ):           1.65197     1.14993     1.03206
    2 imaginary frequencies ignored.
 Zero-point vibrational energy     118642.3 (Joules/Mol)
                                   28.35619 (Kcal/Mol)
 Warning -- explicit consideration of  14 degrees of freedom as
           vibrations may cause significant error
 Vibrational temperatures:     28.41    93.86   185.56   243.85   306.13
          (Kelvin)            379.20   424.66   504.74   524.50   646.38
                              657.42   747.08   809.01   868.14   988.43
                             1089.52  1212.38  1510.43  1726.84  1856.91
                             1873.59  1919.47  1987.60  3081.75  4872.90

 Zero-point correction=                           0.045188 (Hartree/Particle)
 Thermal correction to Energy=                    0.054593
 Thermal correction to Enthalpy=                  0.055537
 Thermal correction to Gibbs Free Energy=         0.008734
 Sum of electronic and zero-point Energies=           -764.394780
 Sum of electronic and thermal Energies=              -764.385376
 Sum of electronic and thermal Enthalpies=            -764.384431
 Sum of electronic and thermal Free Energies=         -764.431235

                     E (Thermal)             CV                S
                      KCal/Mol        Cal/Mol-Kelvin    Cal/Mol-Kelvin
 Total                   34.258             31.381             98.506
 Electronic               0.000              0.000              0.000
 Translational            0.889              2.981             41.192
 Rotational               0.889              2.981             29.485
 Vibrational             32.480             25.420             27.829
 Vibration     1          0.593              1.986              6.660
 Vibration     2          0.597              1.971              4.292
 Vibration     3          0.611              1.924              2.961
 Vibration     4          0.625              1.880              2.441
 Vibration     5          0.644              1.821              2.020
 Vibration     6          0.670              1.740              1.638
 Vibration     7          0.689              1.683              1.444
 Vibration     8          0.728              1.574              1.163
 Vibration     9          0.738              1.545              1.103
 Vibration    10          0.808              1.363              0.798
 Vibration    11          0.815              1.346              0.775
 Vibration    12          0.874              1.207              0.612
 Vibration    13          0.918              1.113              0.519
 Vibration    14          0.962              1.025              0.444

 Normal termination of Gaussian 16 at Sat May 24 02:52:27 2025.
