 Gaussian 16, Revision C.01,
 Gaussian 16:  ES64L-G16RevC.01  3-Jul-2019

 -----------------------------------------------------------------
 #P M062X/Def2TZVPP Symm(None) scf(xqc) pop(None) freq opt(CalcFC)
 -----------------------------------------------------------------

 ------------------------------
 Gaussian input prepared by ASE
 ------------------------------
 Symbolic Z-matrix:
 Charge =  0 Multiplicity = 1

 SCF Done:  E(RM062X) =  -764.634045534     A.U. after   14 cycles
 SCF Done:  E(RM062X) =  -764.652617608     A.U. after   14 cycles
 SCF Done:  E(RM062X) =  -764.657841979     A.U. after   13 cycles
 SCF Done:  E(RM062X) =  -764.660370423     A.U. after   13 cycles
 SCF Done:  E(RM062X) =  -764.661802818     A.U. after   12 cycles
 SCF Done:  E(RM062X) =  -764.662761384     A.U. after   14 cycles
 SCF Done:  E(RM062X) =  -764.663512541     A.U. after   14 cycles
 SCF Done:  E(RM062X) =  -764.663913054     A.U. after   13 cycles
 SCF Done:  E(RM062X) =  -764.664390626     A.U. after   14 cycles
 SCF Done:  E(RM062X) =  -764.664498268     A.U. after   11 cycles
 SCF Done:  E(RM062X) =  -764.664555972     A.U. after   11 cycles
 SCF Done:  E(RM062X) =  -764.664561349     A.U. after   11 cycles
 SCF Done:  E(RM062X) =  -764.664561609     A.U. after    8 cycles
 SCF Done:  E(RM062X) =  -764.664561642     A.U. after    6 cycles
 Optimization completed.
    -- Stationary point found.
 Normal termination of Gaussian 16 at Sat May 24 03:50:03 2025.

 ---------------------------------------------------------------------
 #P Geom=AllCheck Guess=TCheck SCRF=Check GenChk RM062X/def2TZVPP Freq
 ---------------------------------------------------------------------

 Structure from the checkpoint file:  "1642764945472630600001_r12_insertion_R_8_3_1_IRC_F_prod.chk"
 ------------------------------
 Gaussian input prepared by ASE
 ------------------------------
 Charge =  0 Multiplicity = 1

                          Input orientation:
 ---------------------------------------------------------------------
 Center     Atomic      Atomic             Coordinates (Angstroms)
 Number     Number       Type             X           Y           Z
 ---------------------------------------------------------------------
      1          6           0        1.441132   -0.347903   -0.380086
      2          8           0        1.839871   -1.411395   -0.042719
      3          6           0       -0.080670   -0.079300   -0.493839
      4          6           0       -0.739127    0.103195    0.888477
      5          9           0       -2.013156    0.431540    0.743423
      6          9           0       -0.654611   -1.005641    1.598164
      7          9           0       -0.113160    1.084811    1.536424
      8          9           0       -0.302275    1.060278   -1.192244
      9          9           0       -0.675735   -1.089310   -1.124126
     10          8           0        2.221520    0.689774   -0.663529
     11          1           0        1.706066    1.450729   -0.957395
 ---------------------------------------------------------------------

 SCF Done:  E(RM062X) =  -764.664561642     A.U. after    1 cycles

 Isotropic polarizability for W=    0.000000       43.64 Bohr**3.
 End of Minotr F.D. properties file   721 does not exist.

                      1                      2                      3
                      A                      A                      A
 Frequencies --     29.7075                64.0085               142.9891
 Red. masses --      9.3781                14.8085                16.6577
 Frc consts  --      0.0049                 0.0357                 0.2007
 IR Inten    --      4.2837                 0.8681                 2.2978

                      4                      5                      6
                      A                      A                      A
 Frequencies --    214.2186               267.2300               293.4872
 Red. masses --     17.0557                13.7602                17.4042
 Frc consts  --      0.4611                 0.5790                 0.8832
 IR Inten    --      3.7225                 5.5766                 6.0451

                      7                      8                      9
                      A                      A                      A
 Frequencies --    360.2245               377.8909               395.4275
 Red. masses --     16.7707                 9.5128                15.8842
 Frc consts  --      1.2822                 0.8004                 1.4634
 IR Inten    --      0.5079                 6.7054                 2.6315

                     10                     11                     12
                      A                      A                      A
 Frequencies --    515.5098               521.3096               548.9558
 Red. masses --      3.5834                 1.7067                 9.1148
 Frc consts  --      0.5611                 0.2733                 1.6183
 IR Inten    --     53.7223                63.9416                15.3962

                     13                     14                     15
                      A                      A                      A
 Frequencies --    592.8961               625.1007               711.2543
 Red. masses --      8.9106                14.4769                 9.2550
 Frc consts  --      1.8455                 3.3329                 2.7585
 IR Inten    --      5.3150                 2.8014                34.0373

                     16                     17                     18
                      A                      A                      A
 Frequencies --    781.3007               798.7320              1055.3992
 Red. masses --     12.2179                13.0419                13.3036
 Frc consts  --      4.3942                 4.9022                 8.7307
 IR Inten    --      1.5013                14.9525               145.9430

                     19                     20                     21
                      A                      A                      A
 Frequencies --   1177.7800              1251.4462              1267.2074
 Red. masses --      5.3679                 2.3101                11.1829
 Frc consts  --      4.3871                 2.1316                10.5804
 IR Inten    --     97.7164               114.1488               319.0069

                     22                     23                     24
                      A                      A                      A
 Frequencies --   1282.1488              1309.2890              1377.0454
 Red. masses --      4.8486                13.1222                 6.5401
 Frc consts  --      4.6962                13.2534                 7.3069
 IR Inten    --     53.5113               264.7117               323.3125

                     25                     26                     27
                      A                      A                      A
 Frequencies --   1414.6175              1942.6898              3840.5304
 Red. masses --      5.9598                11.4627                 1.0657
 Frc consts  --      7.0268                25.4886                 9.2612
 IR Inten    --     98.0747               292.1626               137.7515

 - Thermochemistry -
 -------------------
 Temperature   298.150 Kelvin.  Pressure   1.00000 Atm.
 Atom     1 has atomic number  6 and mass  12.00000

 Molecular mass:   163.98967 amu.
 Principal axes and moments of inertia in atomic units:
                           1         2         3
     Eigenvalues --   948.924021534.695981591.42161
           X            0.87117   0.34151   0.35276
           Y           -0.10621  -0.57039   0.81448
           Z           -0.47936   0.74701   0.46064
 This molecule is an asymmetric top.
 Rotational symmetry number  1.
 Warning -- assumption of classical behavior for rotation
           may cause significant error
 Rotational temperatures (Kelvin)      0.09128     0.05644     0.05443
 Rotational constants (GHZ):           1.90188     1.17596     1.13404
 Zero-point vibrational energy     138518.0 (Joules/Mol)
                                   33.10659 (Kcal/Mol)
 Warning -- explicit consideration of  13 degrees of freedom as
           vibrations may cause significant error
 Vibrational temperatures:     42.74    92.09   205.73   308.21   384.48
          (Kelvin)            422.26   518.28   543.70   568.93   741.70
                              750.05   789.82   853.05   899.38  1023.34
                             1124.12  1149.20  1518.48  1694.56  1800.55
                             1823.23  1844.73  1883.77  1981.26  2035.32
                             2795.10  5525.67

 Zero-point correction=                           0.052759 (Hartree/Particle)
 Thermal correction to Energy=                    0.061663
 Thermal correction to Enthalpy=                  0.062607
 Thermal correction to Gibbs Free Energy=         0.017358
 Sum of electronic and zero-point Energies=           -764.611803
 Sum of electronic and thermal Energies=              -764.602899
 Sum of electronic and thermal Enthalpies=            -764.601955
 Sum of electronic and thermal Free Energies=         -764.647203

                     E (Thermal)             CV                S
                      KCal/Mol        Cal/Mol-Kelvin    Cal/Mol-Kelvin
 Total                   38.694             30.755             95.234
 Electronic               0.000              0.000              0.000
 Translational            0.889              2.981             41.192
 Rotational               0.889              2.981             29.229
 Vibrational             36.917             24.794             24.813
 Vibration     1          0.593              1.984              5.849
 Vibration     2          0.597              1.971              4.330
 Vibration     3          0.616              1.910              2.763
 Vibration     4          0.644              1.819              2.007
 Vibration     5          0.672              1.733              1.614
 Vibration     6          0.688              1.686              1.454
 Vibration     7          0.735              1.554              1.121
 Vibration     8          0.748              1.517              1.048
 Vibration     9          0.762              1.480              0.980
 Vibration    10          0.871              1.216              0.620
 Vibration    11          0.876              1.203              0.607
 Vibration    12          0.904              1.142              0.546
 Vibration    13          0.950              1.047              0.462

 Optimization completed.
    -- Stationary point found.
 Normal termination of Gaussian 16 at Sat May 24 03:53:37 2025.
