 Gaussian 16, Revision C.01,
 Gaussian 16:  ES64L-G16RevC.01  3-Jul-2019

 ----------------------------------------------------------------------
 #P M062X/Def2TZVPP Symm(None) scf(xqc) pop(None) geom(AllCheck,NoKeepC
 onstants) guess(Read) irc(RCFC,reverse,MaxPoints=100,StepSize=2)
 ----------------------------------------------------------------------

 Structure from the checkpoint file:  "1642764945472630600001_r12_insertion_R_4_3_8_IRC_R.chk"
 ------------------------------
 Gaussian input prepared by ASE
 ------------------------------
 Charge =  0 Multiplicity = 1

 SCF Done:  E(RM062X) =  -764.514369690     A.U. after   10 cycles
 SCF Done:  E(RM062X) =  -764.514633606     A.U. after   11 cycles
 SCF Done:  E(RM062X) =  -764.515071890     A.U. after   11 cycles
 SCF Done:  E(RM062X) =  -764.515682198     A.U. after   11 cycles
 SCF Done:  E(RM062X) =  -764.516461354     A.U. after   11 cycles
 SCF Done:  E(RM062X) =  -764.517405423     A.U. after   11 cycles
 SCF Done:  E(RM062X) =  -764.518509802     A.U. after   11 cycles
 SCF Done:  E(RM062X) =  -764.519769306     A.U. after   11 cycles
 SCF Done:  E(RM062X) =  -764.521178260     A.U. after   11 cycles
 SCF Done:  E(RM062X) =  -764.522730583     A.U. after   11 cycles
 SCF Done:  E(RM062X) =  -764.665713939     A.U. after    9 cycles
 SCF Done:  E(RM062X) =  -764.665961528     A.U. after    9 cycles
 SCF Done:  E(RM062X) =  -764.666184046     A.U. after    9 cycles
 SCF Done:  E(RM062X) =  -764.666382543     A.U. after    9 cycles
 SCF Done:  E(RM062X) =  -764.666558225     A.U. after    9 cycles
 SCF Done:  E(RM062X) =  -764.666712484     A.U. after    9 cycles
 SCF Done:  E(RM062X) =  -764.666846941     A.U. after    9 cycles
 SCF Done:  E(RM062X) =  -764.666963462     A.U. after    9 cycles
 SCF Done:  E(RM062X) =  -764.667064149     A.U. after    9 cycles
 SCF Done:  E(RM062X) =  -764.667151263     A.U. after    9 cycles

                          Input orientation:
 ---------------------------------------------------------------------
 Center     Atomic      Atomic             Coordinates (Angstroms)
 Number     Number       Type             X           Y           Z
 ---------------------------------------------------------------------
      1          6           0        1.456826   -0.293885   -0.451538
      2          8           0        2.019151   -1.072889   -1.148984
      3          6           0        0.078559   -0.587474    0.184170
      4          6           0       -0.904918    0.593141    0.101216
      5          9           0       -2.094667    0.219073    0.545961
      6          9           0        0.240652   -0.927232    1.473412
      7          9           0       -0.503775    1.634456    0.810229
      8          9           0       -1.004431    0.943635   -1.179154
      9          9           0       -0.481823   -1.605670   -0.468786
     10          8           0        1.899254    0.909420   -0.098422
     11          1           0        2.768974    1.044472   -0.500200
 ---------------------------------------------------------------------

 Normal termination of Gaussian 16 at Sat May 24 04:01:54 2025.
