 Gaussian 16, Revision C.01,
 Gaussian 16:  ES64L-G16RevC.01  3-Jul-2019

 ----------------------------------------------------------------------
 #P M062X/Def2TZVPP Symm(None) scf(xqc) pop(None) opt(CalcAll,Cartesian
 )
 ----------------------------------------------------------------------

 ------------------------------
 Gaussian input prepared by ASE
 ------------------------------
 Symbolic Z-matrix:
 Charge =  0 Multiplicity = 1

 SCF Done:  E(RM062X) =  -764.664303371     A.U. after   13 cycles
 SCF Done:  E(RM062X) =  -764.664313036     A.U. after   11 cycles
 SCF Done:  E(RM062X) =  -764.664351383     A.U. after    9 cycles
 SCF Done:  E(RM062X) =  -764.660416191     A.U. after   14 cycles
 SCF Done:  E(RM062X) =  -764.664044476     A.U. after   11 cycles
 SCF Done:  E(RM062X) =  -764.656050527     A.U. after   12 cycles
 SCF Done:  E(RM062X) =  -764.664352831     A.U. after    8 cycles
 SCF Done:  E(RM062X) =  -764.664266385     A.U. after   12 cycles
 SCF Done:  E(RM062X) =  -764.664364499     A.U. after   10 cycles
 SCF Done:  E(RM062X) =  -764.664343573     A.U. after   11 cycles
 SCF Done:  E(RM062X) =  -764.664381425     A.U. after   10 cycles
 SCF Done:  E(RM062X) =  -764.664386595     A.U. after    9 cycles
 SCF Done:  E(RM062X) =  -764.664339196     A.U. after   11 cycles
 SCF Done:  E(RM062X) =  -764.664388517     A.U. after    9 cycles
 SCF Done:  E(RM062X) =  -764.664393815     A.U. after   10 cycles
 SCF Done:  E(RM062X) =  -764.664392854     A.U. after    9 cycles
 SCF Done:  E(RM062X) =  -764.664394130     A.U. after    8 cycles
 SCF Done:  E(RM062X) =  -764.664394585     A.U. after   10 cycles
 SCF Done:  E(RM062X) =  -764.664394761     A.U. after    8 cycles
 SCF Done:  E(RM062X) =  -764.664394763     A.U. after    6 cycles

 Isotropic polarizability for W=    0.000000       43.69 Bohr**3.
 End of Minotr F.D. properties file   721 does not exist.

 Optimization completed.
    -- Stationary point found.

                          Input orientation:
 ---------------------------------------------------------------------
 Center     Atomic      Atomic             Coordinates (Angstroms)
 Number     Number       Type             X           Y           Z
 ---------------------------------------------------------------------
      1          6           0        2.497740   -2.069130   -2.315672
      2          8           0        2.582665   -1.273984   -1.528177
      3          6           0        0.002972    0.147368   -0.025224
      4          6           0       -1.152712    0.849330    0.716258
      5          9           0       -2.313940    0.378098    0.282811
      6          9           0       -1.060538    0.628287    2.019256
      7          9           0       -1.111107    2.154891    0.495142
      8          9           0       -0.158426    0.343451   -1.348772
      9          9           0       -0.106206   -1.180810    0.175499
     10          8           0        1.170786    0.631653    0.419077
     11          1           0        1.895831    0.191798   -0.043609
 ---------------------------------------------------------------------

                      1                      2                      3
                      A                      A                      A
 Frequencies --     26.4530                28.0377                63.0861
 Red. masses --     12.5351                13.3018                13.6348
 Frc consts  --      0.0052                 0.0062                 0.0320
 IR Inten    --      0.4236                 0.0466                 0.3332

                      4                      5                      6
                      A                      A                      A
 Frequencies --     66.0163                72.4099                95.1902
 Red. masses --     15.0145                17.1787                15.1332
 Frc consts  --      0.0386                 0.0531                 0.0808
 IR Inten    --      0.4181                 0.0204                 0.8286

                      7                      8                      9
                      A                      A                      A
 Frequencies --    220.1981               233.6712               342.2633
 Red. masses --     18.5665                11.6034                 1.4297
 Frc consts  --      0.5304                 0.3733                 0.0987
 IR Inten    --      1.9862                 1.5937                65.6113

                     10                     11                     12
                      A                      A                      A
 Frequencies --    356.4020               390.5788               403.2456
 Red. masses --     14.9520                11.7181                 3.5691
 Frc consts  --      1.1190                 1.0532                 0.3419
 IR Inten    --      0.5513                 4.1464                30.1062

                     13                     14                     15
                      A                      A                      A
 Frequencies --    531.9363               544.5191               628.3692
 Red. masses --     15.4445                10.9706                16.9854
 Frc consts  --      2.5748                 1.9165                 3.9515
 IR Inten    --      9.4255                22.5252                 0.3922

                     16                     17                     18
                      A                      A                      A
 Frequencies --    629.6955               705.2168               826.3312
 Red. masses --     16.4554                 6.7468                11.1046
 Frc consts  --      3.8443                 1.9769                 4.4675
 IR Inten    --      0.1617                59.1500                 6.2089

                     19                     20                     21
                      A                      A                      A
 Frequencies --   1069.9751              1197.4850              1270.5932
 Red. masses --      3.7764                13.0109                 2.7577
 Frc consts  --      2.5473                10.9925                 2.6231
 IR Inten    --    150.6057               213.2430               272.5442

                     22                     23                     24
                      A                      A                      A
 Frequencies --   1295.3791              1296.5230              1315.4296
 Red. masses --     13.1331                 6.7922                10.0981
 Frc consts  --     12.9840                 6.7270                10.2950
 IR Inten    --    319.4241               201.8668               312.2670

                     25                     26                     27
                      A                      A                      A
 Frequencies --   1522.9656              2261.7356              3829.3553
 Red. masses --      4.1228                13.4295                 1.0648
 Frc consts  --      5.6341                40.4757                 9.1992
 IR Inten    --      6.6193               134.3056               233.2192

 - Thermochemistry -
 -------------------
 Temperature   298.150 Kelvin.  Pressure   1.00000 Atm.
 Atom     1 has atomic number  6 and mass  12.00000

 Molecular mass:   163.98967 amu.
 Principal axes and moments of inertia in atomic units:
                           1         2         3
     Eigenvalues --   651.575532576.992472597.23965
           X            0.71459   0.69910   0.02491
           Y           -0.48313   0.51897  -0.70516
           Z           -0.50590   0.49187   0.70861
 This molecule is an asymmetric top.
 Rotational symmetry number  1.
 Warning -- assumption of classical behavior for rotation
           may cause significant error
 Rotational temperatures (Kelvin)      0.13293     0.03361     0.03335
 Rotational constants (GHZ):           2.76981     0.70033     0.69487
 Zero-point vibrational energy     126942.1 (Joules/Mol)
                                   30.33989 (Kcal/Mol)
 Warning -- explicit consideration of  14 degrees of freedom as
           vibrations may cause significant error
 Vibrational temperatures:     38.06    40.34    90.77    94.98   104.18
          (Kelvin)            136.96   316.82   336.20   492.44   512.78
                              561.96   580.18   765.34   783.44   904.08
                              905.99  1014.65  1188.91  1539.46  1722.91
                             1828.10  1863.76  1865.41  1892.61  2191.21
                             3254.13  5509.59

 Zero-point correction=                           0.048350 (Hartree/Particle)
 Thermal correction to Energy=                    0.059441
 Thermal correction to Enthalpy=                  0.060385
 Thermal correction to Gibbs Free Energy=         0.008065
 Sum of electronic and zero-point Energies=           -764.616045
 Sum of electronic and thermal Energies=              -764.604953
 Sum of electronic and thermal Enthalpies=            -764.604009
 Sum of electronic and thermal Free Energies=         -764.656330

                     E (Thermal)             CV                S
                      KCal/Mol        Cal/Mol-Kelvin    Cal/Mol-Kelvin
 Total                   37.300             34.389            110.118
 Electronic               0.000              0.000              0.000
 Translational            0.889              2.981             41.192
 Rotational               0.889              2.981             29.857
 Vibrational             35.523             28.428             39.068
 Vibration     1          0.593              1.985              6.079
 Vibration     2          0.593              1.984              5.964
 Vibration     3          0.597              1.972              4.358
 Vibration     4          0.597              1.970              4.269
 Vibration     5          0.599              1.967              4.087
 Vibration     6          0.603              1.953              3.550
 Vibration     7          0.647              1.810              1.957
 Vibration     8          0.654              1.789              1.851
 Vibration     9          0.721              1.591              1.202
 Vibration    10          0.732              1.562              1.138
 Vibration    11          0.758              1.490              0.998
 Vibration    12          0.769              1.463              0.951
 Vibration    13          0.887              1.179              0.583
 Vibration    14          0.900              1.152              0.556

 Normal termination of Gaussian 16 at Sat May 24 06:06:42 2025.
