 Gaussian 16, Revision C.01,
 Gaussian 16:  ES64L-G16RevC.01  3-Jul-2019

 ----------------------------------------------------------------------
 #P M062X/Def2TZVPP Symm(None) scf(xqc) pop(None) geom(AllCheck,NoKeepC
 onstants) guess(Read) irc(RCFC,forward,MaxPoints=100,StepSize=2)
 ----------------------------------------------------------------------

 Structure from the checkpoint file:  "1642764945472630600001_r12_insertion_R_4_3_8_IRC_F.chk"
 ------------------------------
 Gaussian input prepared by ASE
 ------------------------------
 Charge =  0 Multiplicity = 1

 SCF Done:  E(RM062X) =  -764.514369722     A.U. after   10 cycles
 SCF Done:  E(RM062X) =  -764.514633666     A.U. after   11 cycles
 SCF Done:  E(RM062X) =  -764.515071971     A.U. after   11 cycles
 SCF Done:  E(RM062X) =  -764.515682272     A.U. after   11 cycles
 SCF Done:  E(RM062X) =  -764.516461367     A.U. after   11 cycles
 SCF Done:  E(RM062X) =  -764.517405284     A.U. after   11 cycles
 SCF Done:  E(RM062X) =  -764.518509390     A.U. after   11 cycles
 SCF Done:  E(RM062X) =  -764.519768499     A.U. after   11 cycles
 SCF Done:  E(RM062X) =  -764.521176974     A.U. after   11 cycles
 SCF Done:  E(RM062X) =  -764.522728798     A.U. after   11 cycles
 SCF Done:  E(RM062X) =  -764.665720146     A.U. after    9 cycles
 SCF Done:  E(RM062X) =  -764.665967833     A.U. after    9 cycles
 SCF Done:  E(RM062X) =  -764.666190436     A.U. after    9 cycles
 SCF Done:  E(RM062X) =  -764.666389009     A.U. after    9 cycles
 SCF Done:  E(RM062X) =  -764.666564757     A.U. after    9 cycles
 SCF Done:  E(RM062X) =  -764.666719077     A.U. after    9 cycles
 SCF Done:  E(RM062X) =  -764.666853588     A.U. after    9 cycles
 SCF Done:  E(RM062X) =  -764.666970160     A.U. after    9 cycles
 SCF Done:  E(RM062X) =  -764.667070898     A.U. after    9 cycles
 SCF Done:  E(RM062X) =  -764.667158059     A.U. after    9 cycles

                          Input orientation:
 ---------------------------------------------------------------------
 Center     Atomic      Atomic             Coordinates (Angstroms)
 Number     Number       Type             X           Y           Z
 ---------------------------------------------------------------------
      1          6           0        1.399644   -0.200482   -0.642813
      2          8           0        2.029111   -1.089265   -1.115374
      3          6           0       -0.143936   -0.223862   -0.560674
      4          6           0       -0.698544    0.255823    0.792130
      5          9           0       -2.010673    0.081691    0.827254
      6          9           0       -0.131467   -0.482958    1.743216
      7          9           0       -0.441656    1.532899    1.018118
      8          9           0       -0.658246    0.542242   -1.536640
      9          9           0       -0.558957   -1.479764   -0.726725
     10          8           0        1.887991    0.927766   -0.135885
     11          1           0        2.851142    0.910236   -0.225185
 ---------------------------------------------------------------------

 Normal termination of Gaussian 16 at Sat May 24 04:07:37 2025.
