 Gaussian 16, Revision C.01,
 Gaussian 16:  ES64L-G16RevC.01  3-Jul-2019

 ----------------------------------------------------------------------
 #P M062X/Def2TZVPP Symm(None) scf(xqc) pop(None) geom(AllCheck,NoKeepC
 onstants) guess(Read) irc(RCFC,reverse,MaxPoints=100,StepSize=2)
 ----------------------------------------------------------------------

 Structure from the checkpoint file:  "1642764945472630600001_r12_insertion_R_10_1_3_IRC_R.chk"
 ------------------------------
 Gaussian input prepared by ASE
 ------------------------------
 Charge =  0 Multiplicity = 1

 SCF Done:  E(RM062X) =  -764.495126815     A.U. after   10 cycles
 SCF Done:  E(RM062X) =  -764.495212212     A.U. after   11 cycles
 SCF Done:  E(RM062X) =  -764.495355414     A.U. after   11 cycles
 SCF Done:  E(RM062X) =  -764.495557043     A.U. after   11 cycles
 SCF Done:  E(RM062X) =  -764.495817630     A.U. after   11 cycles
 SCF Done:  E(RM062X) =  -764.496137606     A.U. after   11 cycles
 SCF Done:  E(RM062X) =  -764.496517299     A.U. after   11 cycles
 SCF Done:  E(RM062X) =  -764.496956939     A.U. after   11 cycles
 SCF Done:  E(RM062X) =  -764.497456648     A.U. after   11 cycles
 SCF Done:  E(RM062X) =  -764.498016453     A.U. after   11 cycles
 SCF Done:  E(RM062X) =  -764.624337485     A.U. after    9 cycles
 SCF Done:  E(RM062X) =  -764.625516858     A.U. after    9 cycles
 SCF Done:  E(RM062X) =  -764.626679348     A.U. after    9 cycles
 SCF Done:  E(RM062X) =  -764.627825123     A.U. after    9 cycles
 SCF Done:  E(RM062X) =  -764.628954305     A.U. after    9 cycles
 SCF Done:  E(RM062X) =  -764.630066989     A.U. after    9 cycles
 SCF Done:  E(RM062X) =  -764.631163258     A.U. after    9 cycles
 SCF Done:  E(RM062X) =  -764.632243159     A.U. after    9 cycles
 SCF Done:  E(RM062X) =  -764.633306672     A.U. after    9 cycles
 SCF Done:  E(RM062X) =  -764.634353729     A.U. after    9 cycles

                          Input orientation:
 ---------------------------------------------------------------------
 Center     Atomic      Atomic             Coordinates (Angstroms)
 Number     Number       Type             X           Y           Z
 ---------------------------------------------------------------------
      1          6           0        1.407970   -0.542350   -0.517272
      2          8           0        2.111069   -1.501318   -0.604980
      3          6           0       -0.132012   -0.137701   -0.654980
      4          6           0       -0.684784    0.235204    0.777832
      5          9           0       -1.964747   -0.090036    0.785001
      6          9           0       -0.046349   -0.463134    1.715483
      7          9           0       -0.585828    1.518821    1.097962
      8          9           0       -0.309497    0.985971   -1.401107
      9          9           0       -0.868099   -1.059088   -1.242727
     10          8           0        1.764132    0.712357   -0.197792
     11          1           0        2.612873    0.992668   -0.557974
 ---------------------------------------------------------------------

 Normal termination of Gaussian 16 at Sat May 24 04:31:24 2025.
