 Gaussian 16, Revision C.01,
 Gaussian 16:  ES64L-G16RevC.01  3-Jul-2019

 ----------------------------------------------------------------------
 #P M062X/Def2TZVPP Symm(None) scf(xqc) pop(None) opt(NoFreeze,TS,CalcA
 ll,NoEigentest,MaxCycle=999)
 ----------------------------------------------------------------------

 ------------------------------
 Gaussian input prepared by ASE
 ------------------------------
 Symbolic Z-matrix:
 Charge =  0 Multiplicity = 1

 SCF Done:  E(RM062X) =  -764.401194318     A.U. after   15 cycles
 SCF Done:  E(RM062X) =  -764.424099348     A.U. after   16 cycles
 SCF Done:  E(RM062X) =  -764.430488708     A.U. after   14 cycles
 SCF Done:  E(RM062X) =  -764.438892686     A.U. after   15 cycles
 SCF Done:  E(RM062X) =  -764.447218753     A.U. after   15 cycles
 SCF Done:  E(RM062X) =  -764.453518742     A.U. after   15 cycles
 SCF Done:  E(RM062X) =  -764.456240821     A.U. after   13 cycles
 SCF Done:  E(RM062X) =  -764.457552223     A.U. after   13 cycles
 SCF Done:  E(RM062X) =  -764.457797749     A.U. after   12 cycles
 SCF Done:  E(RM062X) =  -764.457807060     A.U. after   10 cycles
 SCF Done:  E(RM062X) =  -764.457807089     A.U. after    7 cycles

 Isotropic polarizability for W=    0.000000       56.23 Bohr**3.
 End of Minotr F.D. properties file   721 does not exist.

 Optimization completed.
    -- Stationary point found.

                          Input orientation:
 ---------------------------------------------------------------------
 Center     Atomic      Atomic             Coordinates (Angstroms)
 Number     Number       Type             X           Y           Z
 ---------------------------------------------------------------------
      1          6           0        1.411100    0.264615    0.415855
      2          8           0        2.129210   -0.658617    0.482099
      3          6           0       -0.606129   -0.340567   -0.242387
      4          6           0       -0.285968    0.301109    1.312871
      5          9           0       -1.107423    1.347834    1.244870
      6          9           0       -0.742842   -0.747294    1.997629
      7          9           0        0.631212    0.816001    2.322435
      8          9           0       -0.467845    0.407387   -1.304560
      9          9           0       -0.174671   -1.533895   -0.511906
     10          8           0        1.603275    1.497760    0.010499
     11          1           0        2.539579    1.617068   -0.215306
 ---------------------------------------------------------------------

 ******    1 imaginary frequencies (negative Signs) ******

                      1                      2                      3
                      A                      A                      A
 Frequencies --   -632.7331                52.3785               117.6846
 Red. masses --     11.9426                14.6475                17.0904
 Frc consts  --      2.8170                 0.0237                 0.1395
 IR Inten    --      8.4060                 2.1671                 6.3353

                      4                      5                      6
                      A                      A                      A
 Frequencies --    150.0206               161.9959               222.8737
 Red. masses --     14.4591                11.8330                12.6857
 Frc consts  --      0.1917                 0.1830                 0.3713
 IR Inten    --      5.1096                46.1959                 2.6286

                      7                      8                      9
                      A                      A                      A
 Frequencies --    236.4811               281.4558               317.3126
 Red. masses --     16.1653                 8.8253                11.4003
 Frc consts  --      0.5326                 0.4119                 0.6763
 IR Inten    --      0.9488                21.9358                 1.5757

                     10                     11                     12
                      A                      A                      A
 Frequencies --    422.2280               436.9672               480.4868
 Red. masses --      4.1984                 2.5604                17.9498
 Frc consts  --      0.4410                 0.2880                 2.4416
 IR Inten    --     32.8280               183.3883                 0.0145

                     13                     14                     15
                      A                      A                      A
 Frequencies --    507.0339               574.0573               617.3298
 Red. masses --      3.3559                16.9193                 5.5434
 Frc consts  --      0.5083                 3.2850                 1.2447
 IR Inten    --      2.5887                 4.8699                83.6707

                     16                     17                     18
                      A                      A                      A
 Frequencies --    643.4963               675.9027               715.6059
 Red. masses --      5.2173                14.3423                16.0238
 Frc consts  --      1.2729                 3.8604                 4.8346
 IR Inten    --    121.8915                55.6699                 2.2526

                     19                     20                     21
                      A                      A                      A
 Frequencies --    771.2699              1062.6925              1127.3959
 Red. masses --     11.4411                13.9782                 5.9646
 Frc consts  --      4.0099                 9.3007                 4.4667
 IR Inten    --    211.9778               355.2452               332.1023

                     22                     23                     24
                      A                      A                      A
 Frequencies --   1248.4616              1263.8371              1304.8621
 Red. masses --      2.5305                12.5506                12.7516
 Frc consts  --      2.3239                11.8112                12.7922
 IR Inten    --    285.9285                50.7886               391.3721

                     25                     26                     27
                      A                      A                      A
 Frequencies --   1347.7998              1962.7418              3752.4616
 Red. masses --      3.0655                12.9929                 1.0642
 Frc consts  --      3.2810                29.4905                 8.8292
 IR Inten    --     50.6458               482.1361               107.7775

 - Thermochemistry -
 -------------------
 Temperature   298.150 Kelvin.  Pressure   1.00000 Atm.
 Atom     1 has atomic number  6 and mass  12.00000

 Molecular mass:   163.98967 amu.
 Principal axes and moments of inertia in atomic units:
                           1         2         3
     Eigenvalues --  1162.238381290.047621512.64242
           X           -0.15078   0.93951  -0.30757
           Y            0.35342   0.34179   0.87079
           Z            0.92323   0.02259  -0.38357
 This molecule is an asymmetric top.
 Rotational symmetry number  1.
 Warning -- assumption of classical behavior for rotation
           may cause significant error
 Rotational temperatures (Kelvin)      0.07452     0.06714     0.05726
 Rotational constants (GHZ):           1.55282     1.39897     1.19310
    1 imaginary frequencies ignored.
 Zero-point vibrational energy     122347.1 (Joules/Mol)
                                   29.24165 (Kcal/Mol)
 Warning -- explicit consideration of  14 degrees of freedom as
           vibrations may cause significant error
 Vibrational temperatures:     75.36   169.32   215.85   233.08   320.67
          (Kelvin)            340.24   404.95   456.54   607.49   628.70
                              691.31   729.51   825.94   888.20   925.85
                              972.47  1029.60  1109.69  1528.98  1622.07
                             1796.26  1818.38  1877.41  1939.18  2823.95
                             5398.96

 Zero-point correction=                           0.046600 (Hartree/Particle)
 Thermal correction to Energy=                    0.056003
 Thermal correction to Enthalpy=                  0.056947
 Thermal correction to Gibbs Free Energy=         0.011552
 Sum of electronic and zero-point Energies=           -764.411208
 Sum of electronic and thermal Energies=              -764.401804
 Sum of electronic and thermal Enthalpies=            -764.400860
 Sum of electronic and thermal Free Energies=         -764.446256

                     E (Thermal)             CV                S
                      KCal/Mol        Cal/Mol-Kelvin    Cal/Mol-Kelvin
 Total                   35.143             32.541             95.544
 Electronic               0.000              0.000              0.000
 Translational            0.889              2.981             41.192
 Rotational               0.889              2.981             29.207
 Vibrational             33.365             26.579             25.144
 Vibration     1          0.596              1.977              4.726
 Vibration     2          0.608              1.935              3.138
 Vibration     3          0.618              1.903              2.672
 Vibration     4          0.622              1.889              2.526
 Vibration     5          0.649              1.806              1.936
 Vibration     6          0.655              1.785              1.829
 Vibration     7          0.681              1.708              1.525
 Vibration     8          0.704              1.641              1.324
 Vibration     9          0.785              1.422              0.884
 Vibration    10          0.797              1.390              0.836
 Vibration    11          0.837              1.293              0.709
 Vibration    12          0.862              1.234              0.641
 Vibration    13          0.930              1.087              0.496
 Vibration    14          0.977              0.995              0.421

 Normal termination of Gaussian 16 at Sat May 24 02:41:29 2025.
