 Gaussian 16, Revision C.01,
 Gaussian 16:  ES64L-G16RevC.01  3-Jul-2019

 ----------------------------------------------------------------------
 #P M062X/Def2TZVPP Symm(None) scf(xqc) pop(None) opt(NoFreeze,TS,CalcA
 ll,NoEigentest,MaxCycle=999)
 ----------------------------------------------------------------------

 ------------------------------
 Gaussian input prepared by ASE
 ------------------------------
 Symbolic Z-matrix:
 Charge =  0 Multiplicity = 1

 SCF Done:  E(RM062X) =  -764.429417966     A.U. after   18 cycles
 SCF Done:  E(RM062X) =  -764.432960590     A.U. after   16 cycles
 SCF Done:  E(RM062X) =  -764.450485597     A.U. after   17 cycles
 SCF Done:  E(RM062X) =  -764.463553566     A.U. after   16 cycles
 SCF Done:  E(RM062X) =  -764.467999004     A.U. after   15 cycles
 SCF Done:  E(RM062X) =  -764.469474548     A.U. after   13 cycles
 SCF Done:  E(RM062X) =  -764.469626402     A.U. after   12 cycles
 SCF Done:  E(RM062X) =  -764.469624885     A.U. after   10 cycles

 Isotropic polarizability for W=    0.000000       52.02 Bohr**3.
 End of Minotr F.D. properties file   721 does not exist.

 Optimization completed.
    -- Stationary point found.

                          Input orientation:
 ---------------------------------------------------------------------
 Center     Atomic      Atomic             Coordinates (Angstroms)
 Number     Number       Type             X           Y           Z
 ---------------------------------------------------------------------
      1          6           0        1.788930   -0.046715   -0.179370
      2          8           0        2.684554   -0.803349   -0.415635
      3          6           0        0.483273   -0.516229    0.387453
      4          6           0       -0.881509    0.562804    1.437999
      5          9           0       -1.853280    1.456747    1.308714
      6          9           0       -1.442566   -0.516262    1.898290
      7          9           0        0.018846    1.127536    2.187927
      8          9           0       -0.610161    0.546218   -0.180710
      9          9           0        0.091115   -1.633380   -0.179846
     10          8           0        1.873981    1.286516   -0.242761
     11          1           0        2.776313    1.507513   -0.509956
 ---------------------------------------------------------------------

 ******    1 imaginary frequencies (negative Signs) ******

                      1                      2                      3
                      A                      A                      A
 Frequencies --   -656.5072                60.6632                65.4153
 Red. masses --     14.8465                14.8538                14.9771
 Frc consts  --      3.7701                 0.0322                 0.0378
 IR Inten    --     86.8739                 0.6576                 1.5621

                      4                      5                      6
                      A                      A                      A
 Frequencies --     83.5784               201.2015               225.1318
 Red. masses --     11.5972                16.2567                12.2078
 Frc consts  --      0.0477                 0.3877                 0.3646
 IR Inten    --      0.7383                47.7787                 0.7586

                      7                      8                      9
                      A                      A                      A
 Frequencies --    307.2449               353.7279               375.5750
 Red. masses --     11.2625                16.4136                15.1383
 Frc consts  --      0.6264                 1.2100                 1.2581
 IR Inten    --     39.5346                 4.2514                 8.2567

                     10                     11                     12
                      A                      A                      A
 Frequencies --    428.9252               449.9896               552.3014
 Red. masses --     10.0631                 8.5184                 2.4651
 Frc consts  --      1.0908                 1.0163                 0.4430
 IR Inten    --      3.2243               155.9580                65.9104

                     13                     14                     15
                      A                      A                      A
 Frequencies --    560.6698               607.8180               619.8270
 Red. masses --      7.4737                 7.6107                 2.8121
 Frc consts  --      1.3842                 1.6566                 0.6365
 IR Inten    --    155.6283                18.7479                91.8865

                     16                     17                     18
                      A                      A                      A
 Frequencies --    673.4229               754.3708               782.5659
 Red. masses --      7.3767                13.5108                 7.0485
 Frc consts  --      1.9710                 4.5300                 2.5432
 IR Inten    --    166.2304               197.1382                34.0176

                     19                     20                     21
                      A                      A                      A
 Frequencies --    930.4782               969.4317              1177.7003
 Red. masses --     10.2662                11.3329                 2.9697
 Frc consts  --      5.2369                 6.2752                 2.4268
 IR Inten    --    288.6824               226.1644               235.6715

                     22                     23                     24
                      A                      A                      A
 Frequencies --   1214.9207              1298.5299              1389.0342
 Red. masses --      8.3550                 3.9092                12.9444
 Frc consts  --      7.2659                 3.8837                14.7150
 IR Inten    --    534.5018                44.9830               367.6511

                     25                     26                     27
                      A                      A                      A
 Frequencies --   1426.2427              1866.6818              3815.9084
 Red. masses --      4.4629                11.1696                 1.0646
 Frc consts  --      5.3488                22.9313                 9.1333
 IR Inten    --     74.7395               410.7500               122.2410

 - Thermochemistry -
 -------------------
 Temperature   298.150 Kelvin.  Pressure   1.00000 Atm.
 Atom     1 has atomic number  6 and mass  12.00000

 Molecular mass:   163.98967 amu.
 Principal axes and moments of inertia in atomic units:
                           1         2         3
     Eigenvalues --   784.636081818.394702141.24511
           X            0.83257   0.35315   0.42675
           Y           -0.25499   0.92828  -0.27071
           Z           -0.49174   0.11657   0.86290
 This molecule is an asymmetric top.
 Rotational symmetry number  1.
 Warning -- assumption of classical behavior for rotation
           may cause significant error
 Rotational temperatures (Kelvin)      0.11039     0.04763     0.04045
 Rotational constants (GHZ):           2.30010     0.99249     0.84285
    1 imaginary frequencies ignored.
 Zero-point vibrational energy     126752.5 (Joules/Mol)
                                   30.29457 (Kcal/Mol)
 Warning -- explicit consideration of  14 degrees of freedom as
           vibrations may cause significant error
 Vibrational temperatures:     87.28    94.12   120.25   289.48   323.91
          (Kelvin)            442.06   508.94   540.37   617.13   647.43
                              794.64   806.68   874.51   891.79   968.91
                             1085.37  1125.94  1338.75  1394.80  1694.45
                             1748.00  1868.29  1998.51  2052.05  2685.74
                             5490.24

 Zero-point correction=                           0.048277 (Hartree/Particle)
 Thermal correction to Energy=                    0.057348
 Thermal correction to Enthalpy=                  0.058293
 Thermal correction to Gibbs Free Energy=         0.012867
 Sum of electronic and zero-point Energies=           -764.421347
 Sum of electronic and thermal Energies=              -764.412276
 Sum of electronic and thermal Enthalpies=            -764.411332
 Sum of electronic and thermal Free Energies=         -764.456758

                     E (Thermal)             CV                S
                      KCal/Mol        Cal/Mol-Kelvin    Cal/Mol-Kelvin
 Total                   35.987             31.233             95.607
 Electronic               0.000              0.000              0.000
 Translational            0.889              2.981             41.192
 Rotational               0.889              2.981             29.503
 Vibrational             34.209             25.271             24.911
 Vibration     1          0.597              1.973              4.435
 Vibration     2          0.597              1.971              4.287
 Vibration     3          0.600              1.960              3.805
 Vibration     4          0.638              1.838              2.122
 Vibration     5          0.650              1.803              1.917
 Vibration     6          0.697              1.660              1.377
 Vibration     7          0.730              1.568              1.150
 Vibration     8          0.746              1.522              1.057
 Vibration     9          0.790              1.407              0.862
 Vibration    10          0.809              1.361              0.796
 Vibration    11          0.908              1.135              0.539
 Vibration    12          0.916              1.116              0.522
 Vibration    13          0.967              1.015              0.436
 Vibration    14          0.980              0.990              0.417

 Normal termination of Gaussian 16 at Sat May 24 02:41:15 2025.
