 Gaussian 16, Revision C.01,
 Gaussian 16:  ES64L-G16RevC.01  3-Jul-2019

 ----------------------------------------------------------------------
 #P M062X/Def2TZVPP Symm(None) scf(xqc) pop(None) geom(AllCheck,NoKeepC
 onstants) guess(Read) irc(RCFC,reverse,MaxPoints=100,StepSize=2)
 ----------------------------------------------------------------------

 Structure from the checkpoint file:  "1642764945472630600001_intra_H_migration_2_11_IRC_R.chk"
 ------------------------------
 Gaussian input prepared by ASE
 ------------------------------
 Charge =  0 Multiplicity = 1

 SCF Done:  E(RM062X) =  -764.605156806     A.U. after    9 cycles
 SCF Done:  E(RM062X) =  -764.605255700     A.U. after   10 cycles
 SCF Done:  E(RM062X) =  -764.605419899     A.U. after   10 cycles
 SCF Done:  E(RM062X) =  -764.605648551     A.U. after   10 cycles
 SCF Done:  E(RM062X) =  -764.605940507     A.U. after   10 cycles
 SCF Done:  E(RM062X) =  -764.606294288     A.U. after   10 cycles
 SCF Done:  E(RM062X) =  -764.606708090     A.U. after   10 cycles
 SCF Done:  E(RM062X) =  -764.607179844     A.U. after   10 cycles
 SCF Done:  E(RM062X) =  -764.607707338     A.U. after   10 cycles
 SCF Done:  E(RM062X) =  -764.608288340     A.U. after   10 cycles
 SCF Done:  E(RM062X) =  -764.664460852     A.U. after    8 cycles
 SCF Done:  E(RM062X) =  -764.664650850     A.U. after    8 cycles
 SCF Done:  E(RM062X) =  -764.664833344     A.U. after    8 cycles
 SCF Done:  E(RM062X) =  -764.665008481     A.U. after    8 cycles
 SCF Done:  E(RM062X) =  -764.665176407     A.U. after    8 cycles
 SCF Done:  E(RM062X) =  -764.665337271     A.U. after    8 cycles
 SCF Done:  E(RM062X) =  -764.665491226     A.U. after    8 cycles
 SCF Done:  E(RM062X) =  -764.665638425     A.U. after    8 cycles
 SCF Done:  E(RM062X) =  -764.665779030     A.U. after    8 cycles
 SCF Done:  E(RM062X) =  -764.665913204     A.U. after    8 cycles

                          Input orientation:
 ---------------------------------------------------------------------
 Center     Atomic      Atomic             Coordinates (Angstroms)
 Number     Number       Type             X           Y           Z
 ---------------------------------------------------------------------
      1          6           0       -0.511930    1.181227   -0.850430
      2          8           0       -1.414434    1.072899   -1.615739
      3          6           0       -0.379012    0.273013    0.413679
      4          6           0        0.562310   -0.931024    0.176692
      5          9           0        0.553133   -1.732967    1.229776
      6          9           0        0.157523   -1.610018   -0.888320
      7          9           0        1.801242   -0.505334   -0.030140
      8          9           0        0.078955    0.952259    1.474301
      9          9           0       -1.589574   -0.212684    0.703153
     10          8           0        0.456938    2.067829   -1.028577
     11          1           0        0.234149    2.527135   -1.851831
 ---------------------------------------------------------------------

 Normal termination of Gaussian 16 at Sat May 24 05:26:32 2025.
