 Gaussian 16, Revision C.01,
 Gaussian 16:  ES64L-G16RevC.01  3-Jul-2019

 -----------------------------------------------------------------
 #P M062X/Def2TZVPP Symm(None) scf(xqc) pop(None) freq opt(CalcFC)
 -----------------------------------------------------------------

 ------------------------------
 Gaussian input prepared by ASE
 ------------------------------
 Symbolic Z-matrix:
 Charge =  0 Multiplicity = 1

 SCF Done:  E(RM062X) =  -764.665688638     A.U. after   13 cycles
 SCF Done:  E(RM062X) =  -764.667973852     A.U. after   12 cycles
 SCF Done:  E(RM062X) =  -764.668175941     A.U. after   14 cycles
 SCF Done:  E(RM062X) =  -764.668238873     A.U. after   12 cycles
 SCF Done:  E(RM062X) =  -764.668262358     A.U. after   13 cycles
 SCF Done:  E(RM062X) =  -764.668264031     A.U. after   11 cycles
 SCF Done:  E(RM062X) =  -764.668264253     A.U. after    9 cycles
 SCF Done:  E(RM062X) =  -764.668264273     A.U. after    7 cycles
 Optimization completed.
    -- Stationary point found.
 Normal termination of Gaussian 16 at Sat May 24 03:37:41 2025.

 ---------------------------------------------------------------------
 #P Geom=AllCheck Guess=TCheck SCRF=Check GenChk RM062X/def2TZVPP Freq
 ---------------------------------------------------------------------

 Structure from the checkpoint file:  "1642764945472630600001_intra_H_migration_1_11_IRC_R_prod.chk"
 ------------------------------
 Gaussian input prepared by ASE
 ------------------------------
 Charge =  0 Multiplicity = 1

                          Input orientation:
 ---------------------------------------------------------------------
 Center     Atomic      Atomic             Coordinates (Angstroms)
 Number     Number       Type             X           Y           Z
 ---------------------------------------------------------------------
      1          6           0        1.419844   -0.096960   -0.642056
      2          8           0        2.135521   -1.044974   -0.634118
      3          6           0       -0.119623   -0.209991   -0.598288
      4          6           0       -0.701531    0.148047    0.786621
      5          9           0       -2.002355   -0.093491    0.804720
      6          9           0       -0.110708   -0.589779    1.720061
      7          9           0       -0.498905    1.428244    1.062047
      8          9           0       -0.673023    0.608126   -1.506082
      9          9           0       -0.467172   -1.466992   -0.873711
     10          8           0        1.794198    1.177782   -0.676344
     11          1           0        2.760973    1.211202   -0.687740
 ---------------------------------------------------------------------

 SCF Done:  E(RM062X) =  -764.668264273     A.U. after    1 cycles

 Isotropic polarizability for W=    0.000000       43.86 Bohr**3.
 End of Minotr F.D. properties file   721 does not exist.

                      1                      2                      3
                      A                      A                      A
 Frequencies --     17.1320                65.8535               144.3063
 Red. masses --     12.9337                16.4390                10.2709
 Frc consts  --      0.0022                 0.0420                 0.1260
 IR Inten    --      1.4692                 0.3979                 0.9804

                      4                      5                      6
                      A                      A                      A
 Frequencies --    216.0021               248.6942               288.0458
 Red. masses --     17.3890                12.2014                14.7778
 Frc consts  --      0.4780                 0.4446                 0.7224
 IR Inten    --      1.5394                 1.1770                 1.4391

                      7                      8                      9
                      A                      A                      A
 Frequencies --    359.9333               380.0988               384.3410
 Red. masses --     16.5186                15.5776                13.6411
 Frc consts  --      1.2609                 1.3260                 1.1872
 IR Inten    --      0.3824                 0.8209                 0.6242

                     10                     11                     12
                      A                      A                      A
 Frequencies --    504.8488               548.7836               553.9206
 Red. masses --      8.2405                 6.0020                 2.8255
 Frc consts  --      1.2374                 1.0650                 0.5108
 IR Inten    --      5.9425                16.2576                17.5667

                     13                     14                     15
                      A                      A                      A
 Frequencies --    617.1888               637.7217               692.8897
 Red. masses --      7.4105                 2.9537                 4.5173
 Frc consts  --      1.6632                 0.7077                 1.2778
 IR Inten    --     14.6083                79.3308               102.6631

                     16                     17                     18
                      A                      A                      A
 Frequencies --    789.5456               798.0030              1062.5020
 Red. masses --     12.1542                 8.6665                11.7584
 Frc consts  --      4.4641                 3.2517                 7.8209
 IR Inten    --      2.5769                21.3325               124.2754

                     19                     20                     21
                      A                      A                      A
 Frequencies --   1188.4324              1229.9542              1277.5396
 Red. masses --      3.1048                 4.2251                10.1148
 Frc consts  --      2.5836                 3.7659                 9.7264
 IR Inten    --    246.5441               185.7494                41.4832

                     22                     23                     24
                      A                      A                      A
 Frequencies --   1290.5059              1297.1825              1383.0632
 Red. masses --     13.3093                 7.6086                 7.8608
 Frc consts  --     13.0595                 7.5432                 8.8594
 IR Inten    --    359.2522               149.5156               127.0997

                     25                     26                     27
                      A                      A                      A
 Frequencies --   1436.1007              1920.5810              3808.5978
 Red. masses --      5.1091                11.7336                 1.0646
 Frc consts  --      6.2082                25.5004                 9.0987
 IR Inten    --     54.5016               330.9245               129.5801

 - Thermochemistry -
 -------------------
 Temperature   298.150 Kelvin.  Pressure   1.00000 Atm.
 Atom     1 has atomic number  6 and mass  12.00000

 Molecular mass:   163.98967 amu.
 Principal axes and moments of inertia in atomic units:
                           1         2         3
     Eigenvalues --   948.651251521.767671600.99596
           X            0.84740   0.38855   0.36186
           Y           -0.07207   0.75939  -0.64663
           Z           -0.52604   0.52188   0.67151
 This molecule is an asymmetric top.
 Rotational symmetry number  1.
 Warning -- assumption of classical behavior for rotation
           may cause significant error
 Rotational temperatures (Kelvin)      0.09130     0.05692     0.05410
 Rotational constants (GHZ):           1.90243     1.18595     1.12726
 Zero-point vibrational energy     138418.5 (Joules/Mol)
                                   33.08282 (Kcal/Mol)
 Warning -- explicit consideration of  13 degrees of freedom as
           vibrations may cause significant error
 Vibrational temperatures:     24.65    94.75   207.62   310.78   357.82
          (Kelvin)            414.43   517.86   546.88   552.98   726.36
                              789.58   796.97   888.00   917.54   996.91
                             1135.98  1148.15  1528.70  1709.89  1769.63
                             1838.09  1856.75  1866.36  1989.92  2066.23
                             2763.29  5479.72

 Zero-point correction=                           0.052721 (Hartree/Particle)
 Thermal correction to Energy=                    0.061656
 Thermal correction to Enthalpy=                  0.062600
 Thermal correction to Gibbs Free Energy=         0.016828
 Sum of electronic and zero-point Energies=           -764.615543
 Sum of electronic and thermal Energies=              -764.606609
 Sum of electronic and thermal Enthalpies=            -764.605664
 Sum of electronic and thermal Free Energies=         -764.651436

                     E (Thermal)             CV                S
                      KCal/Mol        Cal/Mol-Kelvin    Cal/Mol-Kelvin
 Total                   38.690             30.697             96.334
 Electronic               0.000              0.000              0.000
 Translational            0.889              2.981             41.192
 Rotational               0.889              2.981             29.226
 Vibrational             36.912             24.736             25.916
 Vibration     1          0.593              1.986              6.942
 Vibration     2          0.597              1.971              4.274
 Vibration     3          0.616              1.909              2.746
 Vibration     4          0.645              1.817              1.992
 Vibration     5          0.662              1.765              1.740
 Vibration     6          0.685              1.696              1.485
 Vibration     7          0.734              1.555              1.122
 Vibration     8          0.750              1.513              1.039
 Vibration     9          0.753              1.504              1.022
 Vibration    10          0.860              1.239              0.646
 Vibration    11          0.904              1.142              0.547
 Vibration    12          0.909              1.131              0.536
 Vibration    13          0.977              0.996              0.421

 Optimization completed.
    -- Stationary point found.
 Normal termination of Gaussian 16 at Sat May 24 03:41:16 2025.
