 Gaussian 16, Revision C.01,
 Gaussian 16:  ES64L-G16RevC.01  3-Jul-2019

 -----------------------------------------------------------------
 #P M062X/Def2TZVPP Symm(None) scf(xqc) pop(None) freq opt(CalcFC)
 -----------------------------------------------------------------

 ------------------------------
 Gaussian input prepared by ASE
 ------------------------------
 Symbolic Z-matrix:
 Charge =  0 Multiplicity = 1

 SCF Done:  E(RM062X) =  -764.665911460     A.U. after   13 cycles
 SCF Done:  E(RM062X) =  -764.668242055     A.U. after   11 cycles
 SCF Done:  E(RM062X) =  -764.668246156     A.U. after   13 cycles
 SCF Done:  E(RM062X) =  -764.668255606     A.U. after   13 cycles
 SCF Done:  E(RM062X) =  -764.668265404     A.U. after   11 cycles
 SCF Done:  E(RM062X) =  -764.668264988     A.U. after    9 cycles
 SCF Done:  E(RM062X) =  -764.668265245     A.U. after    8 cycles
 SCF Done:  E(RM062X) =  -764.668265626     A.U. after   11 cycles
 SCF Done:  E(RM062X) =  -764.668265637     A.U. after    7 cycles
 Optimization completed.
    -- Stationary point found.
 Normal termination of Gaussian 16 at Sat May 24 03:36:22 2025.

 ---------------------------------------------------------------------
 #P Geom=AllCheck Guess=TCheck SCRF=Check GenChk RM062X/def2TZVPP Freq
 ---------------------------------------------------------------------

 Structure from the checkpoint file:  "1642764945472630600001_intra_H_migration_1_11_IRC_F_prod.chk"
 ------------------------------
 Gaussian input prepared by ASE
 ------------------------------
 Charge =  0 Multiplicity = 1

                          Input orientation:
 ---------------------------------------------------------------------
 Center     Atomic      Atomic             Coordinates (Angstroms)
 Number     Number       Type             X           Y           Z
 ---------------------------------------------------------------------
      1          6           0        1.389418    0.191690   -0.665983
      2          8           0        2.094478   -0.775643   -0.088414
      3          6           0       -0.120518   -0.125602   -0.601885
      4          6           0       -0.707199    0.057300    0.814987
      5          9           0       -2.022517   -0.082523    0.779184
      6          9           0       -0.203359   -0.839089    1.650297
      7          9           0       -0.412669    1.273310    1.262347
      8          9           0       -0.769148    0.701587   -1.421228
      9          9           0       -0.346119   -1.391215   -0.985797
     10          8           0        1.819625    1.180326   -1.164362
     11          1           0        3.031448   -0.539304   -0.134721
 ---------------------------------------------------------------------

 SCF Done:  E(RM062X) =  -764.668265637     A.U. after    1 cycles

 Isotropic polarizability for W=    0.000000       43.86 Bohr**3.
 End of Minotr F.D. properties file   721 does not exist.

                      1                      2                      3
                      A                      A                      A
 Frequencies --     20.2392                65.4954               145.0201
 Red. masses --     12.9490                16.5084                10.2461
 Frc consts  --      0.0031                 0.0417                 0.1270
 IR Inten    --      1.4291                 0.4101                 1.0207

                      4                      5                      6
                      A                      A                      A
 Frequencies --    216.3630               248.7961               288.2534
 Red. masses --     17.3109                12.1775                14.7189
 Frc consts  --      0.4775                 0.4441                 0.7206
 IR Inten    --      1.5537                 1.1940                 1.3986

                      7                      8                      9
                      A                      A                      A
 Frequencies --    360.1450               379.8743               384.6696
 Red. masses --     16.5939                15.5506                13.6641
 Frc consts  --      1.2681                 1.3221                 1.1913
 IR Inten    --      0.3468                 0.8587                 0.6058

                     10                     11                     12
                      A                      A                      A
 Frequencies --    503.2716               549.1344               553.5826
 Red. masses --      8.0408                 6.9806                 2.5967
 Frc consts  --      1.1999                 1.2402                 0.4689
 IR Inten    --      5.6825                15.7325                20.1413

                     13                     14                     15
                      A                      A                      A
 Frequencies --    616.7075               637.7166               693.4631
 Red. masses --      6.8755                 3.1300                 4.5809
 Frc consts  --      1.5407                 0.7500                 1.2979
 IR Inten    --     16.7303                76.1072               101.3223

                     16                     17                     18
                      A                      A                      A
 Frequencies --    789.6362               798.3660              1062.7605
 Red. masses --     12.2533                 8.6402                11.7231
 Frc consts  --      4.5015                 3.2447                 7.8012
 IR Inten    --      2.5183                21.5651               124.3020

                     19                     20                     21
                      A                      A                      A
 Frequencies --   1188.8366              1230.0425              1277.0154
 Red. masses --      3.1522                 4.1746                10.3479
 Frc consts  --      2.6249                 3.7214                 9.9425
 IR Inten    --    248.0960               186.9048                45.1903

                     22                     23                     24
                      A                      A                      A
 Frequencies --   1290.7173              1297.1096              1383.2886
 Red. masses --     13.2947                 7.3968                 7.7768
 Frc consts  --     13.0494                 7.3325                 8.7675
 IR Inten    --    360.4273               143.9803               125.8835

                     25                     26                     27
                      A                      A                      A
 Frequencies --   1436.4336              1921.1167              3807.5763
 Red. masses --      5.1206                11.7293                 1.0646
 Frc consts  --      6.2251                25.5053                 9.0938
 IR Inten    --     54.1091               331.2903               129.8844

 - Thermochemistry -
 -------------------
 Temperature   298.150 Kelvin.  Pressure   1.00000 Atm.
 Atom     1 has atomic number  6 and mass  12.00000

 Molecular mass:   163.98967 amu.
 Principal axes and moments of inertia in atomic units:
                           1         2         3
     Eigenvalues --   948.037711519.580361604.21440
           X            0.83899   0.53343   0.10746
           Y            0.05491  -0.27947   0.95858
           Z           -0.54137   0.79834   0.26376
 This molecule is an asymmetric top.
 Rotational symmetry number  1.
 Warning -- assumption of classical behavior for rotation
           may cause significant error
 Rotational temperatures (Kelvin)      0.09136     0.05700     0.05399
 Rotational constants (GHZ):           1.90366     1.18766     1.12500
 Zero-point vibrational energy     138441.6 (Joules/Mol)
                                   33.08834 (Kcal/Mol)
 Warning -- explicit consideration of  13 degrees of freedom as
           vibrations may cause significant error
 Vibrational temperatures:     29.12    94.23   208.65   311.30   357.96
          (Kelvin)            414.73   518.17   546.55   553.45   724.10
                              790.08   796.48   887.30   917.53   997.74
                             1136.11  1148.67  1529.08  1710.47  1769.76
                             1837.34  1857.05  1866.25  1990.24  2066.71
                             2764.06  5478.25

 Zero-point correction=                           0.052730 (Hartree/Particle)
 Thermal correction to Energy=                    0.061657
 Thermal correction to Enthalpy=                  0.062601
 Thermal correction to Gibbs Free Energy=         0.016988
 Sum of electronic and zero-point Energies=           -764.615536
 Sum of electronic and thermal Energies=              -764.606609
 Sum of electronic and thermal Enthalpies=            -764.605665
 Sum of electronic and thermal Free Energies=         -764.651278

                     E (Thermal)             CV                S
                      KCal/Mol        Cal/Mol-Kelvin    Cal/Mol-Kelvin
 Total                   38.690             30.697             96.002
 Electronic               0.000              0.000              0.000
 Translational            0.889              2.981             41.192
 Rotational               0.889              2.981             29.226
 Vibrational             36.913             24.735             25.583
 Vibration     1          0.593              1.986              6.611
 Vibration     2          0.597              1.971              4.284
 Vibration     3          0.616              1.908              2.737
 Vibration     4          0.645              1.816              1.989
 Vibration     5          0.662              1.765              1.739
 Vibration     6          0.685              1.696              1.484
 Vibration     7          0.735              1.554              1.121
 Vibration     8          0.750              1.513              1.040
 Vibration     9          0.754              1.503              1.021
 Vibration    10          0.859              1.243              0.650
 Vibration    11          0.904              1.142              0.546
 Vibration    12          0.909              1.132              0.537
 Vibration    13          0.976              0.997              0.422

 Optimization completed.
    -- Stationary point found.
 Normal termination of Gaussian 16 at Sat May 24 03:40:00 2025.
