 Gaussian 16, Revision C.01,
 Gaussian 16:  ES64L-G16RevC.01  3-Jul-2019

 ----------------------------------------------------------------------
 #P M062X/Def2TZVPP Symm(None) scf(xqc) pop(None) geom(AllCheck,NoKeepC
 onstants) guess(Read) irc(RCFC,reverse,MaxPoints=100,StepSize=2)
 ----------------------------------------------------------------------

 Structure from the checkpoint file:  "1642764945472630600001_r13_insertion_ROR_8_3_1_10_IRC_R.chk"
 ------------------------------
 Gaussian input prepared by ASE
 ------------------------------
 Charge =  0 Multiplicity = 1

 SCF Done:  E(RM062X) =  -764.583566577     A.U. after    9 cycles
 SCF Done:  E(RM062X) =  -764.583646187     A.U. after   10 cycles
 SCF Done:  E(RM062X) =  -764.583778340     A.U. after   10 cycles
 SCF Done:  E(RM062X) =  -764.583962342     A.U. after   10 cycles
 SCF Done:  E(RM062X) =  -764.584197171     A.U. after   10 cycles
 SCF Done:  E(RM062X) =  -764.584481351     A.U. after   10 cycles
 SCF Done:  E(RM062X) =  -764.584812925     A.U. after   10 cycles
 SCF Done:  E(RM062X) =  -764.585189585     A.U. after   10 cycles
 SCF Done:  E(RM062X) =  -764.585608921     A.U. after   10 cycles
 SCF Done:  E(RM062X) =  -764.586068654     A.U. after   10 cycles
 SCF Done:  E(RM062X) =  -764.642898661     A.U. after    9 cycles
 SCF Done:  E(RM062X) =  -764.643387198     A.U. after    9 cycles
 SCF Done:  E(RM062X) =  -764.643867387     A.U. after    9 cycles
 SCF Done:  E(RM062X) =  -764.644339125     A.U. after    9 cycles
 SCF Done:  E(RM062X) =  -764.644802312     A.U. after    9 cycles
 SCF Done:  E(RM062X) =  -764.645256850     A.U. after    9 cycles
 SCF Done:  E(RM062X) =  -764.645702645     A.U. after    9 cycles
 SCF Done:  E(RM062X) =  -764.646139606     A.U. after    9 cycles
 SCF Done:  E(RM062X) =  -764.646567644     A.U. after    9 cycles
 SCF Done:  E(RM062X) =  -764.646986677     A.U. after    9 cycles

                          Input orientation:
 ---------------------------------------------------------------------
 Center     Atomic      Atomic             Coordinates (Angstroms)
 Number     Number       Type             X           Y           Z
 ---------------------------------------------------------------------
      1          6           0        2.359846    1.357910   -1.363672
      2          8           0        2.852859    2.344334   -1.561118
      3          6           0       -0.777173    0.104473   -0.267116
      4          6           0       -0.190430   -0.836604    0.831146
      5          9           0       -0.704715   -2.042729    0.644819
      6          9           0        1.135530   -0.938324    0.817796
      7          9           0       -0.566008   -0.372824    2.010741
      8          9           0       -2.213141    0.110462   -0.072807
      9          9           0       -0.439007   -0.406682   -1.451208
     10          8           0       -0.501511    1.406585   -0.155775
     11          1           0       -1.350915    1.826749    0.022724
 ---------------------------------------------------------------------

 Normal termination of Gaussian 16 at Sat May 24 08:53:41 2025.
