 Gaussian 16, Revision C.01,
 Gaussian 16:  ES64L-G16RevC.01  3-Jul-2019

 ----------------------------------------------------------------------
 #P M062X/Def2TZVPP Symm(None) scf(xqc) pop(None) geom(AllCheck,NoKeepC
 onstants) guess(Read) irc(RCFC,forward,MaxPoints=100,StepSize=2)
 ----------------------------------------------------------------------

 Structure from the checkpoint file:  "1642764945472630600001_r12_insertion_R_10_1_3_IRC_F.chk"
 ------------------------------
 Gaussian input prepared by ASE
 ------------------------------
 Charge =  0 Multiplicity = 1

 SCF Done:  E(RM062X) =  -764.495126497     A.U. after   10 cycles
 SCF Done:  E(RM062X) =  -764.495209905     A.U. after   11 cycles
 SCF Done:  E(RM062X) =  -764.495347783     A.U. after   11 cycles
 SCF Done:  E(RM062X) =  -764.495539111     A.U. after   11 cycles
 SCF Done:  E(RM062X) =  -764.495782805     A.U. after   11 cycles
 SCF Done:  E(RM062X) =  -764.496077711     A.U. after   11 cycles
 SCF Done:  E(RM062X) =  -764.496422614     A.U. after   11 cycles
 SCF Done:  E(RM062X) =  -764.496816234     A.U. after   11 cycles
 SCF Done:  E(RM062X) =  -764.497257234     A.U. after   11 cycles
 SCF Done:  E(RM062X) =  -764.497744218     A.U. after   11 cycles
 SCF Done:  E(RM062X) =  -764.591009244     A.U. after    9 cycles
 SCF Done:  E(RM062X) =  -764.592149836     A.U. after    9 cycles
 SCF Done:  E(RM062X) =  -764.593280677     A.U. after    9 cycles
 SCF Done:  E(RM062X) =  -764.594401655     A.U. after    9 cycles
 SCF Done:  E(RM062X) =  -764.595512687     A.U. after    9 cycles
 SCF Done:  E(RM062X) =  -764.596613707     A.U. after    9 cycles
 SCF Done:  E(RM062X) =  -764.597704660     A.U. after    9 cycles
 SCF Done:  E(RM062X) =  -764.598785493     A.U. after    9 cycles
 SCF Done:  E(RM062X) =  -764.599856153     A.U. after    9 cycles
 SCF Done:  E(RM062X) =  -764.600916583     A.U. after    9 cycles

                          Input orientation:
 ---------------------------------------------------------------------
 Center     Atomic      Atomic             Coordinates (Angstroms)
 Number     Number       Type             X           Y           Z
 ---------------------------------------------------------------------
      1          6           0        1.496310   -1.519058   -0.256207
      2          8           0        2.512134   -1.706888   -0.678543
      3          6           0       -0.064882    0.275777   -0.606394
      4          6           0       -0.694467    0.306034    0.802761
      5          9           0       -1.954786   -0.083396    0.766392
      6          9           0       -0.057240   -0.437503    1.698159
      7          9           0       -0.624576    1.574761    1.176838
      8          9           0       -0.511264    1.196808   -1.451181
      9          9           0       -0.573630   -0.866852   -1.204263
     10          8           0        1.263543    0.679301   -0.383539
     11          1           0        1.455925    1.381970   -1.017434
 ---------------------------------------------------------------------

 Normal termination of Gaussian 16 at Sat May 24 04:25:06 2025.
