 Gaussian 16, Revision C.01,
 Gaussian 16:  ES64L-G16RevC.01  3-Jul-2019

 ----------------------------------------------------------------------
 #P M062X/Def2TZVPP Symm(None) scf(xqc) pop(None) geom(AllCheck,NoKeepC
 onstants) guess(Read) irc(RCFC,reverse,MaxPoints=100,StepSize=2)
 ----------------------------------------------------------------------

 Structure from the checkpoint file:  "1642764945472630600001_r12_insertion_R_8_3_1_IRC_R.chk"
 ------------------------------
 Gaussian input prepared by ASE
 ------------------------------
 Charge =  0 Multiplicity = 1

 SCF Done:  E(RM062X) =  -764.524451086     A.U. after    9 cycles
 SCF Done:  E(RM062X) =  -764.524510722     A.U. after   11 cycles
 SCF Done:  E(RM062X) =  -764.524607408     A.U. after   11 cycles
 SCF Done:  E(RM062X) =  -764.524738823     A.U. after   10 cycles
 SCF Done:  E(RM062X) =  -764.524902635     A.U. after   10 cycles
 SCF Done:  E(RM062X) =  -764.525096523     A.U. after   11 cycles
 SCF Done:  E(RM062X) =  -764.525318197     A.U. after   11 cycles
 SCF Done:  E(RM062X) =  -764.525565406     A.U. after   11 cycles
 SCF Done:  E(RM062X) =  -764.525835949     A.U. after   11 cycles
 SCF Done:  E(RM062X) =  -764.526127675     A.U. after   11 cycles
 SCF Done:  E(RM062X) =  -764.544927686     A.U. after   10 cycles
 SCF Done:  E(RM062X) =  -764.544984467     A.U. after    8 cycles
 SCF Done:  E(RM062X) =  -764.545040724     A.U. after   11 cycles
 SCF Done:  E(RM062X) =  -764.545094237     A.U. after   11 cycles
 SCF Done:  E(RM062X) =  -764.545145976     A.U. after   11 cycles
 SCF Done:  E(RM062X) =  -764.545195857     A.U. after   11 cycles
 SCF Done:  E(RM062X) =  -764.545244004     A.U. after   11 cycles
 SCF Done:  E(RM062X) =  -764.545290464     A.U. after   10 cycles
 SCF Done:  E(RM062X) =  -764.545335320     A.U. after   11 cycles
 SCF Done:  E(RM062X) =  -764.545378623     A.U. after   10 cycles

                          Input orientation:
 ---------------------------------------------------------------------
 Center     Atomic      Atomic             Coordinates (Angstroms)
 Number     Number       Type             X           Y           Z
 ---------------------------------------------------------------------
      1          6           0        1.688936    0.061163   -1.386753
      2          8           0        2.032651   -0.842149   -2.045509
      3          6           0       -0.176403   -0.992627    0.413887
      4          6           0       -0.970432    0.188277    1.043897
      5          9           0       -2.055706    0.564642    0.387469
      6          9           0       -1.319232   -0.229123    2.260532
      7          9           0       -0.168488    1.247819    1.175523
      8          9           0        0.414654    0.545583   -1.445172
      9          9           0       -1.036299   -1.666631   -0.253859
     10          8           0        2.392775    0.762904   -0.527685
     11          1           0        1.829608    1.390493   -0.057194
 ---------------------------------------------------------------------

 Normal termination of Gaussian 16 at Sat May 24 03:45:31 2025.
