 Gaussian 16, Revision C.01,
 Gaussian 16:  ES64L-G16RevC.01  3-Jul-2019

 -----------------------------------------------------------------
 #P M062X/Def2TZVPP Symm(None) scf(xqc) pop(None) freq opt(CalcFC)
 -----------------------------------------------------------------

 ------------------------------
 Gaussian input prepared by ASE
 ------------------------------
 Symbolic Z-matrix:
 Charge =  0 Multiplicity = 1

 SCF Done:  E(RM062X) =  -764.640596644     A.U. after   14 cycles
 SCF Done:  E(RM062X) =  -764.661578377     A.U. after   14 cycles
 SCF Done:  E(RM062X) =  -764.666351916     A.U. after   15 cycles
 SCF Done:  E(RM062X) =  -764.667793554     A.U. after   13 cycles
 SCF Done:  E(RM062X) =  -764.668028847     A.U. after   11 cycles
 SCF Done:  E(RM062X) =  -764.668075102     A.U. after   11 cycles
 SCF Done:  E(RM062X) =  -764.668121291     A.U. after   10 cycles
 SCF Done:  E(RM062X) =  -764.668152800     A.U. after   10 cycles
 SCF Done:  E(RM062X) =  -764.668169268     A.U. after   10 cycles
 SCF Done:  E(RM062X) =  -764.668185980     A.U. after   10 cycles
 SCF Done:  E(RM062X) =  -764.668194504     A.U. after   10 cycles
 SCF Done:  E(RM062X) =  -764.668202278     A.U. after   10 cycles
 SCF Done:  E(RM062X) =  -764.668218657     A.U. after   12 cycles
 SCF Done:  E(RM062X) =  -764.668226121     A.U. after   12 cycles
 SCF Done:  E(RM062X) =  -764.668242409     A.U. after   12 cycles
 SCF Done:  E(RM062X) =  -764.668259173     A.U. after   12 cycles
 SCF Done:  E(RM062X) =  -764.668263806     A.U. after   10 cycles
 SCF Done:  E(RM062X) =  -764.668264488     A.U. after    7 cycles
 SCF Done:  E(RM062X) =  -764.668264527     A.U. after    6 cycles
 Optimization completed.
    -- Stationary point found.
 Normal termination of Gaussian 16 at Sat May 24 04:30:26 2025.

 ---------------------------------------------------------------------
 #P Geom=AllCheck Guess=TCheck SCRF=Check GenChk RM062X/def2TZVPP Freq
 ---------------------------------------------------------------------

 Structure from the checkpoint file:  "1642764945472630600001_r12_insertion_R_4_3_1_IRC_R_prod.chk"
 ------------------------------
 Gaussian input prepared by ASE
 ------------------------------
 Charge =  0 Multiplicity = 1

                          Input orientation:
 ---------------------------------------------------------------------
 Center     Atomic      Atomic             Coordinates (Angstroms)
 Number     Number       Type             X           Y           Z
 ---------------------------------------------------------------------
      1          6           0        1.391446    0.148019   -0.566511
      2          8           0        2.329952   -0.559139   -0.392606
      3          6           0       -0.064937   -0.356554   -0.472096
      4          6           0       -0.756323    0.070881    0.840916
      5          9           0       -0.896025    1.387894    0.887972
      6          9           0       -1.951874   -0.490041    0.923459
      7          9           0       -0.022088   -0.319240    1.876765
      8          9           0       -0.790072    0.116251   -1.496801
      9          9           0       -0.062908   -1.688874   -0.516400
     10          8           0        1.419475    1.446276   -0.849107
     11          1           0        2.343589    1.730113   -0.885672
 ---------------------------------------------------------------------

 SCF Done:  E(RM062X) =  -764.668264527     A.U. after    1 cycles

 Isotropic polarizability for W=    0.000000       43.86 Bohr**3.
 End of Minotr F.D. properties file   721 does not exist.

                      1                      2                      3
                      A                      A                      A
 Frequencies --     17.7457                65.8116               143.9839
 Red. masses --     12.9916                16.3688                10.1845
 Frc consts  --      0.0024                 0.0418                 0.1244
 IR Inten    --      1.4646                 0.4040                 0.9758

                      4                      5                      6
                      A                      A                      A
 Frequencies --    216.2266               248.6292               288.3195
 Red. masses --     17.3933                12.2217                14.7355
 Frc consts  --      0.4791                 0.4451                 0.7217
 IR Inten    --      1.5600                 1.1534                 1.4793

                      7                      8                      9
                      A                      A                      A
 Frequencies --    359.7229               380.3299               383.9623
 Red. masses --     16.4516                15.7535                13.4159
 Frc consts  --      1.2543                 1.3426                 1.1653
 IR Inten    --      0.4054                 0.7465                 0.7023

                     10                     11                     12
                      A                      A                      A
 Frequencies --    505.5489               547.0542               552.3609
 Red. masses --      7.7588                 3.6264                 3.9045
 Frc consts  --      1.1683                 0.6394                 0.7019
 IR Inten    --      6.2659                20.4530                14.8646

                     13                     14                     15
                      A                      A                      A
 Frequencies --    617.1354               635.8731               692.3596
 Red. masses --      7.5178                 3.0989                 4.5240
 Frc consts  --      1.6869                 0.7382                 1.2777
 IR Inten    --     15.5648                78.0152               102.4591

                     16                     17                     18
                      A                      A                      A
 Frequencies --    789.3610               797.8540              1062.2569
 Red. masses --     12.2360                 8.7117                11.7736
 Frc consts  --      4.4920                 3.2674                 7.8274
 IR Inten    --      2.4807                20.9330               123.9908

                     19                     20                     21
                      A                      A                      A
 Frequencies --   1187.3876              1229.4192              1277.4384
 Red. masses --      3.0393                 4.2945                10.0091
 Frc consts  --      2.5247                 3.8244                 9.6234
 IR Inten    --    244.4969               185.3046                37.2631

                     22                     23                     24
                      A                      A                      A
 Frequencies --   1289.8895              1297.5947              1382.6607
 Red. masses --     13.3105                 7.8193                 7.9233
 Frc consts  --     13.0481                 7.7570                 8.9245
 IR Inten    --    359.9703               153.4896               128.7301

                     25                     26                     27
                      A                      A                      A
 Frequencies --   1435.9880              1920.2470              3809.1426
 Red. masses --      5.1257                11.7431                 1.0646
 Frc consts  --      6.2273                25.5121                 9.1013
 IR Inten    --     54.7578               330.3388               129.9203

 - Thermochemistry -
 -------------------
 Temperature   298.150 Kelvin.  Pressure   1.00000 Atm.
 Atom     1 has atomic number  6 and mass  12.00000

 Molecular mass:   163.98967 amu.
 Principal axes and moments of inertia in atomic units:
                           1         2         3
     Eigenvalues --   948.906241523.746841599.12205
           X            0.84972   0.15894   0.50271
           Y            0.06484   0.91474  -0.39882
           Z           -0.52323   0.37148   0.76696
 This molecule is an asymmetric top.
 Rotational symmetry number  1.
 Warning -- assumption of classical behavior for rotation
           may cause significant error
 Rotational temperatures (Kelvin)      0.09128     0.05684     0.05416
 Rotational constants (GHZ):           1.90192     1.18441     1.12858
 Zero-point vibrational energy     138373.9 (Joules/Mol)
                                   33.07215 (Kcal/Mol)
 Warning -- explicit consideration of  13 degrees of freedom as
           vibrations may cause significant error
 Vibrational temperatures:     25.53    94.69   207.16   311.10   357.72
          (Kelvin)            414.83   517.56   547.21   552.44   727.37
                              787.09   794.72   887.92   914.88   996.15
                             1135.71  1147.93  1528.35  1708.39  1768.86
                             1837.95  1855.86  1866.95  1989.34  2066.07
                             2762.81  5480.51

 Zero-point correction=                           0.052704 (Hartree/Particle)
 Thermal correction to Energy=                    0.061641
 Thermal correction to Enthalpy=                  0.062585
 Thermal correction to Gibbs Free Energy=         0.016840
 Sum of electronic and zero-point Energies=           -764.615561
 Sum of electronic and thermal Energies=              -764.606624
 Sum of electronic and thermal Enthalpies=            -764.605680
 Sum of electronic and thermal Free Energies=         -764.651424

                     E (Thermal)             CV                S
                      KCal/Mol        Cal/Mol-Kelvin    Cal/Mol-Kelvin
 Total                   38.680             30.711             96.278
 Electronic               0.000              0.000              0.000
 Translational            0.889              2.981             41.192
 Rotational               0.889              2.981             29.226
 Vibrational             36.903             24.749             25.859
 Vibration     1          0.593              1.986              6.872
 Vibration     2          0.597              1.971              4.275
 Vibration     3          0.616              1.909              2.750
 Vibration     4          0.645              1.816              1.990
 Vibration     5          0.662              1.765              1.740
 Vibration     6          0.685              1.695              1.484
 Vibration     7          0.734              1.555              1.123
 Vibration     8          0.750              1.512              1.038
 Vibration     9          0.753              1.504              1.024
 Vibration    10          0.861              1.238              0.644
 Vibration    11          0.902              1.146              0.550
 Vibration    12          0.908              1.135              0.539
 Vibration    13          0.977              0.996              0.421

                           ! Non-Optimized Parameters !
 Normal termination of Gaussian 16 at Sat May 24 04:33:59 2025.
