 Gaussian 16, Revision C.01,
 Gaussian 16:  ES64L-G16RevC.01  3-Jul-2019

 -----------------------------------------------------------------
 #P M062X/Def2TZVPP Symm(None) scf(xqc) pop(None) freq opt(CalcFC)
 -----------------------------------------------------------------

 ------------------------------
 Gaussian input prepared by ASE
 ------------------------------
 Symbolic Z-matrix:
 Charge =  0 Multiplicity = 1

 SCF Done:  E(RM062X) =  -764.594691515     A.U. after   15 cycles
 SCF Done:  E(RM062X) =  -764.627261265     A.U. after   13 cycles
 SCF Done:  E(RM062X) =  -764.651136907     A.U. after   14 cycles
 SCF Done:  E(RM062X) =  -764.623773164     A.U. after   14 cycles
 SCF Done:  E(RM062X) =  -764.656694366     A.U. after   14 cycles
 SCF Done:  E(RM062X) =  -764.623122621     A.U. after   14 cycles
 SCF Done:  E(RM062X) =  -764.665596795     A.U. after   13 cycles
 SCF Done:  E(RM062X) =  -764.667334079     A.U. after   13 cycles
 SCF Done:  E(RM062X) =  -764.667568999     A.U. after   12 cycles
 SCF Done:  E(RM062X) =  -764.667813276     A.U. after   11 cycles
 SCF Done:  E(RM062X) =  -764.667829607     A.U. after    8 cycles
 SCF Done:  E(RM062X) =  -764.667834775     A.U. after   10 cycles
 SCF Done:  E(RM062X) =  -764.667844683     A.U. after   10 cycles
 SCF Done:  E(RM062X) =  -764.667889313     A.U. after   12 cycles
 SCF Done:  E(RM062X) =  -764.667918127     A.U. after   12 cycles
 SCF Done:  E(RM062X) =  -764.667934852     A.U. after   12 cycles
 SCF Done:  E(RM062X) =  -764.667952233     A.U. after   11 cycles
 SCF Done:  E(RM062X) =  -764.667954087     A.U. after    9 cycles
 SCF Done:  E(RM062X) =  -764.667954794     A.U. after    9 cycles
 Optimization completed.
    -- Stationary point found.
 Normal termination of Gaussian 16 at Sat May 24 07:25:33 2025.

 ---------------------------------------------------------------------
 #P Geom=AllCheck Guess=TCheck SCRF=Check GenChk RM062X/def2TZVPP Freq
 ---------------------------------------------------------------------

 Structure from the checkpoint file:  "1642764945472630600001_r13_insertion_ROR_8_3_1_2_IRC_R_prod.chk"
 ------------------------------
 Gaussian input prepared by ASE
 ------------------------------
 Charge =  0 Multiplicity = 1

                          Input orientation:
 ---------------------------------------------------------------------
 Center     Atomic      Atomic             Coordinates (Angstroms)
 Number     Number       Type             X           Y           Z
 ---------------------------------------------------------------------
      1          6           0        0.860421    1.109436   -0.608175
      2          8           0        1.780775    1.138248    0.145799
      3          6           0       -0.334142    0.146893   -0.467626
      4          6           0       -0.216824   -0.787167    0.753305
      5          9           0        0.865954   -1.542715    0.655921
      6          9           0       -0.167407   -0.082197    1.872771
      7          9           0       -1.283207   -1.576910    0.795504
      8          9           0       -1.465837    0.855531   -0.342163
      9          9           0       -0.425817   -0.615052   -1.567333
     10          8           0        0.693835    1.877169   -1.678730
     11          1           0        1.452288    2.473562   -1.748306
 ---------------------------------------------------------------------

 SCF Done:  E(RM062X) =  -764.667954794     A.U. after    1 cycles

 Isotropic polarizability for W=    0.000000       43.71 Bohr**3.
 End of Minotr F.D. properties file   721 does not exist.

                      1                      2                      3
                      A                      A                      A
 Frequencies --     30.8230                88.8689               155.3931
 Red. masses --     12.2194                17.8430                12.4767
 Frc consts  --      0.0068                 0.0830                 0.1775
 IR Inten    --      1.7283                 0.0001                 0.1488

                      4                      5                      6
                      A                      A                      A
 Frequencies --    214.1652               249.4932               279.5763
 Red. masses --     15.0054                10.4935                14.1426
 Frc consts  --      0.4055                 0.3848                 0.6513
 IR Inten    --      1.5627                 0.1530                 5.7983

                      7                      8                      9
                      A                      A                      A
 Frequencies --    340.3997               363.2255               422.4975
 Red. masses --     13.3281                14.1264                11.1537
 Frc consts  --      0.9099                 1.0981                 1.1730
 IR Inten    --      0.2309                 0.4694                 0.0671

                     10                     11                     12
                      A                      A                      A
 Frequencies --    423.6020               544.4513               566.1774
 Red. masses --     16.6187                15.4453                 1.5209
 Frc consts  --      1.7570                 2.6975                 0.2872
 IR Inten    --      0.7973                11.7426                85.7784

                     13                     14                     15
                      A                      A                      A
 Frequencies --    605.6526               671.6500               696.3516
 Red. masses --      4.3566                 9.0047                 5.5129
 Frc consts  --      0.9415                 2.3934                 1.5750
 IR Inten    --     19.0107                17.5101               115.7699

                     16                     17                     18
                      A                      A                      A
 Frequencies --    793.5965               804.9854              1062.9343
 Red. masses --     11.2157                10.0024                13.5958
 Frc consts  --      4.1617                 3.8188                 9.0504
 IR Inten    --      1.8253                31.7255               272.0439

                     19                     20                     21
                      A                      A                      A
 Frequencies --   1199.7108              1233.4168              1233.9465
 Red. masses --      3.4316                 4.2128                 4.5994
 Frc consts  --      2.9100                 3.7761                 4.1261
 IR Inten    --     43.0760               180.8945               178.6139

                     22                     23                     24
                      A                      A                      A
 Frequencies --   1284.2239              1302.0681              1418.5220
 Red. masses --     12.9219                13.1483                11.6691
 Frc consts  --     12.5562                13.1337                13.8344
 IR Inten    --    168.2594               306.6278                56.5978

                     25                     26                     27
                      A                      A                      A
 Frequencies --   1440.4914              1912.0660              3810.1926
 Red. masses --      4.8523                11.6961                 1.0646
 Frc consts  --      5.9322                25.1939                 9.1063
 IR Inten    --    107.1457               308.5681               132.2488

 - Thermochemistry -
 -------------------
 Temperature   298.150 Kelvin.  Pressure   1.00000 Atm.
 Atom     1 has atomic number  6 and mass  12.00000

 Molecular mass:   163.98967 amu.
 Principal axes and moments of inertia in atomic units:
                           1         2         3
     Eigenvalues --   884.979201502.645831748.05461
           X            0.33251   0.81246  -0.47890
           Y            0.73108   0.09874   0.67511
           Z           -0.59578   0.57459   0.56114
 This molecule is an asymmetric top.
 Rotational symmetry number  1.
 Warning -- assumption of classical behavior for rotation
           may cause significant error
 Rotational temperatures (Kelvin)      0.09787     0.05764     0.04955
 Rotational constants (GHZ):           2.03930     1.20104     1.03243
 Zero-point vibrational energy     138458.7 (Joules/Mol)
                                   33.09242 (Kcal/Mol)
 Warning -- explicit consideration of  13 degrees of freedom as
           vibrations may cause significant error
 Vibrational temperatures:     44.35   127.86   223.58   308.14   358.97
          (Kelvin)            402.25   489.76   522.60   607.88   609.47
                              783.34   814.60   871.40   966.35  1001.89
                             1141.81  1158.19  1529.33  1726.12  1774.61
                             1775.37  1847.71  1873.39  2040.94  2072.55
                             2751.04  5482.02

 Zero-point correction=                           0.052736 (Hartree/Particle)
 Thermal correction to Energy=                    0.061639
 Thermal correction to Enthalpy=                  0.062583
 Thermal correction to Gibbs Free Energy=         0.017587
 Sum of electronic and zero-point Energies=           -764.615219
 Sum of electronic and thermal Energies=              -764.606316
 Sum of electronic and thermal Enthalpies=            -764.605372
 Sum of electronic and thermal Free Energies=         -764.650368

                     E (Thermal)             CV                S
                      KCal/Mol        Cal/Mol-Kelvin    Cal/Mol-Kelvin
 Total                   38.679             30.774             94.701
 Electronic               0.000              0.000              0.000
 Translational            0.889              2.981             41.192
 Rotational               0.889              2.981             29.232
 Vibrational             36.901             24.812             24.277
 Vibration     1          0.594              1.984              5.776
 Vibration     2          0.602              1.957              3.685
 Vibration     3          0.620              1.897              2.605
 Vibration     4          0.644              1.819              2.008
 Vibration     5          0.662              1.764              1.734
 Vibration     6          0.680              1.711              1.536
 Vibration     7          0.720              1.595              1.210
 Vibration     8          0.737              1.548              1.108
 Vibration     9          0.785              1.421              0.884
 Vibration    10          0.786              1.419              0.880
 Vibration    11          0.900              1.152              0.556
 Vibration    12          0.922              1.104              0.512
 Vibration    13          0.964              1.020              0.440

 Optimization completed.
    -- Stationary point found.
 Normal termination of Gaussian 16 at Sat May 24 07:28:58 2025.
