 Gaussian 16, Revision C.01,
 Gaussian 16:  ES64L-G16RevC.01  3-Jul-2019

 ----------------------------------------------------------------------
 #P M062X/Def2TZVPP Symm(None) scf(xqc) pop(None) geom(AllCheck,NoKeepC
 onstants) guess(Read) irc(RCFC,forward,MaxPoints=100,StepSize=2)
 ----------------------------------------------------------------------

 Structure from the checkpoint file:  "1642764945472630600001_r13_insertion_ROR_11_10_1_2_IRC_F.chk"
 ------------------------------
 Gaussian input prepared by ASE
 ------------------------------
 Charge =  0 Multiplicity = 1

 SCF Done:  E(RM062X) =  -764.437914774     A.U. after   10 cycles

                          Input orientation:
 ---------------------------------------------------------------------
 Center     Atomic      Atomic             Coordinates (Angstroms)
 Number     Number       Type             X           Y           Z
 ---------------------------------------------------------------------
      1          6           0       -1.316558    0.173356   -0.226044
      2          8           0       -3.668272    0.169800    0.084909
      3          6           0        0.151408    0.319478   -0.631410
      4          6           0        1.117754   -0.241321    0.442258
      5          9           0        2.366563   -0.066182    0.048021
      6          9           0        0.922976    0.398116    1.584871
      7          9           0        0.889177   -1.532247    0.615754
      8          9           0        0.320401   -0.356158   -1.762761
      9          9           0        0.421491    1.604756   -0.816353
     10          8           0       -1.856333   -0.412014    0.587934
     11          1           0       -4.514008   -0.060838    0.494783
 ---------------------------------------------------------------------

 Normal termination of Gaussian 16 at Sat May 24 08:08:30 2025.
