 Gaussian 16, Revision C.01,
 Gaussian 16:  ES64L-G16RevC.01  3-Jul-2019

 -----------------------------------------------------------------
 #P M062X/Def2TZVPP Symm(None) scf(xqc) pop(None) freq opt(CalcFC)
 -----------------------------------------------------------------

 ------------------------------
 Gaussian input prepared by ASE
 ------------------------------
 Symbolic Z-matrix:
 Charge =  0 Multiplicity = 1

 SCF Done:  E(RM062X) =  -764.665910612     A.U. after   13 cycles
 SCF Done:  E(RM062X) =  -764.668240994     A.U. after   11 cycles
 SCF Done:  E(RM062X) =  -764.668242986     A.U. after   13 cycles
 SCF Done:  E(RM062X) =  -764.668255055     A.U. after   13 cycles
 SCF Done:  E(RM062X) =  -764.668265027     A.U. after   11 cycles
 SCF Done:  E(RM062X) =  -764.668264360     A.U. after   10 cycles
 SCF Done:  E(RM062X) =  -764.668264770     A.U. after    9 cycles
 SCF Done:  E(RM062X) =  -764.668265314     A.U. after   11 cycles
 SCF Done:  E(RM062X) =  -764.668265348     A.U. after    8 cycles
 Optimization completed.
    -- Stationary point found.
 Normal termination of Gaussian 16 at Sat May 24 04:34:31 2025.

 ---------------------------------------------------------------------
 #P Geom=AllCheck Guess=TCheck SCRF=Check GenChk RM062X/def2TZVPP Freq
 ---------------------------------------------------------------------

 Structure from the checkpoint file:  "1642764945472630600001_r12_insertion_R_11_10_1_IRC_F_prod.chk"
 ------------------------------
 Gaussian input prepared by ASE
 ------------------------------
 Charge =  0 Multiplicity = 1

                          Input orientation:
 ---------------------------------------------------------------------
 Center     Atomic      Atomic             Coordinates (Angstroms)
 Number     Number       Type             X           Y           Z
 ---------------------------------------------------------------------
      1          6           0        1.386106    0.197964   -0.671545
      2          8           0        2.094275   -0.771854   -0.101984
      3          6           0       -0.123290   -0.120856   -0.602604
      4          6           0       -0.703200    0.049597    0.818630
      5          9           0       -2.018779   -0.088972    0.787728
      6          9           0       -0.196200   -0.854533    1.643571
      7          9           0       -0.405695    1.261402    1.275450
      8          9           0       -0.776483    0.712760   -1.411699
      9          9           0       -0.349815   -1.383353   -0.996203
     10          8           0        1.813514    1.189390   -1.166759
     11          1           0        3.030904   -0.534760   -0.151208
 ---------------------------------------------------------------------

 SCF Done:  E(RM062X) =  -764.668265348     A.U. after    1 cycles

 Isotropic polarizability for W=    0.000000       43.86 Bohr**3.
 End of Minotr F.D. properties file   721 does not exist.

                      1                      2                      3
                      A                      A                      A
 Frequencies --     19.9901                65.4720               144.9664
 Red. masses --     12.9307                16.5337                10.2539
 Frc consts  --      0.0030                 0.0418                 0.1270
 IR Inten    --      1.4390                 0.3972                 1.0234

                      4                      5                      6
                      A                      A                      A
 Frequencies --    216.4599               248.6750               288.2096
 Red. masses --     17.3056                12.1647                14.7171
 Frc consts  --      0.4777                 0.4432                 0.7203
 IR Inten    --      1.5509                 1.1931                 1.3931

                      7                      8                      9
                      A                      A                      A
 Frequencies --    360.1289               379.8211               384.7085
 Red. masses --     16.6011                15.5297                13.6869
 Frc consts  --      1.2685                 1.3200                 1.1935
 IR Inten    --      0.3447                 0.8665                 0.5976

                     10                     11                     12
                      A                      A                      A
 Frequencies --    503.0255               549.2590               553.6987
 Red. masses --      8.0564                 7.3817                 2.5459
 Frc consts  --      1.2011                 1.3121                 0.4599
 IR Inten    --      5.6485                15.4037                20.5716

                     13                     14                     15
                      A                      A                      A
 Frequencies --    616.6695               637.8757               693.4678
 Red. masses --      6.8101                 3.1381                 4.5850
 Frc consts  --      1.5258                 0.7523                 1.2991
 IR Inten    --     16.9325                75.8508               101.2166

                     16                     17                     18
                      A                      A                      A
 Frequencies --    789.6176               798.3671              1062.7944
 Red. masses --     12.2473                 8.6386                11.7151
 Frc consts  --      4.4991                 3.2441                 7.7964
 IR Inten    --      2.5562                21.5677               124.3321

                     19                     20                     21
                      A                      A                      A
 Frequencies --   1188.7283              1229.9910              1277.0295
 Red. masses --      3.1485                 4.1771                10.4169
 Frc consts  --      2.6213                 3.7233                10.0090
 IR Inten    --    248.0731               186.9846                45.9692

                     22                     23                     24
                      A                      A                      A
 Frequencies --   1290.8034              1297.0968              1383.3660
 Red. masses --     13.2878                 7.3750                 7.7658
 Frc consts  --     13.0444                 7.3107                 8.7561
 IR Inten    --    360.5686               143.0065               125.8418

                     25                     26                     27
                      A                      A                      A
 Frequencies --   1436.3958              1921.0989              3807.3593
 Red. masses --      5.1298                11.7293                 1.0646
 Frc consts  --      6.2359                25.5049                 9.0927
 IR Inten    --     54.0755               331.3793               129.8986

 - Thermochemistry -
 -------------------
 Temperature   298.150 Kelvin.  Pressure   1.00000 Atm.
 Atom     1 has atomic number  6 and mass  12.00000

 Molecular mass:   163.98967 amu.
 Principal axes and moments of inertia in atomic units:
                           1         2         3
     Eigenvalues --   947.955321519.214841604.68861
           X            0.83610   0.53794   0.10753
           Y            0.06037  -0.28505   0.95661
           Z           -0.54525   0.79333   0.27080
 This molecule is an asymmetric top.
 Rotational symmetry number  1.
 Warning -- assumption of classical behavior for rotation
           may cause significant error
 Rotational temperatures (Kelvin)      0.09137     0.05701     0.05398
 Rotational constants (GHZ):           1.90383     1.18794     1.12467
 Zero-point vibrational energy     138438.3 (Joules/Mol)
                                   33.08755 (Kcal/Mol)
 Warning -- explicit consideration of  13 degrees of freedom as
           vibrations may cause significant error
 Vibrational temperatures:     28.76    94.20   208.57   311.44   357.79
          (Kelvin)            414.67   518.15   546.48   553.51   723.74
                              790.26   796.65   887.25   917.76   997.75
                             1136.08  1148.67  1529.12  1710.31  1769.68
                             1837.36  1857.18  1866.23  1990.36  2066.65
                             2764.03  5477.94

 Zero-point correction=                           0.052728 (Hartree/Particle)
 Thermal correction to Energy=                    0.061656
 Thermal correction to Enthalpy=                  0.062600
 Thermal correction to Gibbs Free Energy=         0.016975
 Sum of electronic and zero-point Energies=           -764.615537
 Sum of electronic and thermal Energies=              -764.606609
 Sum of electronic and thermal Enthalpies=            -764.605665
 Sum of electronic and thermal Free Energies=         -764.651291

                     E (Thermal)             CV                S
                      KCal/Mol        Cal/Mol-Kelvin    Cal/Mol-Kelvin
 Total                   38.690             30.697             96.028
 Electronic               0.000              0.000              0.000
 Translational            0.889              2.981             41.192
 Rotational               0.889              2.981             29.226
 Vibrational             36.912             24.735             25.610
 Vibration     1          0.593              1.986              6.635
 Vibration     2          0.597              1.971              4.285
 Vibration     3          0.616              1.908              2.737
 Vibration     4          0.645              1.816              1.989
 Vibration     5          0.662              1.765              1.740
 Vibration     6          0.685              1.696              1.484
 Vibration     7          0.735              1.554              1.122
 Vibration     8          0.750              1.513              1.040
 Vibration     9          0.754              1.503              1.021
 Vibration    10          0.858              1.243              0.651
 Vibration    11          0.905              1.141              0.546
 Vibration    12          0.909              1.132              0.537
 Vibration    13          0.976              0.997              0.422

 Optimization completed.
    -- Stationary point found.
 Normal termination of Gaussian 16 at Sat May 24 04:37:43 2025.
