 Gaussian 16, Revision C.01,
 Gaussian 16:  ES64L-G16RevC.01  3-Jul-2019

 -----------------------------------------------------------------
 #P M062X/Def2TZVPP Symm(None) scf(xqc) pop(None) freq opt(CalcFC)
 -----------------------------------------------------------------

 ------------------------------
 Gaussian input prepared by ASE
 ------------------------------
 Symbolic Z-matrix:
 Charge =  0 Multiplicity = 1

 SCF Done:  E(RM062X) =  -764.562138819     A.U. after   15 cycles
 SCF Done:  E(RM062X) =  -764.596041229     A.U. after   13 cycles
 SCF Done:  E(RM062X) =  -764.648832068     A.U. after   14 cycles
 SCF Done:  E(RM062X) =  -764.638679806     A.U. after   14 cycles
 SCF Done:  E(RM062X) =  -764.665678410     A.U. after   14 cycles
 SCF Done:  E(RM062X) =  -764.667509386     A.U. after   13 cycles
 SCF Done:  E(RM062X) =  -764.625753864     A.U. after   14 cycles
 SCF Done:  E(RM062X) =  -764.665954474     A.U. after   13 cycles
 SCF Done:  E(RM062X) =  -764.667541615     A.U. after    8 cycles
 SCF Done:  E(RM062X) =  -764.668110370     A.U. after   12 cycles
 SCF Done:  E(RM062X) =  -764.668257031     A.U. after    8 cycles
 SCF Done:  E(RM062X) =  -764.668258850     A.U. after   10 cycles
 SCF Done:  E(RM062X) =  -764.668260191     A.U. after   10 cycles
 SCF Done:  E(RM062X) =  -764.668261442     A.U. after   10 cycles
 SCF Done:  E(RM062X) =  -764.668264165     A.U. after   11 cycles
 SCF Done:  E(RM062X) =  -764.668266484     A.U. after   11 cycles
 SCF Done:  E(RM062X) =  -764.668267591     A.U. after    9 cycles
 SCF Done:  E(RM062X) =  -764.668267759     A.U. after    8 cycles
 SCF Done:  E(RM062X) =  -764.668267796     A.U. after    8 cycles
 Optimization completed.
    -- Stationary point found.
 Normal termination of Gaussian 16 at Sat May 24 07:26:40 2025.

 ---------------------------------------------------------------------
 #P Geom=AllCheck Guess=TCheck SCRF=Check GenChk RM062X/def2TZVPP Freq
 ---------------------------------------------------------------------

 Structure from the checkpoint file:  "1642764945472630600001_r13_insertion_ROR_4_3_1_10_IRC_R_prod.chk"
 ------------------------------
 Gaussian input prepared by ASE
 ------------------------------
 Charge =  0 Multiplicity = 1

                          Input orientation:
 ---------------------------------------------------------------------
 Center     Atomic      Atomic             Coordinates (Angstroms)
 Number     Number       Type             X           Y           Z
 ---------------------------------------------------------------------
      1          6           0        1.044087    1.026903    0.125705
      2          8           0        1.708156    1.473298   -0.752179
      3          6           0        0.443274   -0.394967    0.081403
      4          6           0       -1.075164   -0.389334   -0.200066
      5          9           0       -1.506995   -1.629055   -0.365738
      6          9           0       -1.735660    0.164045    0.806412
      7          9           0       -1.318225    0.305756   -1.305924
      8          9           0        1.036005   -1.082635   -0.894434
      9          9           0        0.647702   -1.023302    1.248966
     10          8           0        0.701299    1.643861    1.251859
     11          1           0        1.081392    2.533402    1.240025
 ---------------------------------------------------------------------

 SCF Done:  E(RM062X) =  -764.668267796     A.U. after    1 cycles

 Isotropic polarizability for W=    0.000000       43.87 Bohr**3.
 End of Minotr F.D. properties file   721 does not exist.

                      1                      2                      3
                      A                      A                      A
 Frequencies --     17.6432                65.5461               144.4453
 Red. masses --     12.9261                16.4858                10.2030
 Frc consts  --      0.0024                 0.0417                 0.1254
 IR Inten    --      1.4521                 0.3874                 1.0051

                      4                      5                      6
                      A                      A                      A
 Frequencies --    216.1284               247.8632               287.7730
 Red. masses --     17.3028                12.2360                14.6962
 Frc consts  --      0.4762                 0.4429                 0.7171
 IR Inten    --      1.5312                 1.1458                 1.4416

                      7                      8                      9
                      A                      A                      A
 Frequencies --    360.0252               379.7694               384.3219
 Red. masses --     16.5156                15.5419                13.6605
 Frc consts  --      1.2613                 1.3207                 1.1888
 IR Inten    --      0.3765                 0.8222                 0.6094

                     10                     11                     12
                      A                      A                      A
 Frequencies --    503.6010               548.4005               553.0514
 Red. masses --      7.7353                 4.9920                 3.0335
 Frc consts  --      1.1558                 0.8845                 0.5467
 IR Inten    --      5.9492                18.1780                17.7828

                     13                     14                     15
                      A                      A                      A
 Frequencies --    616.9752               636.3669               693.1430
 Red. masses --      6.9945                 3.1776                 4.5403
 Frc consts  --      1.5687                 0.7582                 1.2852
 IR Inten    --     16.7986                75.6334               102.0759

                     16                     17                     18
                      A                      A                      A
 Frequencies --    789.5610               797.8625              1062.3080
 Red. masses --     12.1896                 8.7392                11.7326
 Frc consts  --      4.4772                 3.2778                 7.8009
 IR Inten    --      2.7282                20.8780               123.7110

                     19                     20                     21
                      A                      A                      A
 Frequencies --   1187.6481              1229.6097              1277.5868
 Red. masses --      3.0701                 4.2857                10.3634
 Frc consts  --      2.5514                 3.8177                 9.9663
 IR Inten    --    246.0691               186.8912                43.8938

                     22                     23                     24
                      A                      A                      A
 Frequencies --   1291.1890              1297.3032              1382.3951
 Red. masses --     13.3051                 7.5574                 7.7784
 Frc consts  --     13.0691                 7.4939                 8.7580
 IR Inten    --    360.1645               146.3764               127.0759

                     25                     26                     27
                      A                      A                      A
 Frequencies --   1435.6151              1920.6600              3805.9353
 Red. masses --      5.1234                11.7387                 1.0646
 Frc consts  --      6.2213                25.5137                 9.0859
 IR Inten    --     54.2068               330.8436               130.1461

 - Thermochemistry -
 -------------------
 Temperature   298.150 Kelvin.  Pressure   1.00000 Atm.
 Atom     1 has atomic number  6 and mass  12.00000

 Molecular mass:   163.98967 amu.
 Principal axes and moments of inertia in atomic units:
                           1         2         3
     Eigenvalues --   948.428571520.722661602.24710
           X            0.79968  -0.58069   0.15267
           Y            0.58578   0.69872  -0.41068
           Z            0.13181   0.41784   0.89891
 This molecule is an asymmetric top.
 Rotational symmetry number  1.
 Warning -- assumption of classical behavior for rotation
           may cause significant error
 Rotational temperatures (Kelvin)      0.09132     0.05696     0.05406
 Rotational constants (GHZ):           1.90288     1.18677     1.12638
 Zero-point vibrational energy     138364.4 (Joules/Mol)
                                   33.06989 (Kcal/Mol)
 Warning -- explicit consideration of  13 degrees of freedom as
           vibrations may cause significant error
 Vibrational temperatures:     25.38    94.31   207.82   310.96   356.62
          (Kelvin)            414.04   518.00   546.40   552.95   724.57
                              789.03   795.72   887.69   915.59   997.28
                             1136.00  1147.95  1528.42  1708.76  1769.13
                             1838.16  1857.73  1866.53  1988.96  2065.53
                             2763.40  5475.89

 Zero-point correction=                           0.052700 (Hartree/Particle)
 Thermal correction to Energy=                    0.061638
 Thermal correction to Enthalpy=                  0.062583
 Thermal correction to Gibbs Free Energy=         0.016828
 Sum of electronic and zero-point Energies=           -764.615568
 Sum of electronic and thermal Energies=              -764.606629
 Sum of electronic and thermal Enthalpies=            -764.605685
 Sum of electronic and thermal Free Energies=         -764.651440

                     E (Thermal)             CV                S
                      KCal/Mol        Cal/Mol-Kelvin    Cal/Mol-Kelvin
 Total                   38.679             30.709             96.298
 Electronic               0.000              0.000              0.000
 Translational            0.889              2.981             41.192
 Rotational               0.889              2.981             29.226
 Vibrational             36.901             24.747             25.880
 Vibration     1          0.593              1.986              6.883
 Vibration     2          0.597              1.971              4.283
 Vibration     3          0.616              1.909              2.744
 Vibration     4          0.645              1.816              1.991
 Vibration     5          0.661              1.766              1.746
 Vibration     6          0.685              1.696              1.487
 Vibration     7          0.735              1.555              1.122
 Vibration     8          0.750              1.513              1.040
 Vibration     9          0.753              1.504              1.022
 Vibration    10          0.859              1.242              0.649
 Vibration    11          0.904              1.143              0.547
 Vibration    12          0.908              1.133              0.538
 Vibration    13          0.977              0.996              0.421

 Optimization completed.
    -- Stationary point found.
 Normal termination of Gaussian 16 at Sat May 24 07:30:23 2025.
