 Gaussian 16, Revision C.01,
 Gaussian 16:  ES64L-G16RevC.01  3-Jul-2019

 ----------------------------------------------------------------------
 #P M062X/Def2TZVPP Symm(None) scf(xqc) pop(None) opt(NoFreeze,TS,CalcA
 ll,NoEigentest,MaxCycle=999)
 ----------------------------------------------------------------------

 ------------------------------
 Gaussian input prepared by ASE
 ------------------------------
 Symbolic Z-matrix:
 Charge =  0 Multiplicity = 1

 SCF Done:  E(RM062X) =  -764.446398486     A.U. after   16 cycles
 SCF Done:  E(RM062X) =  -764.470474510     A.U. after   15 cycles
 SCF Done:  E(RM062X) =  -764.492600876     A.U. after   15 cycles
 SCF Done:  E(RM062X) =  -764.508154135     A.U. after   15 cycles
 SCF Done:  E(RM062X) =  -764.522847308     A.U. after   15 cycles
 SCF Done:  E(RM062X) =  -764.524305860     A.U. after   13 cycles
 SCF Done:  E(RM062X) =  -764.524427025     A.U. after   11 cycles
 SCF Done:  E(RM062X) =  -764.524430795     A.U. after    9 cycles

 Isotropic polarizability for W=    0.000000       49.82 Bohr**3.
 End of Minotr F.D. properties file   721 does not exist.

 Optimization completed.
    -- Stationary point found.

                          Input orientation:
 ---------------------------------------------------------------------
 Center     Atomic      Atomic             Coordinates (Angstroms)
 Number     Number       Type             X           Y           Z
 ---------------------------------------------------------------------
      1          6           0        1.745150    0.034039   -0.571950
      2          8           0        2.069041   -0.823051   -1.292185
      3          6           0        0.212797   -0.512381    0.620562
      4          6           0       -0.649129    0.440652    1.469629
      5          9           0       -1.798884    0.781439    0.914899
      6          9           0       -0.891416   -0.179802    2.620306
      7          9           0        0.044057    1.554306    1.729950
      8          9           0        0.384708    0.687791   -0.811059
      9          9           0       -0.560952   -1.409877    0.121571
     10          8           0        2.466553    0.896570    0.103317
     11          1           0        1.907573    1.501716    0.607056
 ---------------------------------------------------------------------

 ******    1 imaginary frequencies (negative Signs) ******

                      1                      2                      3
                      A                      A                      A
 Frequencies --   -458.6990                69.8876                88.7294
 Red. masses --     13.0885                17.7006                12.4582
 Frc consts  --      1.6225                 0.0509                 0.0578
 IR Inten    --     21.8850                 0.5793                 1.7350

                      4                      5                      6
                      A                      A                      A
 Frequencies --    139.3816               176.3388               218.7689
 Red. masses --      9.2612                14.2617                11.6934
 Frc consts  --      0.1060                 0.2613                 0.3297
 IR Inten    --      5.5212                61.8141                 2.7433

                      7                      8                      9
                      A                      A                      A
 Frequencies --    256.0633               286.6176               355.3999
 Red. masses --     13.0788                13.9456                12.9693
 Frc consts  --      0.5053                 0.6750                 0.9652
 IR Inten    --      1.5869                17.7349                 8.9195

                     10                     11                     12
                      A                      A                      A
 Frequencies --    427.2021               453.3149               505.4323
 Red. masses --      1.7581                 4.4902                 4.3158
 Frc consts  --      0.1890                 0.5436                 0.6496
 IR Inten    --     69.9064                26.4969                33.4308

                     13                     14                     15
                      A                      A                      A
 Frequencies --    540.5773               571.9492               592.2101
 Red. masses --     13.2851                16.0903                13.8829
 Frc consts  --      2.2873                 3.1012                 2.8687
 IR Inten    --     35.0419                17.4527                28.6612

                     16                     17                     18
                      A                      A                      A
 Frequencies --    650.1910               724.9697               745.8495
 Red. masses --      9.6822                15.3505                11.9820
 Frc consts  --      2.4116                 4.7535                 3.9272
 IR Inten    --    283.6462                18.1796               131.7558

                     19                     20                     21
                      A                      A                      A
 Frequencies --    909.5669              1149.4021              1244.9238
 Red. masses --     14.0385                 7.1120                11.1513
 Frc consts  --      6.8429                 5.5359                10.1827
 IR Inten    --     14.6181               164.0192               339.4788

                     22                     23                     24
                      A                      A                      A
 Frequencies --   1265.0423              1299.2452              1305.8275
 Red. masses --     12.0585                 1.7334                 4.5654
 Frc consts  --     11.3698                 1.7240                 4.5867
 IR Inten    --    320.0232               247.2637               300.1568

                     25                     26                     27
                      A                      A                      A
 Frequencies --   1394.3735              2024.4879              3831.4140
 Red. masses --     10.3665                11.2476                 1.0658
 Frc consts  --     11.8752                27.1608                 9.2180
 IR Inten    --     60.7611               570.7446               146.1369

 - Thermochemistry -
 -------------------
 Temperature   298.150 Kelvin.  Pressure   1.00000 Atm.
 Atom     1 has atomic number  6 and mass  12.00000

 Molecular mass:   163.98967 amu.
 Principal axes and moments of inertia in atomic units:
                           1         2         3
     Eigenvalues --   803.305061785.106602066.02415
           X            0.75355   0.43557   0.49238
           Y           -0.11300   0.82367  -0.55570
           Z           -0.64760   0.36311   0.66990
 This molecule is an asymmetric top.
 Rotational symmetry number  1.
 Warning -- assumption of classical behavior for rotation
           may cause significant error
 Rotational temperatures (Kelvin)      0.10782     0.04852     0.04192
 Rotational constants (GHZ):           2.24664     1.01100     0.87353
    1 imaginary frequencies ignored.
 Zero-point vibrational energy     126966.7 (Joules/Mol)
                                   30.34576 (Kcal/Mol)
 Warning -- explicit consideration of  14 degrees of freedom as
           vibrations may cause significant error
 Vibrational temperatures:    100.55   127.66   200.54   253.71   314.76
          (Kelvin)            368.42   412.38   511.34   614.65   652.22
                              727.20   777.77   822.91   852.06   935.48
                             1043.07  1073.11  1308.66  1653.73  1791.17
                             1820.11  1869.32  1878.79  2006.19  2912.79
                             5512.55

 Zero-point correction=                           0.048359 (Hartree/Particle)
 Thermal correction to Energy=                    0.057569
 Thermal correction to Enthalpy=                  0.058513
 Thermal correction to Gibbs Free Energy=         0.013357
 Sum of electronic and zero-point Energies=           -764.476072
 Sum of electronic and thermal Energies=              -764.466862
 Sum of electronic and thermal Enthalpies=            -764.465918
 Sum of electronic and thermal Free Energies=         -764.511074

                     E (Thermal)             CV                S
                      KCal/Mol        Cal/Mol-Kelvin    Cal/Mol-Kelvin
 Total                   36.125             31.741             95.038
 Electronic               0.000              0.000              0.000
 Translational            0.889              2.981             41.192
 Rotational               0.889              2.981             29.473
 Vibrational             34.348             25.779             24.373
 Vibration     1          0.598              1.968              4.157
 Vibration     2          0.602              1.957              3.688
 Vibration     3          0.615              1.914              2.812
 Vibration     4          0.628              1.872              2.367
 Vibration     5          0.647              1.812              1.969
 Vibration     6          0.666              1.753              1.688
 Vibration     7          0.684              1.699              1.494
 Vibration     8          0.731              1.564              1.142
 Vibration     9          0.789              1.411              0.868
 Vibration    10          0.812              1.354              0.786
 Vibration    11          0.861              1.238              0.645
 Vibration    12          0.896              1.160              0.564
 Vibration    13          0.928              1.092              0.501
 Vibration    14          0.950              1.048              0.463

 Normal termination of Gaussian 16 at Sat May 24 02:29:46 2025.
