 Gaussian 16, Revision C.01,
 Gaussian 16:  ES64L-G16RevC.01  3-Jul-2019

 -----------------------------------------------------------------
 #P M062X/Def2TZVPP Symm(None) scf(xqc) pop(None) freq opt(CalcFC)
 -----------------------------------------------------------------

 ------------------------------
 Gaussian input prepared by ASE
 ------------------------------
 Symbolic Z-matrix:
 Charge =  0 Multiplicity = 1

 SCF Done:  E(RM062X) =  -764.665772677     A.U. after   13 cycles
 SCF Done:  E(RM062X) =  -764.668066578     A.U. after   12 cycles
 SCF Done:  E(RM062X) =  -764.668214551     A.U. after   13 cycles
 SCF Done:  E(RM062X) =  -764.668254347     A.U. after   12 cycles
 SCF Done:  E(RM062X) =  -764.668265909     A.U. after   12 cycles
 SCF Done:  E(RM062X) =  -764.668266688     A.U. after    9 cycles
 SCF Done:  E(RM062X) =  -764.668266782     A.U. after    8 cycles
 Optimization completed.
    -- Stationary point found.
 Normal termination of Gaussian 16 at Sat May 24 05:21:45 2025.

 ---------------------------------------------------------------------
 #P Geom=AllCheck Guess=TCheck SCRF=Check GenChk RM062X/def2TZVPP Freq
 ---------------------------------------------------------------------

 Structure from the checkpoint file:  "1642764945472630600001_intra_H_migration_2_11_IRC_F_prod.chk"
 ------------------------------
 Gaussian input prepared by ASE
 ------------------------------
 Charge =  0 Multiplicity = 1

                          Input orientation:
 ---------------------------------------------------------------------
 Center     Atomic      Atomic             Coordinates (Angstroms)
 Number     Number       Type             X           Y           Z
 ---------------------------------------------------------------------
      1          6           0       -0.371378    1.323135   -0.735355
      2          8           0       -1.157590    0.889520   -1.715167
      3          6           0       -0.352340    0.313874    0.433287
      4          6           0        0.503943   -0.933665    0.124823
      5          9           0        0.586484   -1.700411    1.200042
      6          9           0       -0.032769   -1.635632   -0.862749
      7          9           0        1.726080   -0.555918   -0.233117
      8          9           0        0.166051    0.908573    1.507796
      9          9           0       -1.597795   -0.096436    0.715842
     10          8           0        0.254712    2.332593   -0.724242
     11          1           0       -1.132911    1.536129   -2.434318
 ---------------------------------------------------------------------

 SCF Done:  E(RM062X) =  -764.668266782     A.U. after    1 cycles

 Isotropic polarizability for W=    0.000000       43.88 Bohr**3.
 End of Minotr F.D. properties file   721 does not exist.

                      1                      2                      3
                      A                      A                      A
 Frequencies --     19.1164                65.3837               144.3549
 Red. masses --     13.0436                16.2980                10.2318
 Frc consts  --      0.0028                 0.0411                 0.1256
 IR Inten    --      1.4051                 0.4593                 0.9611

                      4                      5                      6
                      A                      A                      A
 Frequencies --    214.7971               248.2831               287.3661
 Red. masses --     17.4090                12.1836                14.7055
 Frc consts  --      0.4732                 0.4425                 0.7155
 IR Inten    --      1.4825                 1.1339                 1.4575

                      7                      8                      9
                      A                      A                      A
 Frequencies --    360.0194               380.3900               383.8485
 Red. masses --     16.5081                15.6290                13.5298
 Frc consts  --      1.2607                 1.3324                 1.1745
 IR Inten    --      0.3835                 0.8004                 0.6618

                     10                     11                     12
                      A                      A                      A
 Frequencies --    505.5698               547.5513               552.7182
 Red. masses --      8.1629                 4.0984                 3.5116
 Frc consts  --      1.2293                 0.7240                 0.6321
 IR Inten    --      6.0060                18.8927                15.6596

                     13                     14                     15
                      A                      A                      A
 Frequencies --    616.8635               636.9240               692.2972
 Red. masses --      7.6314                 2.9896                 4.5407
 Frc consts  --      1.7109                 0.7146                 1.2822
 IR Inten    --     14.7935                79.7627               101.8482

                     16                     17                     18
                      A                      A                      A
 Frequencies --    789.6142               798.0152              1062.0956
 Red. masses --     12.2734                 8.6405                11.7653
 Frc consts  --      4.5086                 3.2420                 7.8195
 IR Inten    --      2.3622                21.4365               123.9667

                     19                     20                     21
                      A                      A                      A
 Frequencies --   1187.6632              1229.4586              1277.3460
 Red. masses --      3.0438                 4.2791                10.1480
 Frc consts  --      2.5296                 3.8109                 9.7554
 IR Inten    --    246.3011               185.8925                38.1392

                     22                     23                     24
                      A                      A                      A
 Frequencies --   1290.3987              1297.2328              1381.9360
 Red. masses --     13.3098                 7.7615                 7.9281
 Frc consts  --     13.0578                 7.6954                 8.9206
 IR Inten    --    360.7917               150.1868               128.7143

                     25                     26                     27
                      A                      A                      A
 Frequencies --   1436.1539              1920.2917              3808.8696
 Red. masses --      5.1163                11.7416                 1.0646
 Frc consts  --      6.2174                25.5102                 9.1000
 IR Inten    --     55.0624               329.9614               130.0509

 - Thermochemistry -
 -------------------
 Temperature   298.150 Kelvin.  Pressure   1.00000 Atm.
 Atom     1 has atomic number  6 and mass  12.00000

 Molecular mass:   163.98967 amu.
 Principal axes and moments of inertia in atomic units:
                           1         2         3
     Eigenvalues --   948.922851523.211271599.33743
           X           -0.33054   0.02188   0.94354
           Y            0.86550   0.40571   0.29380
           Z           -0.37637   0.91374  -0.15304
 This molecule is an asymmetric top.
 Rotational symmetry number  1.
 Warning -- assumption of classical behavior for rotation
           may cause significant error
 Rotational temperatures (Kelvin)      0.09128     0.05686     0.05416
 Rotational constants (GHZ):           1.90188     1.18483     1.12843
 Zero-point vibrational energy     138375.4 (Joules/Mol)
                                   33.07251 (Kcal/Mol)
 Warning -- explicit consideration of  13 degrees of freedom as
           vibrations may cause significant error
 Vibrational temperatures:     27.50    94.07   207.69   309.05   357.22
          (Kelvin)            413.46   517.99   547.30   552.27   727.40
                              787.80   795.24   887.53   916.39   996.06
                             1136.08  1148.17  1528.12  1708.78  1768.92
                             1837.82  1856.60  1866.43  1988.30  2066.31
                             2762.87  5480.11

 Zero-point correction=                           0.052704 (Hartree/Particle)
 Thermal correction to Energy=                    0.061641
 Thermal correction to Enthalpy=                  0.062585
 Thermal correction to Gibbs Free Energy=         0.016900
 Sum of electronic and zero-point Energies=           -764.615562
 Sum of electronic and thermal Energies=              -764.606626
 Sum of electronic and thermal Enthalpies=            -764.605681
 Sum of electronic and thermal Free Energies=         -764.651367

                     E (Thermal)             CV                S
                      KCal/Mol        Cal/Mol-Kelvin    Cal/Mol-Kelvin
 Total                   38.680             30.710             96.154
 Electronic               0.000              0.000              0.000
 Translational            0.889              2.981             41.192
 Rotational               0.889              2.981             29.226
 Vibrational             36.903             24.749             25.735
 Vibration     1          0.593              1.986              6.724
 Vibration     2          0.597              1.971              4.288
 Vibration     3          0.616              1.909              2.745
 Vibration     4          0.645              1.818              2.003
 Vibration     5          0.662              1.766              1.743
 Vibration     6          0.685              1.697              1.489
 Vibration     7          0.735              1.555              1.122
 Vibration     8          0.750              1.512              1.038
 Vibration     9          0.753              1.505              1.024
 Vibration    10          0.861              1.238              0.644
 Vibration    11          0.903              1.145              0.549
 Vibration    12          0.908              1.134              0.539
 Vibration    13          0.977              0.996              0.422

 Optimization completed.
    -- Stationary point found.
 Normal termination of Gaussian 16 at Sat May 24 05:25:07 2025.
