 Gaussian 16, Revision C.01,
 Gaussian 16:  ES64L-G16RevC.01  3-Jul-2019

 -----------------------------------------------------------------
 #P M062X/Def2TZVPP Symm(None) scf(xqc) pop(None) freq opt(CalcFC)
 -----------------------------------------------------------------

 ------------------------------
 Gaussian input prepared by ASE
 ------------------------------
 Symbolic Z-matrix:
 Charge =  0 Multiplicity = 1

 SCF Done:  E(RM062X) =  -764.437914773     A.U. after   22 cycles
 SCF Done:  E(RM062X) =  -764.454185788     A.U. after   20 cycles
 SCF Done:  E(RM062X) =  -764.491340236     A.U. after   17 cycles
 SCF Done:  E(RM062X) =  -764.596239706     A.U. after   15 cycles
 SCF Done:  E(RM062X) =  -764.561640159     A.U. after   14 cycles
 SCF Done:  E(RM062X) =  -764.628563684     A.U. after   12 cycles
 SCF Done:  E(RM062X) =  -764.630159464     A.U. after    9 cycles
 SCF Done:  E(RM062X) =  -764.643517233     A.U. after   12 cycles
 SCF Done:  E(RM062X) =  -764.564021367     A.U. after   13 cycles
 SCF Done:  E(RM062X) =  -764.652712799     A.U. after   13 cycles
 SCF Done:  E(RM062X) =  -764.663999232     A.U. after   13 cycles
 SCF Done:  E(RM062X) =  -764.664269505     A.U. after   13 cycles
 SCF Done:  E(RM062X) =  -764.664456435     A.U. after   13 cycles
 SCF Done:  E(RM062X) =  -764.664516742     A.U. after   11 cycles
 SCF Done:  E(RM062X) =  -764.664501281     A.U. after   13 cycles
 SCF Done:  E(RM062X) =  -764.664550575     A.U. after   12 cycles
 SCF Done:  E(RM062X) =  -764.664562506     A.U. after    9 cycles
 SCF Done:  E(RM062X) =  -764.664562867     A.U. after    9 cycles
 SCF Done:  E(RM062X) =  -764.664562879     A.U. after    7 cycles
 Optimization completed.
    -- Stationary point found.
 Normal termination of Gaussian 16 at Sat May 24 08:29:50 2025.

 ---------------------------------------------------------------------
 #P Geom=AllCheck Guess=TCheck SCRF=Check GenChk RM062X/def2TZVPP Freq
 ---------------------------------------------------------------------

 Structure from the checkpoint file:  "1642764945472630600001_r13_insertion_ROR_11_10_1_2_IRC_F_prod.chk"
 ------------------------------
 Gaussian input prepared by ASE
 ------------------------------
 Charge =  0 Multiplicity = 1

                          Input orientation:
 ---------------------------------------------------------------------
 Center     Atomic      Atomic             Coordinates (Angstroms)
 Number     Number       Type             X           Y           Z
 ---------------------------------------------------------------------
      1          6           0       -1.681830   -0.504828    0.240449
      2          8           0       -2.532577    0.465258    0.558375
      3          6           0       -0.434334   -0.052705   -0.559815
      4          6           0        0.827650    0.006772    0.324234
      5          9           0        1.844137    0.494143   -0.369546
      6          9           0        0.589287    0.810413    1.359885
      7          9           0        1.143498   -1.193154    0.771990
      8          9           0       -0.213236   -0.890505   -1.570305
      9          9           0       -0.626680    1.191292   -1.060787
     10          8           0       -1.820953   -1.641704    0.543862
     11          1           0       -2.260364    1.311766    0.183621
 ---------------------------------------------------------------------

 SCF Done:  E(RM062X) =  -764.664562879     A.U. after    1 cycles

 Isotropic polarizability for W=    0.000000       43.65 Bohr**3.
 End of Minotr F.D. properties file   721 does not exist.

                      1                      2                      3
                      A                      A                      A
 Frequencies --     30.0518                64.2062               142.3990
 Red. masses --      9.1852                15.1642                16.7052
 Frc consts  --      0.0049                 0.0368                 0.1996
 IR Inten    --      4.4059                 0.7794                 2.4066

                      4                      5                      6
                      A                      A                      A
 Frequencies --    214.7349               267.0432               293.7786
 Red. masses --     16.9336                13.5895                17.3774
 Frc consts  --      0.4600                 0.5710                 0.8836
 IR Inten    --      3.9087                 5.8068                 6.0849

                      7                      8                      9
                      A                      A                      A
 Frequencies --    360.2017               376.5525               395.3718
 Red. masses --     16.6743                 9.3528                16.0768
 Frc consts  --      1.2746                 0.7813                 1.4807
 IR Inten    --      0.5398                 6.9670                 2.4941

                     10                     11                     12
                      A                      A                      A
 Frequencies --    512.1694               518.5596               548.6442
 Red. masses --      1.7906                 3.0298                10.6392
 Frc consts  --      0.2767                 0.4800                 1.8869
 IR Inten    --     96.4941                22.6446                12.6291

                     13                     14                     15
                      A                      A                      A
 Frequencies --    592.9628               625.4166               710.3384
 Red. masses --      9.5625                14.5139                 9.1958
 Frc consts  --      1.9810                 3.3448                 2.7338
 IR Inten    --      5.9840                 3.0947                33.9957

                     16                     17                     18
                      A                      A                      A
 Frequencies --    781.2851               798.3263              1055.5449
 Red. masses --     12.2638                12.9958                13.3096
 Frc consts  --      4.4106                 4.8799                 8.7372
 IR Inten    --      1.4649                15.1822               147.6492

                     19                     20                     21
                      A                      A                      A
 Frequencies --   1177.0844              1248.5117              1266.1401
 Red. masses --      5.0267                 2.2048                11.7285
 Frc consts  --      4.1034                 2.0249                11.0778
 IR Inten    --     94.9063               128.3992               301.7348

                     22                     23                     24
                      A                      A                      A
 Frequencies --   1280.2658              1309.8646              1377.4358
 Red. masses --      5.3812                13.1247                 6.7331
 Frc consts  --      5.1968                13.2676                 7.5268
 IR Inten    --     63.2208               263.1878               325.1090

                     25                     26                     27
                      A                      A                      A
 Frequencies --   1413.6487              1942.5689              3840.5196
 Red. masses --      6.2631                11.4892                 1.0657
 Frc consts  --      7.3743                25.5442                 9.2612
 IR Inten    --     92.4500               292.6881               138.0504

 - Thermochemistry -
 -------------------
 Temperature   298.150 Kelvin.  Pressure   1.00000 Atm.
 Atom     1 has atomic number  6 and mass  12.00000

 Molecular mass:   163.98967 amu.
 Principal axes and moments of inertia in atomic units:
                           1         2         3
     Eigenvalues --   948.499421533.875491593.30799
           X            0.99094   0.09688  -0.09299
           Y            0.13427  -0.70350   0.69790
           Z           -0.00219   0.70406   0.71014
 This molecule is an asymmetric top.
 Rotational symmetry number  1.
 Warning -- assumption of classical behavior for rotation
           may cause significant error
 Rotational temperatures (Kelvin)      0.09132     0.05647     0.05436
 Rotational constants (GHZ):           1.90273     1.17659     1.13270
 Zero-point vibrational energy     138429.6 (Joules/Mol)
                                   33.08548 (Kcal/Mol)
 Warning -- explicit consideration of  13 degrees of freedom as
           vibrations may cause significant error
 Vibrational temperatures:     43.24    92.38   204.88   308.96   384.22
          (Kelvin)            422.68   518.25   541.78   568.85   736.90
                              746.09   789.38   853.14   899.84  1022.02
                             1124.10  1148.61  1518.69  1693.56  1796.33
                             1821.69  1842.02  1884.60  1981.82  2033.93
                             2794.92  5525.65

 Zero-point correction=                           0.052725 (Hartree/Particle)
 Thermal correction to Energy=                    0.061635
 Thermal correction to Enthalpy=                  0.062579
 Thermal correction to Gibbs Free Energy=         0.017332
 Sum of electronic and zero-point Energies=           -764.611838
 Sum of electronic and thermal Energies=              -764.602928
 Sum of electronic and thermal Enthalpies=            -764.601984
 Sum of electronic and thermal Free Energies=         -764.647231

                     E (Thermal)             CV                S
                      KCal/Mol        Cal/Mol-Kelvin    Cal/Mol-Kelvin
 Total                   38.676             30.777             95.231
 Electronic               0.000              0.000              0.000
 Translational            0.889              2.981             41.192
 Rotational               0.889              2.981             29.229
 Vibrational             36.899             24.815             24.809
 Vibration     1          0.594              1.984              5.826
 Vibration     2          0.597              1.971              4.324
 Vibration     3          0.616              1.911              2.771
 Vibration     4          0.645              1.819              2.003
 Vibration     5          0.672              1.734              1.615
 Vibration     6          0.689              1.685              1.452
 Vibration     7          0.735              1.554              1.121
 Vibration     8          0.747              1.520              1.053
 Vibration     9          0.762              1.480              0.980
 Vibration    10          0.867              1.223              0.628
 Vibration    11          0.874              1.209              0.613
 Vibration    12          0.904              1.143              0.547
 Vibration    13          0.951              1.047              0.462

 Optimization completed.
    -- Stationary point found.
 Normal termination of Gaussian 16 at Sat May 24 08:33:25 2025.
