 Gaussian 16, Revision C.01,
 Gaussian 16:  ES64L-G16RevC.01  3-Jul-2019

 ----------------------------------------------------------------------
 #P M062X/Def2TZVPP Symm(None) scf(xqc) pop(None) geom(AllCheck,NoKeepC
 onstants) guess(Read) irc(RCFC,reverse,MaxPoints=100,StepSize=2)
 ----------------------------------------------------------------------

 Structure from the checkpoint file:  "1642764945472630600001_ketoenol_2_1_3_8_IRC_R.chk"
 ------------------------------
 Gaussian input prepared by ASE
 ------------------------------
 Charge =  0 Multiplicity = 1

 SCF Done:  E(RM062X) =  -764.454991821     A.U. after   15 cycles
 SCF Done:  E(RM062X) =  -764.455086405     A.U. after   17 cycles
 SCF Done:  E(RM062X) =  -764.455242020     A.U. after   17 cycles
 SCF Done:  E(RM062X) =  -764.455456746     A.U. after   16 cycles
 SCF Done:  E(RM062X) =  -764.455728427     A.U. after   16 cycles
 SCF Done:  E(RM062X) =  -764.456054689     A.U. after   16 cycles
 SCF Done:  E(RM062X) =  -764.456433013     A.U. after   16 cycles
 SCF Done:  E(RM062X) =  -764.456860823     A.U. after   16 cycles
 SCF Done:  E(RM062X) =  -764.457335578     A.U. after   16 cycles
 SCF Done:  E(RM062X) =  -764.457854841     A.U. after   16 cycles
 SCF Done:  E(RM062X) =  -764.487760329     A.U. after   10 cycles
 SCF Done:  E(RM062X) =  -764.487821409     A.U. after   10 cycles
 SCF Done:  E(RM062X) =  -764.487881930     A.U. after   10 cycles
 SCF Done:  E(RM062X) =  -764.487941883     A.U. after   10 cycles
 SCF Done:  E(RM062X) =  -764.488001314     A.U. after   10 cycles
 SCF Done:  E(RM062X) =  -764.488060211     A.U. after   10 cycles
 SCF Done:  E(RM062X) =  -764.488118575     A.U. after   10 cycles
 SCF Done:  E(RM062X) =  -764.488176378     A.U. after   10 cycles
 SCF Done:  E(RM062X) =  -764.488233590     A.U. after   10 cycles
 SCF Done:  E(RM062X) =  -764.488290174     A.U. after   10 cycles

                          Input orientation:
 ---------------------------------------------------------------------
 Center     Atomic      Atomic             Coordinates (Angstroms)
 Number     Number       Type             X           Y           Z
 ---------------------------------------------------------------------
      1          6           0       -0.077990   -0.899647    0.982647
      2          8           0       -0.850424   -1.681279    0.194406
      3          6           0        0.249839    0.329652    0.592895
      4          6           0       -0.122523    1.006797   -0.700762
      5          9           0       -0.474321    2.267757   -0.451059
      6          9           0        0.924175    1.041065   -1.528917
      7          9           0       -1.124402    0.411632   -1.328416
      8          9           0        0.053509   -2.349504   -0.690402
      9          9           0        1.029510    1.081999    1.354557
     10          8           0        0.327438   -1.413712    2.149488
     11          1           0        0.005157   -2.318965    2.221288
 ---------------------------------------------------------------------

 Normal termination of Gaussian 16 at Sat May 24 05:54:49 2025.
