 Gaussian 16, Revision C.01,
 Gaussian 16:  ES64L-G16RevC.01  3-Jul-2019

 -----------------------------------------------------------------
 #P M062X/Def2TZVPP Symm(None) scf(xqc) pop(None) freq opt(CalcFC)
 -----------------------------------------------------------------

 ------------------------------
 Gaussian input prepared by ASE
 ------------------------------
 Symbolic Z-matrix:
 Charge =  0 Multiplicity = 1

 SCF Done:  E(RM062X) =  -764.667151266     A.U. after   13 cycles
 SCF Done:  E(RM062X) =  -764.668170537     A.U. after   15 cycles
 SCF Done:  E(RM062X) =  -764.667598815     A.U. after   14 cycles
 SCF Done:  E(RM062X) =  -764.668235337     A.U. after   11 cycles
 SCF Done:  E(RM062X) =  -764.668250178     A.U. after   12 cycles
 SCF Done:  E(RM062X) =  -764.668260450     A.U. after   12 cycles
 SCF Done:  E(RM062X) =  -764.668264439     A.U. after   11 cycles
 SCF Done:  E(RM062X) =  -764.668264763     A.U. after   10 cycles
 Optimization completed.
    -- Stationary point found.
 Normal termination of Gaussian 16 at Sat May 24 04:09:19 2025.

 ---------------------------------------------------------------------
 #P Geom=AllCheck Guess=TCheck SCRF=Check GenChk RM062X/def2TZVPP Freq
 ---------------------------------------------------------------------

 Structure from the checkpoint file:  "1642764945472630600001_r12_insertion_R_4_3_8_IRC_R_prod.chk"
 ------------------------------
 Gaussian input prepared by ASE
 ------------------------------
 Charge =  0 Multiplicity = 1

                          Input orientation:
 ---------------------------------------------------------------------
 Center     Atomic      Atomic             Coordinates (Angstroms)
 Number     Number       Type             X           Y           Z
 ---------------------------------------------------------------------
      1          6           0        1.429771   -0.228192   -0.500455
      2          8           0        1.755671   -0.742189   -1.520572
      3          6           0        0.099578   -0.553617    0.213246
      4          6           0       -0.955818    0.559840    0.036873
      5          9           0       -2.110119    0.172545    0.554880
      6          9           0        0.305717   -0.726779    1.527422
      7          9           0       -0.566297    1.672887    0.641292
      8          9           0       -1.123657    0.811040   -1.256707
      9          9           0       -0.402234   -1.675972   -0.301834
     10          8           0        2.112109    0.688632    0.177846
     11          1           0        2.929081    0.878852   -0.304087
 ---------------------------------------------------------------------

 SCF Done:  E(RM062X) =  -764.668264763     A.U. after    1 cycles

 Isotropic polarizability for W=    0.000000       43.85 Bohr**3.
 End of Minotr F.D. properties file   721 does not exist.

                      1                      2                      3
                      A                      A                      A
 Frequencies --     15.9600                66.1207               144.6457
 Red. masses --     12.9686                16.4354                10.0897
 Frc consts  --      0.0019                 0.0423                 0.1244
 IR Inten    --      1.4449                 0.3807                 0.9868

                      4                      5                      6
                      A                      A                      A
 Frequencies --    216.9636               248.7299               288.1063
 Red. masses --     17.3425                12.1689                14.6060
 Frc consts  --      0.4810                 0.4436                 0.7143
 IR Inten    --      1.5351                 1.1750                 1.5022

                      7                      8                      9
                      A                      A                      A
 Frequencies --    359.8434               380.2569               384.0099
 Red. masses --     16.4703                15.6087                13.4681
 Frc consts  --      1.2565                 1.3298                 1.1701
 IR Inten    --      0.3986                 0.7901                 0.6825

                     10                     11                     12
                      A                      A                      A
 Frequencies --    504.2467               544.9893               551.1928
 Red. masses --      7.0875                 2.4264                 7.1608
 Frc consts  --      1.0618                 0.4246                 1.2818
 IR Inten    --      6.3538                27.5657                12.1740

                     13                     14                     15
                      A                      A                      A
 Frequencies --    616.0250               634.1890               691.9376
 Red. masses --      7.0534                 3.5001                 4.5885
 Frc consts  --      1.5771                 0.8294                 1.2943
 IR Inten    --     19.3718                72.0671               100.5893

                     16                     17                     18
                      A                      A                      A
 Frequencies --    789.2547               797.7598              1062.1195
 Red. masses --     12.4254                 8.7528                11.7523
 Frc consts  --      4.5603                 3.2820                 7.8112
 IR Inten    --      2.3601                20.6760               124.1985

                     19                     20                     21
                      A                      A                      A
 Frequencies --   1186.4132              1228.8720              1277.5791
 Red. masses --      2.9838                 4.3698                10.2227
 Frc consts  --      2.4745                 3.8880                 9.8308
 IR Inten    --    244.2754               185.4891                40.4078

                     22                     23                     24
                      A                      A                      A
 Frequencies --   1290.0214              1297.3888              1382.7214
 Red. masses --     13.3143                 7.7583                 7.9205
 Frc consts  --     13.0546                 7.6941                 8.9222
 IR Inten    --    361.4882               149.0080               129.2969

                     25                     26                     27
                      A                      A                      A
 Frequencies --   1435.8862              1920.6071              3810.2032
 Red. masses --      5.1865                11.7496                 1.0646
 Frc consts  --      6.3004                25.5358                 9.1064
 IR Inten    --     54.3328               329.7370               129.7566

 - Thermochemistry -
 -------------------
 Temperature   298.150 Kelvin.  Pressure   1.00000 Atm.
 Atom     1 has atomic number  6 and mass  12.00000

 Molecular mass:   163.98967 amu.
 Principal axes and moments of inertia in atomic units:
                           1         2         3
     Eigenvalues --   948.750071522.518821600.24860
           X            0.93870   0.27879   0.20277
           Y           -0.26521   0.95980  -0.09189
           Z           -0.22024   0.03248   0.97490
 This molecule is an asymmetric top.
 Rotational symmetry number  1.
 Warning -- assumption of classical behavior for rotation
           may cause significant error
 Rotational temperatures (Kelvin)      0.09129     0.05689     0.05413
 Rotational constants (GHZ):           1.90223     1.18537     1.12779
 Zero-point vibrational energy     138324.5 (Joules/Mol)
                                   33.06034 (Kcal/Mol)
 Warning -- explicit consideration of  13 degrees of freedom as
           vibrations may cause significant error
 Vibrational temperatures:     22.96    95.13   208.11   312.16   357.87
          (Kelvin)            414.52   517.73   547.10   552.50   725.50
                              784.12   793.04   886.32   912.46   995.54
                             1135.56  1147.80  1528.15  1706.98  1768.07
                             1838.15  1856.05  1866.65  1989.43  2065.92
                             2763.33  5482.03

 Zero-point correction=                           0.052685 (Hartree/Particle)
 Thermal correction to Energy=                    0.061628
 Thermal correction to Enthalpy=                  0.062572
 Thermal correction to Gibbs Free Energy=         0.016731
 Sum of electronic and zero-point Energies=           -764.615580
 Sum of electronic and thermal Energies=              -764.606637
 Sum of electronic and thermal Enthalpies=            -764.605693
 Sum of electronic and thermal Free Energies=         -764.651533

                     E (Thermal)             CV                S
                      KCal/Mol        Cal/Mol-Kelvin    Cal/Mol-Kelvin
 Total                   38.672             30.727             96.479
 Electronic               0.000              0.000              0.000
 Translational            0.889              2.981             41.192
 Rotational               0.889              2.981             29.226
 Vibrational             36.895             24.765             26.061
 Vibration     1          0.593              1.986              7.082
 Vibration     2          0.598              1.970              4.266
 Vibration     3          0.616              1.908              2.741
 Vibration     4          0.646              1.815              1.984
 Vibration     5          0.662              1.765              1.740
 Vibration     6          0.685              1.696              1.485
 Vibration     7          0.734              1.555              1.123
 Vibration     8          0.750              1.512              1.038
 Vibration     9          0.753              1.504              1.023
 Vibration    10          0.860              1.241              0.648
 Vibration    11          0.900              1.151              0.555
 Vibration    12          0.907              1.137              0.542
 Vibration    13          0.976              0.998              0.423

 Optimization completed.
    -- Stationary point found.
 Normal termination of Gaussian 16 at Sat May 24 04:12:42 2025.
