 Gaussian 16, Revision C.01,
 Gaussian 16:  ES64L-G16RevC.01  3-Jul-2019

 ----------------------------------------------------------------------
 #P mp2/6-31G Symm(None) scf(xqc) pop(None) guess(Mix,Always) opt(NoFre
 eze,TS,CalcAll,NoEigentest,MaxCycle=999)
 ----------------------------------------------------------------------

 ------------------------------
 Gaussian input prepared by ASE
 ------------------------------
 Symbolic Z-matrix:
 Charge =  0 Multiplicity = 1

 SCF Done:  E(RHF) =  -760.726660950     A.U. after   17 cycles
 E2 =    -0.1133265960D+01 EUMP2 =    -0.76185992690968D+03
 E2 =    -0.1133265960D+01 EUMP2 =    -0.76185992690968D+03
 SCF Done:  E(RHF) =  -760.697599829     A.U. after   18 cycles
 E2 =    -0.1154467225D+01 EUMP2 =    -0.76185206705430D+03
 E2 =    -0.1154467225D+01 EUMP2 =    -0.76185206705430D+03
 SCF Done:  E(RHF) =  -760.706075985     A.U. after   17 cycles
 E2 =    -0.1165087485D+01 EUMP2 =    -0.76187116347053D+03
 E2 =    -0.1165087485D+01 EUMP2 =    -0.76187116347053D+03
 SCF Done:  E(RHF) =  -760.703602886     A.U. after   16 cycles
 E2 =    -0.1174166766D+01 EUMP2 =    -0.76187776965213D+03
 E2 =    -0.1174166766D+01 EUMP2 =    -0.76187776965213D+03
 SCF Done:  E(RHF) =  -760.701945121     A.U. after   17 cycles
 E2 =    -0.1175992625D+01 EUMP2 =    -0.76187793774628D+03
 E2 =    -0.1175992625D+01 EUMP2 =    -0.76187793774628D+03
 SCF Done:  E(RHF) =  -760.701943080     A.U. after   17 cycles
 E2 =    -0.1176000787D+01 EUMP2 =    -0.76187794386680D+03
 E2 =    -0.1176000787D+01 EUMP2 =    -0.76187794386680D+03
 SCF Done:  E(RHF) =  -760.701942668     A.U. after   17 cycles
 E2 =    -0.1176001212D+01 EUMP2 =    -0.76187794387991D+03
 E2 =    -0.1176001212D+01 EUMP2 =    -0.76187794387991D+03
 Optimization completed.
    -- Stationary point found.

                          Input orientation:
 ---------------------------------------------------------------------
 Center     Atomic      Atomic             Coordinates (Angstroms)
 Number     Number       Type             X           Y           Z
 ---------------------------------------------------------------------
      1          6           0        1.491860    0.183450    0.005524
      2          8           0        2.343199   -0.767176   -0.290867
      3          6           0       -0.008582    0.024818    0.032867
      4          6           0       -0.662375    0.415178    1.372813
      5          9           0       -2.009846    0.081344    1.379557
      6          9           0       -0.017460   -0.276348    2.402924
      7          9           0       -0.533753    1.779576    1.601903
      8          9           0       -0.575117    0.836129   -0.978768
      9          9           0       -0.343592   -1.316802   -0.228850
     10          8           0        2.094195    1.322052    0.259301
     11          1           0        3.090122    0.386451   -0.043212
 ---------------------------------------------------------------------

 ******    1 imaginary frequencies (negative Signs) ******

                      1                      2                      3
                      A                      A                      A
 Frequencies --  -1937.0491                33.7579                63.2028
 Red. masses --      1.0938                16.1640                16.1352
 Frc consts  --      2.4181                 0.0109                 0.0380
 IR Inten    --     76.9849                 0.0376                 0.1429

                      4                      5                      6
                      A                      A                      A
 Frequencies --    141.8317               207.0295               232.0018
 Red. masses --     11.8028                17.0043                14.1889
 Frc consts  --      0.1399                 0.4294                 0.4500
 IR Inten    --      0.7699                 3.8435                 0.1370

                      7                      8                      9
                      A                      A                      A
 Frequencies --    277.8238               340.2607               360.4634
 Red. masses --     16.3565                18.4316                16.7332
 Frc consts  --      0.7438                 1.2573                 1.2810
 IR Inten    --      3.6219                 0.1077                 0.9130

                     10                     11                     12
                      A                      A                      A
 Frequencies --    376.5815               447.9899               503.4656
 Red. masses --     14.9745                14.5270                17.5500
 Frc consts  --      1.2512                 1.7178                 2.6210
 IR Inten    --      3.0468                 5.5509                10.6938

                     13                     14                     15
                      A                      A                      A
 Frequencies --    535.4127               591.0083               688.9235
 Red. masses --     13.1007                16.1327                17.2500
 Frc consts  --      2.2127                 3.3201                 4.8237
 IR Inten    --      7.6948                 6.0948                33.0870

                     16                     17                     18
                      A                      A                      A
 Frequencies --    700.4920               836.6618              1027.8192
 Red. masses --      9.3890                13.2825                13.0322
 Frc consts  --      2.7144                 5.4781                 8.1115
 IR Inten    --      2.7862                68.3638               141.9858

                     19                     20                     21
                      A                      A                      A
 Frequencies --   1119.6485              1152.0295              1164.4353
 Red. masses --      1.5718                 3.6038                10.9907
 Frc consts  --      1.1610                 2.8180                 8.7803
 IR Inten    --     54.1654               244.4392               118.7845

                     22                     23                     24
                      A                      A                      A
 Frequencies --   1205.8863              1224.8678              1330.0583
 Red. masses --     13.0165                12.8308                11.5749
 Frc consts  --     11.1521                11.3418                12.0645
 IR Inten    --    205.9848                96.0709                36.5495

                     25                     26                     27
                      A                      A                      A
 Frequencies --   1463.8635              1576.2823              2005.8688
 Red. masses --      5.7484                 8.8425                 1.1481
 Frc consts  --      7.2577                12.9448                 2.7218
 IR Inten    --     29.7582               203.6094                44.8782

 - Thermochemistry -
 -------------------
 Temperature   298.150 Kelvin.  Pressure   1.00000 Atm.
 Atom     1 has atomic number  6 and mass  12.00000

 Molecular mass:   163.98967 amu.
 Principal axes and moments of inertia in atomic units:
                           1         2         3
     Eigenvalues --   985.314461616.380441759.12943
           X            0.86825   0.41824  -0.26687
           Y           -0.10864   0.68512   0.72028
           Z           -0.48409   0.59639  -0.64029
 This molecule is an asymmetric top.
 Rotational symmetry number  1.
 Warning -- assumption of classical behavior for rotation
           may cause significant error
 Rotational temperatures (Kelvin)      0.08790     0.05359     0.04924
 Rotational constants (GHZ):           1.83164     1.11653     1.02593
    1 imaginary frequencies ignored.
 Zero-point vibrational energy     117279.9 (Joules/Mol)
                                   28.03057 (Kcal/Mol)
 Warning -- explicit consideration of  13 degrees of freedom as
           vibrations may cause significant error
 Vibrational temperatures:     48.57    90.93   204.06   297.87   333.80
          (Kelvin)            399.73   489.56   518.63   541.82   644.56
                              724.37   770.34   850.33   991.21  1007.85
                             1203.77  1478.80  1610.92  1657.51  1675.36
                             1735.00  1762.31  1913.66  2106.17  2267.92
                             2886.00

 Zero-point correction=                           0.044670 (Hartree/Particle)
 Thermal correction to Energy=                    0.053699
 Thermal correction to Enthalpy=                  0.054643
 Thermal correction to Gibbs Free Energy=         0.009095
 Sum of electronic and zero-point Energies=           -761.833274
 Sum of electronic and thermal Energies=              -761.824245
 Sum of electronic and thermal Enthalpies=            -761.823301
 Sum of electronic and thermal Free Energies=         -761.868849

                     E (Thermal)             CV                S
                      KCal/Mol        Cal/Mol-Kelvin    Cal/Mol-Kelvin
 Total                   33.696             30.691             95.864
 Electronic               0.000              0.000              0.000
 Translational            0.889              2.981             41.192
 Rotational               0.889              2.981             29.417
 Vibrational             31.919             24.730             25.254
 Vibration     1          0.594              1.983              5.595
 Vibration     2          0.597              1.972              4.355
 Vibration     3          0.615              1.911              2.779
 Vibration     4          0.641              1.830              2.070
 Vibration     5          0.653              1.792              1.863
 Vibration     6          0.679              1.715              1.547
 Vibration     7          0.720              1.595              1.211
 Vibration     8          0.735              1.554              1.120
 Vibration     9          0.747              1.520              1.053
 Vibration    10          0.807              1.365              0.802
 Vibration    11          0.859              1.242              0.650
 Vibration    12          0.890              1.172              0.575
 Vibration    13          0.948              1.051              0.465

 Normal termination of Gaussian 16 at Sat May 24 02:32:40 2025.
