 Gaussian 16, Revision C.01,
 Gaussian 16:  ES64L-G16RevC.01  3-Jul-2019

 ----------------------------------------------------------------------
 #P mp2/6-31G Symm(None) scf(xqc) pop(None) guess(Mix,Always) freq opt(
 CalcFC)
 ----------------------------------------------------------------------

 ------------------------------
 Gaussian input prepared by ASE
 ------------------------------
 Symbolic Z-matrix:
 Charge =  0 Multiplicity = 1

 SCF Done:  E(RHF) =  -760.801433385     A.U. after   17 cycles
 E2 =    -0.1145102217D+01 EUMP2 =    -0.76194653560132D+03
 E2 =    -0.1145102217D+01 EUMP2 =    -0.76194653560132D+03
 SCF Done:  E(RHF) =  -760.805592781     A.U. after   17 cycles
 E2 =    -0.1144830632D+01 EUMP2 =    -0.76195042341344D+03
 SCF Done:  E(RHF) =  -760.805391741     A.U. after   17 cycles
 E2 =    -0.1145123153D+01 EUMP2 =    -0.76195051489455D+03
 SCF Done:  E(RHF) =  -760.805328666     A.U. after   17 cycles
 E2 =    -0.1145202796D+01 EUMP2 =    -0.76195053146260D+03
 SCF Done:  E(RHF) =  -760.805374917     A.U. after   17 cycles
 E2 =    -0.1145161065D+01 EUMP2 =    -0.76195053598150D+03
 Optimization completed.
    -- Stationary point found.
 Normal termination of Gaussian 16 at Sat May 24 03:10:25 2025.

 -------------------------------------------------------------------
 #P Geom=AllCheck Guess=TCheck SCRF=Check GenChk RMP2(FC)/6-31G Freq
 -------------------------------------------------------------------

 Structure from the checkpoint file:  "1642764945472630600001_R_Addition_MultipleBond_1_10_11_IRC_R_prod.chk"
 ------------------------------
 Gaussian input prepared by ASE
 ------------------------------
 Charge =  0 Multiplicity = 1

                          Input orientation:
 ---------------------------------------------------------------------
 Center     Atomic      Atomic             Coordinates (Angstroms)
 Number     Number       Type             X           Y           Z
 ---------------------------------------------------------------------
      1          6           0        1.445029   -0.179454   -0.597893
      2          8           0        2.166285   -1.162802   -0.832674
      3          6           0       -0.091187   -0.206816   -0.567525
      4          6           0       -0.727345    0.190047    0.778659
      5          9           0       -2.072908   -0.159912    0.815537
      6          9           0       -0.059186   -0.490669    1.804825
      7          9           0       -0.620474    1.555376    1.010424
      8          9           0       -0.601214    0.659739   -1.563699
      9          9           0       -0.511198   -1.518505   -0.858043
     10          8           0        1.878310    1.102180   -0.334362
     11          1           0        2.861269    1.163316   -0.354571
 ---------------------------------------------------------------------

 SCF Done:  E(RHF) =  -760.805374917     A.U. after    1 cycles
 E2 =    -0.1145161066D+01 EUMP2 =    -0.76195053598269D+03
 E2 =    -0.1145161066D+01 EUMP2 =    -0.76195053598269D+03

                      1                      2                      3
                      A                      A                      A
 Frequencies --     45.1616                64.9544               153.4593
 Red. masses --     12.1268                17.2613                10.5322
 Frc consts  --      0.0146                 0.0429                 0.1461
 IR Inten    --      1.1313                 0.2249                 1.8228

                      4                      5                      6
                      A                      A                      A
 Frequencies --    216.0744               242.3691               283.5907
 Red. masses --     17.0121                11.5793                14.5227
 Frc consts  --      0.4680                 0.4008                 0.6881
 IR Inten    --      2.7451                 0.9483                 1.9997

                      7                      8                      9
                      A                      A                      A
 Frequencies --    340.9427               363.7941               370.2209
 Red. masses --     18.2398                17.2307                13.1322
 Frc consts  --      1.2492                 1.3436                 1.0605
 IR Inten    --      0.0722                 0.8182                 2.2462

                     10                     11                     12
                      A                      A                      A
 Frequencies --    455.6502               496.0132               536.0908
 Red. masses --     11.0910                14.1233                 5.6822
 Frc consts  --      1.3567                 2.0473                 0.9621
 IR Inten    --      8.6221                15.0725                12.6160

                     13                     14                     15
                      A                      A                      A
 Frequencies --    584.6009               615.2464               649.5580
 Red. masses --      6.2621                 1.6206                 5.4246
 Frc consts  --      1.2609                 0.3614                 1.3485
 IR Inten    --     13.6758               146.2306                97.0988

                     16                     17                     18
                      A                      A                      A
 Frequencies --    710.6777               733.8002              1008.2203
 Red. masses --     10.0591                 9.3926                13.1923
 Frc consts  --      2.9933                 2.9798                 7.9010
 IR Inten    --      8.0475                23.1769               148.7012

                     19                     20                     21
                      A                      A                      A
 Frequencies --   1089.8563              1148.7348              1181.8843
 Red. masses --      4.0461                 6.7252                 7.3014
 Frc consts  --      2.8315                 5.2287                 6.0090
 IR Inten    --    287.2855               164.2074               100.1717

                     22                     23                     24
                      A                      A                      A
 Frequencies --   1206.2594              1224.2015              1328.0057
 Red. masses --     10.7175                 5.4237                12.2228
 Frc consts  --      9.1881                 4.7891                12.7005
 IR Inten    --    162.8183                98.2393                53.4475

                     25                     26                     27
                      A                      A                      A
 Frequencies --   1399.7961              1700.4765              3607.1625
 Red. masses --      3.0430                10.5863                 1.0645
 Frc consts  --      3.5130                18.0358                 8.1609
 IR Inten    --     49.2684               157.2733                93.2385

 - Thermochemistry -
 -------------------
 Temperature   298.150 Kelvin.  Pressure   1.00000 Atm.
 Atom     1 has atomic number  6 and mass  12.00000

 Molecular mass:   163.98967 amu.
 Principal axes and moments of inertia in atomic units:
                           1         2         3
     Eigenvalues --  1007.165751577.032851713.30855
           X            0.84997   0.43690   0.29439
           Y           -0.14797   0.73428  -0.66252
           Z           -0.50562   0.51956   0.68877
 This molecule is an asymmetric top.
 Rotational symmetry number  1.
 Warning -- assumption of classical behavior for rotation
           may cause significant error
 Rotational temperatures (Kelvin)      0.08600     0.05492     0.05055
 Rotational constants (GHZ):           1.79190     1.14439     1.05337
 Zero-point vibrational energy     130134.6 (Joules/Mol)
                                   31.10291 (Kcal/Mol)
 Warning -- explicit consideration of  14 degrees of freedom as
           vibrations may cause significant error
 Vibrational temperatures:     64.98    93.45   220.79   310.88   348.72
          (Kelvin)            408.02   490.54   523.42   532.67   655.58
                              713.65   771.32   841.11   885.20   934.57
                             1022.51  1055.77  1450.60  1568.06  1652.77
                             1700.47  1735.54  1761.35  1910.70  2013.99
                             2446.61  5189.90

 Zero-point correction=                           0.049566 (Hartree/Particle)
 Thermal correction to Energy=                    0.058715
 Thermal correction to Enthalpy=                  0.059660
 Thermal correction to Gibbs Free Energy=         0.014312
 Sum of electronic and zero-point Energies=           -761.900970
 Sum of electronic and thermal Energies=              -761.891821
 Sum of electronic and thermal Enthalpies=            -761.890876
 Sum of electronic and thermal Free Energies=         -761.936224

                     E (Thermal)             CV                S
                      KCal/Mol        Cal/Mol-Kelvin    Cal/Mol-Kelvin
 Total                   36.845             31.909             95.442
 Electronic               0.000              0.000              0.000
 Translational            0.889              2.981             41.192
 Rotational               0.889              2.981             29.388
 Vibrational             35.067             25.947             24.862
 Vibration     1          0.595              1.979              5.019
 Vibration     2          0.597              1.971              4.301
 Vibration     3          0.619              1.899              2.629
 Vibration     4          0.645              1.817              1.992
 Vibration     5          0.659              1.775              1.785
 Vibration     6          0.682              1.704              1.512
 Vibration     7          0.720              1.594              1.208
 Vibration     8          0.737              1.547              1.106
 Vibration     9          0.742              1.533              1.079
 Vibration    10          0.814              1.348              0.779
 Vibration    11          0.852              1.259              0.668
 Vibration    12          0.891              1.170              0.574
 Vibration    13          0.942              1.065              0.477
 Vibration    14          0.975              1.000              0.424

 Optimization completed.
    -- Stationary point found.
 Normal termination of Gaussian 16 at Sat May 24 03:10:45 2025.
