 Gaussian 16, Revision C.01,
 Gaussian 16:  ES64L-G16RevC.01  3-Jul-2019

 ----------------------------------------------------------------------
 #P M062X/Def2TZVPP Symm(None) scf(xqc) pop(None) geom(AllCheck,NoKeepC
 onstants) guess(Read) irc(RCFC,forward,MaxPoints=100,StepSize=2)
 ----------------------------------------------------------------------

 Structure from the checkpoint file:  "1642764945472630600001_r13_insertion_CO2_3_11_IRC_F.chk"
 ------------------------------
 Gaussian input prepared by ASE
 ------------------------------
 Charge =  0 Multiplicity = 1

 SCF Done:  E(RM062X) =  -764.545363298     A.U. after   10 cycles
 SCF Done:  E(RM062X) =  -764.545467060     A.U. after   11 cycles
 SCF Done:  E(RM062X) =  -764.545643061     A.U. after   11 cycles
 SCF Done:  E(RM062X) =  -764.545893321     A.U. after   11 cycles
 SCF Done:  E(RM062X) =  -764.546219378     A.U. after   11 cycles
 SCF Done:  E(RM062X) =  -764.546622249     A.U. after   11 cycles
 SCF Done:  E(RM062X) =  -764.547102396     A.U. after   11 cycles
 SCF Done:  E(RM062X) =  -764.547659725     A.U. after   11 cycles
 SCF Done:  E(RM062X) =  -764.548293639     A.U. after   11 cycles
 SCF Done:  E(RM062X) =  -764.549003145     A.U. after   11 cycles
 SCF Done:  E(RM062X) =  -764.636229065     A.U. after    9 cycles
 SCF Done:  E(RM062X) =  -764.636747607     A.U. after    9 cycles
 SCF Done:  E(RM062X) =  -764.637258121     A.U. after    9 cycles
 SCF Done:  E(RM062X) =  -764.637760738     A.U. after    9 cycles
 SCF Done:  E(RM062X) =  -764.638255590     A.U. after    9 cycles
 SCF Done:  E(RM062X) =  -764.638742805     A.U. after    9 cycles
 SCF Done:  E(RM062X) =  -764.639222513     A.U. after    9 cycles
 SCF Done:  E(RM062X) =  -764.639694842     A.U. after    9 cycles
 SCF Done:  E(RM062X) =  -764.640159916     A.U. after    9 cycles
 SCF Done:  E(RM062X) =  -764.640617863     A.U. after    9 cycles

                          Input orientation:
 ---------------------------------------------------------------------
 Center     Atomic      Atomic             Coordinates (Angstroms)
 Number     Number       Type             X           Y           Z
 ---------------------------------------------------------------------
      1          6           0        2.116728   -0.166136   -0.664632
      2          8           0        2.085420   -1.298302   -0.851784
      3          6           0       -0.325681    0.227351   -0.562069
      4          6           0       -0.818336   -0.009085    0.844472
      5          9           0       -2.116663   -0.223997    0.834264
      6          9           0       -0.203663   -1.056454    1.395690
      7          9           0       -0.551351    1.065518    1.582199
      8          9           0       -0.911877    1.288496   -1.114794
      9          9           0       -0.543839   -0.860356   -1.308982
     10          8           0        2.283378    0.970278   -0.479771
     11          1           0        0.657345    0.566130   -0.488266
 ---------------------------------------------------------------------

 Normal termination of Gaussian 16 at Sat May 24 06:51:00 2025.
