 Gaussian 16, Revision C.01,
 Gaussian 16:  ES64L-G16RevC.01  3-Jul-2019

 -----------------------------------------------------------------
 #P M062X/Def2TZVPP Symm(None) scf(xqc) pop(None) freq opt(CalcFC)
 -----------------------------------------------------------------

 ------------------------------
 Gaussian input prepared by ASE
 ------------------------------
 Symbolic Z-matrix:
 Charge =  0 Multiplicity = 1

 SCF Done:  E(RM062X) =  -764.545378626     A.U. after   15 cycles
 SCF Done:  E(RM062X) =  -764.546297539     A.U. after   14 cycles
 SCF Done:  E(RM062X) =  -764.546477624     A.U. after   13 cycles
 SCF Done:  E(RM062X) =  -764.546629116     A.U. after   12 cycles
 SCF Done:  E(RM062X) =  -764.546564815     A.U. after   12 cycles
 SCF Done:  E(RM062X) =  -764.546820487     A.U. after   13 cycles
 SCF Done:  E(RM062X) =  -764.546864316     A.U. after   12 cycles
 SCF Done:  E(RM062X) =  -764.546919757     A.U. after   13 cycles
 SCF Done:  E(RM062X) =  -764.546951420     A.U. after   12 cycles
 SCF Done:  E(RM062X) =  -764.546929682     A.U. after   12 cycles
 SCF Done:  E(RM062X) =  -764.552373597     A.U. after   13 cycles
 SCF Done:  E(RM062X) =  -764.552518937     A.U. after   12 cycles
 SCF Done:  E(RM062X) =  -764.552525327     A.U. after   11 cycles
 SCF Done:  E(RM062X) =  -764.552528420     A.U. after   11 cycles
 SCF Done:  E(RM062X) =  -764.552530085     A.U. after   10 cycles
 SCF Done:  E(RM062X) =  -764.552530839     A.U. after    9 cycles
 SCF Done:  E(RM062X) =  -764.552531154     A.U. after   10 cycles
 SCF Done:  E(RM062X) =  -764.552531288     A.U. after    7 cycles
 SCF Done:  E(RM062X) =  -764.552531350     A.U. after    7 cycles
 Optimization completed.
    -- Stationary point found.
 Normal termination of Gaussian 16 at Sat May 24 04:17:45 2025.

 ---------------------------------------------------------------------
 #P Geom=AllCheck Guess=TCheck SCRF=Check GenChk RM062X/def2TZVPP Freq
 ---------------------------------------------------------------------

 Structure from the checkpoint file:  "1642764945472630600001_r12_insertion_R_8_3_1_IRC_R_prod.chk"
 ------------------------------
 Gaussian input prepared by ASE
 ------------------------------
 Charge =  0 Multiplicity = 1

                          Input orientation:
 ---------------------------------------------------------------------
 Center     Atomic      Atomic             Coordinates (Angstroms)
 Number     Number       Type             X           Y           Z
 ---------------------------------------------------------------------
      1          6           0        1.795428    0.326951   -1.586554
      2          8           0        2.251870    0.767936   -2.571139
      3          6           0       -0.063596   -0.728402    0.780326
      4          6           0       -1.079774    0.427511    0.972603
      5          9           0       -2.132754    0.353523    0.175865
      6          9           0       -1.484130    0.332129    2.242161
      7          9           0       -0.479599    1.591431    0.798918
      8          9           0        0.445739    0.090440   -1.487922
      9          9           0       -0.755403   -1.772714    0.533529
     10          8           0        2.393160   -0.010406   -0.476019
     11          1           0        1.741123   -0.348047    0.183370
 ---------------------------------------------------------------------

 SCF Done:  E(RM062X) =  -764.552531350     A.U. after    1 cycles

 Isotropic polarizability for W=    0.000000       47.66 Bohr**3.
 End of Minotr F.D. properties file   721 does not exist.

                      1                      2                      3
                      A                      A                      A
 Frequencies --     30.3074                39.4503                67.0511
 Red. masses --     16.4299                17.9252                13.6888
 Frc consts  --      0.0089                 0.0164                 0.0363
 IR Inten    --      1.4929                 1.2094                 0.8443

                      4                      5                      6
                      A                      A                      A
 Frequencies --     72.8404                96.4552               143.4894
 Red. masses --     16.6230                15.6054                10.4165
 Frc consts  --      0.0520                 0.0855                 0.1264
 IR Inten    --      3.7475                 1.3375                10.1052

                      7                      8                      9
                      A                      A                      A
 Frequencies --    188.7344               256.3920               416.1490
 Red. masses --     16.3677                18.0641                14.1394
 Frc consts  --      0.3435                 0.6996                 1.4427
 IR Inten    --      7.1767                 1.3796                 3.3180

                     10                     11                     12
                      A                      A                      A
 Frequencies --    433.7449               549.2464               557.5551
 Red. masses --     15.9124                14.8062                15.2926
 Frc consts  --      1.7638                 2.6317                 2.8010
 IR Inten    --      1.7191                 9.3496                11.8597

                     13                     14                     15
                      A                      A                      A
 Frequencies --    589.2566               626.1911               710.4324
 Red. masses --      7.1278                13.5177                12.0105
 Frc consts  --      1.4582                 3.1230                 3.5715
 IR Inten    --      8.4447                 9.4063                40.4432

                     16                     17                     18
                      A                      A                      A
 Frequencies --    787.1625               805.1320               884.5718
 Red. masses --      3.7582                 1.4829                 7.9530
 Frc consts  --      1.3720                 0.5664                 3.6664
 IR Inten    --     70.1322                13.1641                 6.4998

                     19                     20                     21
                      A                      A                      A
 Frequencies --    903.6443              1219.4139              1251.6025
 Red. masses --     12.3523                13.2927                 4.5897
 Frc consts  --      5.9428                11.6457                 4.2361
 IR Inten    --    149.9154               283.5201               127.9121

                     22                     23                     24
                      A                      A                      A
 Frequencies --   1301.6936              1316.5387              1391.4625
 Red. masses --     12.6072                12.7550                 7.5254
 Frc consts  --     12.5859                13.0256                 8.5847
 IR Inten    --    181.7797               220.0959               250.3207

                     25                     26                     27
                      A                      A                      A
 Frequencies --   1429.2527              2011.9445              3335.6896
 Red. masses --      1.5297                11.2591                 1.0716
 Frc consts  --      1.8410                26.8526                 7.0249
 IR Inten    --    207.9738               752.2006               988.5283

 - Thermochemistry -
 -------------------
 Temperature   298.150 Kelvin.  Pressure   1.00000 Atm.
 Atom     1 has atomic number  6 and mass  12.00000

 Molecular mass:   163.98967 amu.
 Principal axes and moments of inertia in atomic units:
                           1         2         3
     Eigenvalues --   765.210382466.282972611.68696
           X            0.74697  -0.10592   0.65637
           Y            0.05435   0.99365   0.09850
           Z           -0.66263  -0.03790   0.74798
 This molecule is an asymmetric top.
 Rotational symmetry number  1.
 Warning -- assumption of classical behavior for rotation
           may cause significant error
 Rotational temperatures (Kelvin)      0.11319     0.03512     0.03316
 Rotational constants (GHZ):           2.35849     0.73177     0.69103
 Zero-point vibrational energy     128092.6 (Joules/Mol)
                                   30.61486 (Kcal/Mol)
 Warning -- explicit consideration of  13 degrees of freedom as
           vibrations may cause significant error
 Vibrational temperatures:     43.61    56.76    96.47   104.80   138.78
          (Kelvin)            206.45   271.55   368.89   598.75   624.06
                              790.24   802.20   847.81   900.95  1022.15
                             1132.55  1158.41  1272.70  1300.14  1754.46
                             1800.78  1872.85  1894.21  2002.00  2056.38
                             2894.74  4799.31

 Zero-point correction=                           0.048788 (Hartree/Particle)
 Thermal correction to Energy=                    0.059097
 Thermal correction to Enthalpy=                  0.060041
 Thermal correction to Gibbs Free Energy=         0.009843
 Sum of electronic and zero-point Energies=           -764.503743
 Sum of electronic and thermal Energies=              -764.493434
 Sum of electronic and thermal Enthalpies=            -764.492490
 Sum of electronic and thermal Free Energies=         -764.542688

                     E (Thermal)             CV                S
                      KCal/Mol        Cal/Mol-Kelvin    Cal/Mol-Kelvin
 Total                   37.084             32.470            105.650
 Electronic               0.000              0.000              0.000
 Translational            0.889              2.981             41.192
 Rotational               0.889              2.981             29.978
 Vibrational             35.307             26.508             34.479
 Vibration     1          0.594              1.984              5.809
 Vibration     2          0.594              1.981              5.287
 Vibration     3          0.598              1.970              4.238
 Vibration     4          0.599              1.967              4.075
 Vibration     5          0.603              1.952              3.525
 Vibration     6          0.616              1.910              2.757
 Vibration     7          0.633              1.855              2.240
 Vibration     8          0.666              1.752              1.686
 Vibration     9          0.779              1.435              0.905
 Vibration    10          0.794              1.397              0.847
 Vibration    11          0.905              1.141              0.546
 Vibration    12          0.913              1.123              0.529
 Vibration    13          0.947              1.055              0.469

 Optimization completed.
    -- Stationary point found.
 Normal termination of Gaussian 16 at Sat May 24 04:20:57 2025.
