 Gaussian 16, Revision C.01,
 Gaussian 16:  ES64L-G16RevC.01  3-Jul-2019

 ----------------------------------------------------------------------
 #P M062X/Def2TZVPP Symm(None) scf(xqc) pop(None) opt(NoFreeze,TS,CalcA
 ll,NoEigentest,MaxCycle=999)
 ----------------------------------------------------------------------

 ------------------------------
 Gaussian input prepared by ASE
 ------------------------------
 Symbolic Z-matrix:
 Charge =  0 Multiplicity = 1

 SCF Done:  E(RM062X) =  -764.409450974     A.U. after   15 cycles
 SCF Done:  E(RM062X) =  -764.435976212     A.U. after   16 cycles
 SCF Done:  E(RM062X) =  -764.457689577     A.U. after   14 cycles
 SCF Done:  E(RM062X) =  -764.471137935     A.U. after   15 cycles
 SCF Done:  E(RM062X) =  -764.474638237     A.U. after   15 cycles
 SCF Done:  E(RM062X) =  -764.478923674     A.U. after   15 cycles
 SCF Done:  E(RM062X) =  -764.483654821     A.U. after   14 cycles
 SCF Done:  E(RM062X) =  -764.485268894     A.U. after   14 cycles
 SCF Done:  E(RM062X) =  -764.485683074     A.U. after   13 cycles
 SCF Done:  E(RM062X) =  -764.488144790     A.U. after   15 cycles
 SCF Done:  E(RM062X) =  -764.500603858     A.U. after   15 cycles
 SCF Done:  E(RM062X) =  -764.513268966     A.U. after   14 cycles
 SCF Done:  E(RM062X) =  -764.522118012     A.U. after   14 cycles
 SCF Done:  E(RM062X) =  -764.525546916     A.U. after   16 cycles
 SCF Done:  E(RM062X) =  -764.527417899     A.U. after   14 cycles
 SCF Done:  E(RM062X) =  -764.528480009     A.U. after   14 cycles
 SCF Done:  E(RM062X) =  -764.529055523     A.U. after   13 cycles
 SCF Done:  E(RM062X) =  -764.529104246     A.U. after   12 cycles
 SCF Done:  E(RM062X) =  -764.529104604     A.U. after    8 cycles

 Isotropic polarizability for W=    0.000000       51.13 Bohr**3.
 End of Minotr F.D. properties file   721 does not exist.

 Optimization completed.
    -- Stationary point found.

                          Input orientation:
 ---------------------------------------------------------------------
 Center     Atomic      Atomic             Coordinates (Angstroms)
 Number     Number       Type             X           Y           Z
 ---------------------------------------------------------------------
      1          6           0        1.035484    0.635783    0.277255
      2          8           0        1.413912    1.795290    0.469270
      3          6           0       -0.064620    0.376769   -0.790849
      4          6           0       -0.016851    0.126417    1.533925
      5          9           0       -1.034149    0.964716    1.686514
      6          9           0       -0.506576   -1.108066    1.408046
      7          9           0        0.745431    0.167496    2.603788
      8          9           0       -0.937259    1.257450   -1.017474
      9          9           0       -0.415206   -0.762030   -1.214075
     10          8           0        1.928529   -0.431759    0.157179
     11          1           0        2.780803   -0.050662    0.398520
 ---------------------------------------------------------------------

 ******    1 imaginary frequencies (negative Signs) ******

                      1                      2                      3
                      A                      A                      A
 Frequencies --   -300.9848                49.7849               110.0202
 Red. masses --      8.3244                18.1200                14.7188
 Frc consts  --      0.4443                 0.0265                 0.1050
 IR Inten    --     90.5644                 0.2303                 2.0030

                      4                      5                      6
                      A                      A                      A
 Frequencies --    157.5962               200.9496               214.6466
 Red. masses --     11.6022                14.7199                14.8055
 Frc consts  --      0.1698                 0.3502                 0.4019
 IR Inten    --      3.2698                 0.4849                 1.7235

                      7                      8                      9
                      A                      A                      A
 Frequencies --    263.7496               280.3454               333.0665
 Red. masses --      2.1348                 4.1589                13.8343
 Frc consts  --      0.0875                 0.1926                 0.9042
 IR Inten    --     31.6475                28.6730                10.5241

                     10                     11                     12
                      A                      A                      A
 Frequencies --    361.9197               476.0371               515.9298
 Red. masses --      3.8632                14.7123                 9.5211
 Frc consts  --      0.2981                 1.9643                 1.4932
 IR Inten    --     13.2254                 4.7215                19.1179

                     13                     14                     15
                      A                      A                      A
 Frequencies --    550.0668               589.2747               631.6530
 Red. masses --      7.1176                15.6810                 9.3270
 Frc consts  --      1.2689                 3.2082                 2.1926
 IR Inten    --     55.8754                 3.7274                42.4427

                     16                     17                     18
                      A                      A                      A
 Frequencies --    676.5908               753.9279               763.1757
 Red. masses --     12.0276                15.7193                 9.6479
 Frc consts  --      3.2440                 5.2643                 3.3108
 IR Inten    --      0.5378                25.7290                 7.7711

                     19                     20                     21
                      A                      A                      A
 Frequencies --   1026.1074              1095.2346              1247.4617
 Red. masses --      5.7468                13.7240                12.9360
 Frc consts  --      3.5650                 9.6994                11.8606
 IR Inten    --    286.4581               397.2454               181.8250

                     22                     23                     24
                      A                      A                      A
 Frequencies --   1284.1612              1309.2160              1440.9004
 Red. masses --      2.3739                 3.7597                11.4732
 Frc consts  --      2.3065                 3.7968                14.0347
 IR Inten    --     38.2510               201.5597               270.3538

                     25                     26                     27
                      A                      A                      A
 Frequencies --   1482.0313              1586.0260              3852.8859
 Red. masses --     12.2726                 8.2556                 1.0654
 Frc consts  --     15.8819                12.2355                 9.3183
 IR Inten    --    271.5445               473.4402               130.3766

 - Thermochemistry -
 -------------------
 Temperature   298.150 Kelvin.  Pressure   1.00000 Atm.
 Atom     1 has atomic number  6 and mass  12.00000

 Molecular mass:   163.98967 amu.
 Principal axes and moments of inertia in atomic units:
                           1         2         3
     Eigenvalues --  1032.223851415.449311523.27056
           X            0.22044   0.95204  -0.21219
           Y           -0.05219   0.22874   0.97209
           Z            0.97400  -0.20321   0.10011
 This molecule is an asymmetric top.
 Rotational symmetry number  1.
 Warning -- assumption of classical behavior for rotation
           may cause significant error
 Rotational temperatures (Kelvin)      0.08391     0.06119     0.05686
 Rotational constants (GHZ):           1.74840     1.27503     1.18478
    1 imaginary frequencies ignored.
 Zero-point vibrational energy     127119.7 (Joules/Mol)
                                   30.38234 (Kcal/Mol)
 Warning -- explicit consideration of  13 degrees of freedom as
           vibrations may cause significant error
 Vibrational temperatures:     71.63   158.29   226.75   289.12   308.83
          (Kelvin)            379.48   403.35   479.21   520.72   684.91
                              742.31   791.42   847.83   908.81   973.46
                             1084.73  1098.04  1476.34  1575.80  1794.82
                             1847.62  1883.67  2073.13  2132.31  2281.94
                             5543.44

 Zero-point correction=                           0.048417 (Hartree/Particle)
 Thermal correction to Energy=                    0.057539
 Thermal correction to Enthalpy=                  0.058483
 Thermal correction to Gibbs Free Energy=         0.013556
 Sum of electronic and zero-point Energies=           -764.480687
 Sum of electronic and thermal Energies=              -764.471566
 Sum of electronic and thermal Enthalpies=            -764.470621
 Sum of electronic and thermal Free Energies=         -764.515548

                     E (Thermal)             CV                S
                      KCal/Mol        Cal/Mol-Kelvin    Cal/Mol-Kelvin
 Total                   36.106             31.373             94.556
 Electronic               0.000              0.000              0.000
 Translational            0.889              2.981             41.192
 Rotational               0.889              2.981             29.188
 Vibrational             34.329             25.411             24.175
 Vibration     1          0.595              1.978              4.826
 Vibration     2          0.606              1.941              3.269
 Vibration     3          0.621              1.894              2.578
 Vibration     4          0.638              1.839              2.124
 Vibration     5          0.645              1.819              2.004
 Vibration     6          0.670              1.739              1.637
 Vibration     7          0.680              1.710              1.532
 Vibration     8          0.715              1.609              1.245
 Vibration     9          0.736              1.551              1.114
 Vibration    10          0.833              1.303              0.721
 Vibration    11          0.871              1.215              0.619
 Vibration    12          0.905              1.140              0.544
 Vibration    13          0.947              1.055              0.468

 Normal termination of Gaussian 16 at Sat May 24 03:15:11 2025.
