 Gaussian 16, Revision C.01,
 Gaussian 16:  ES64L-G16RevC.01  3-Jul-2019

 -----------------------------------------------------------------
 #P M062X/Def2TZVPP Symm(None) scf(xqc) pop(None) freq opt(CalcFC)
 -----------------------------------------------------------------

 ------------------------------
 Gaussian input prepared by ASE
 ------------------------------
 Symbolic Z-matrix:
 Charge =  0 Multiplicity = 1

 SCF Done:  E(RM062X) =  -764.437914782     A.U. after   22 cycles
 SCF Done:  E(RM062X) =  -764.444419493     A.U. after   17 cycles
 SCF Done:  E(RM062X) =  -764.450910501     A.U. after   15 cycles
 SCF Done:  E(RM062X) =  -764.454386023     A.U. after   14 cycles
 SCF Done:  E(RM062X) =  -764.458464033     A.U. after   14 cycles
 SCF Done:  E(RM062X) =  -764.461908939     A.U. after   13 cycles
 SCF Done:  E(RM062X) =  -764.459729874     A.U. after   14 cycles
 SCF Done:  E(RM062X) =  -764.462161361     A.U. after   15 cycles
 SCF Done:  E(RM062X) =  -764.462559375     A.U. after   15 cycles
 SCF Done:  E(RM062X) =  -764.462369750     A.U. after   15 cycles
 SCF Done:  E(RM062X) =  -764.462692975     A.U. after   13 cycles
 SCF Done:  E(RM062X) =  -764.462708916     A.U. after   11 cycles
 SCF Done:  E(RM062X) =  -764.462707783     A.U. after    9 cycles
 SCF Done:  E(RM062X) =  -764.462709769     A.U. after    9 cycles
 SCF Done:  E(RM062X) =  -764.462710009     A.U. after    8 cycles
 Optimization completed.
    -- Stationary point found.
 Normal termination of Gaussian 16 at Sat May 24 08:21:25 2025.

 ---------------------------------------------------------------------
 #P Geom=AllCheck Guess=TCheck SCRF=Check GenChk RM062X/def2TZVPP Freq
 ---------------------------------------------------------------------

 Structure from the checkpoint file:  "1642764945472630600001_r13_insertion_ROR_11_10_1_2_IRC_R_prod.chk"
 ------------------------------
 Gaussian input prepared by ASE
 ------------------------------
 Charge =  0 Multiplicity = 1

                          Input orientation:
 ---------------------------------------------------------------------
 Center     Atomic      Atomic             Coordinates (Angstroms)
 Number     Number       Type             X           Y           Z
 ---------------------------------------------------------------------
      1          6           0       -1.416136    0.480718   -0.829572
      2          8           0       -3.320380    0.021226    0.236619
      3          6           0        0.121674    0.368905   -0.736882
      4          6           0        0.778144   -0.287533    0.495630
      5          9           0        2.097648   -0.281324    0.372413
      6          9           0        0.454511    0.377072    1.600515
      7          9           0        0.372006   -1.547275    0.619301
      8          9           0        0.518353   -0.329112   -1.811889
      9          9           0        0.599579    1.620091   -0.817262
     10          8           0       -1.878416   -0.029891    0.215738
     11          1           0       -3.484555   -0.406966    1.089614
 ---------------------------------------------------------------------

 SCF Done:  E(RM062X) =  -764.462710009     A.U. after    1 cycles

 Isotropic polarizability for W=    0.000000       50.76 Bohr**3.
 End of Minotr F.D. properties file   721 does not exist.

                      1                      2                      3
                      A                      A                      A
 Frequencies --     33.1575                84.2367               130.1455
 Red. masses --      6.2554                16.3352                10.0958
 Frc consts  --      0.0041                 0.0683                 0.1008
 IR Inten    --     15.7305                 0.1002                 1.8771

                      4                      5                      6
                      A                      A                      A
 Frequencies --    179.0837               210.3836               256.9420
 Red. masses --      1.7415                 4.8530                13.1431
 Frc consts  --      0.0329                 0.1266                 0.5112
 IR Inten    --    108.0699                 3.6920                 0.8761

                      7                      8                      9
                      A                      A                      A
 Frequencies --    263.5071               347.3610               375.8340
 Red. masses --      5.2903                16.0021                14.2076
 Frc consts  --      0.2164                 1.1376                 1.1824
 IR Inten    --      5.2055                 0.1331                 0.2999

                     10                     11                     12
                      A                      A                      A
 Frequencies --    389.8501               399.2720               505.8548
 Red. masses --     12.3493                16.7665                15.1563
 Frc consts  --      1.1058                 1.5748                 2.2851
 IR Inten    --      0.1249                 0.0030                 4.2456

                     13                     14                     15
                      A                      A                      A
 Frequencies --    542.5800               610.6142               662.3976
 Red. masses --     17.0864                17.4187                16.2297
 Frc consts  --      2.9637                 3.8265                 4.1956
 IR Inten    --      9.8248                 0.0591                13.6171

                     16                     17                     18
                      A                      A                      A
 Frequencies --    713.5495               808.6412               903.4673
 Red. masses --     12.7203                15.5913                11.6796
 Frc consts  --      3.8159                 6.0068                 5.6170
 IR Inten    --     77.1030                21.0699                61.5546

                     19                     20                     21
                      A                      A                      A
 Frequencies --   1111.1942              1230.0656              1241.7496
 Red. masses --     10.8132                13.1691                12.0860
 Frc consts  --      7.8666                11.7399                10.9800
 IR Inten    --    105.3657               125.9947               201.9117

                     22                     23                     24
                      A                      A                      A
 Frequencies --   1277.6777              1280.5145              1389.9068
 Red. masses --     13.1651                11.6573                 2.2778
 Frc consts  --     12.6624                11.2620                 2.5927
 IR Inten    --    335.6326               173.6696               117.4338

                     25                     26                     27
                      A                      A                      A
 Frequencies --   1399.3080              1512.9940              3805.5664
 Red. masses --      4.8287                 2.7896                 1.0677
 Frc consts  --      5.5706                 3.7624                 9.1105
 IR Inten    --     24.8239                22.4836               110.5547

 - Thermochemistry -
 -------------------
 Temperature   298.150 Kelvin.  Pressure   1.00000 Atm.
 Atom     1 has atomic number  6 and mass  12.00000

 Molecular mass:   163.98967 amu.
 Principal axes and moments of inertia in atomic units:
                           1         2         3
     Eigenvalues --   930.582721669.694911957.92812
           X            0.99887  -0.02805   0.03848
           Y           -0.04701  -0.45300   0.89027
           Z            0.00754   0.89107   0.45381
 This molecule is an asymmetric top.
 Rotational symmetry number  1.
 Warning -- assumption of classical behavior for rotation
           may cause significant error
 Rotational temperatures (Kelvin)      0.09307     0.05187     0.04424
 Rotational constants (GHZ):           1.93937     1.08088     0.92176
 Zero-point vibrational energy     129590.6 (Joules/Mol)
                                   30.97289 (Kcal/Mol)
 Warning -- explicit consideration of  14 degrees of freedom as
           vibrations may cause significant error
 Vibrational temperatures:     47.71   121.20   187.25   257.66   302.70
          (Kelvin)            369.68   379.13   499.77   540.74   560.91
                              574.46   727.81   780.65   878.54   953.04
                             1026.64  1163.45  1299.89  1598.76  1769.79
                             1786.60  1838.29  1842.37  1999.77  2013.29
                             2176.86  5475.36

 Zero-point correction=                           0.049358 (Hartree/Particle)
 Thermal correction to Energy=                    0.058947
 Thermal correction to Enthalpy=                  0.059891
 Thermal correction to Gibbs Free Energy=         0.013418
 Sum of electronic and zero-point Energies=           -764.413352
 Sum of electronic and thermal Energies=              -764.403763
 Sum of electronic and thermal Enthalpies=            -764.402819
 Sum of electronic and thermal Free Energies=         -764.449292

                     E (Thermal)             CV                S
                      KCal/Mol        Cal/Mol-Kelvin    Cal/Mol-Kelvin
 Total                   36.990             32.558             97.811
 Electronic               0.000              0.000              0.000
 Translational            0.889              2.981             41.192
 Rotational               0.889              2.981             29.499
 Vibrational             35.212             26.596             27.120
 Vibration     1          0.594              1.983              5.631
 Vibration     2          0.601              1.960              3.790
 Vibration     3          0.612              1.923              2.944
 Vibration     4          0.629              1.868              2.338
 Vibration     5          0.643              1.825              2.040
 Vibration     6          0.667              1.751              1.682
 Vibration     7          0.670              1.740              1.638
 Vibration     8          0.725              1.581              1.178
 Vibration     9          0.747              1.522              1.056
 Vibration    10          0.758              1.492              1.001
 Vibration    11          0.765              1.472              0.965
 Vibration    12          0.861              1.237              0.644
 Vibration    13          0.898              1.156              0.560
 Vibration    14          0.970              1.009              0.432

 Optimization completed.
    -- Stationary point found.
 Normal termination of Gaussian 16 at Sat May 24 08:24:42 2025.
