 Gaussian 16, Revision C.01,
 Gaussian 16:  ES64L-G16RevC.01  3-Jul-2019

 -----------------------------------------------------------------
 #P M062X/Def2TZVPP Symm(None) scf(xqc) pop(None) freq opt(CalcFC)
 -----------------------------------------------------------------

 ------------------------------
 Gaussian input prepared by ASE
 ------------------------------
 Symbolic Z-matrix:
 Charge =  0 Multiplicity = 1

 SCF Done:  E(RM062X) =  -764.638902955     A.U. after   13 cycles
 SCF Done:  E(RM062X) =  -764.660373509     A.U. after   14 cycles
 SCF Done:  E(RM062X) =  -764.662577381     A.U. after   14 cycles
 SCF Done:  E(RM062X) =  -764.664124510     A.U. after   15 cycles
 SCF Done:  E(RM062X) =  -764.665619398     A.U. after   12 cycles
 SCF Done:  E(RM062X) =  -764.667069331     A.U. after   13 cycles
 SCF Done:  E(RM062X) =  -764.667782281     A.U. after   13 cycles
 SCF Done:  E(RM062X) =  -764.668093371     A.U. after   12 cycles
 SCF Done:  E(RM062X) =  -764.668214462     A.U. after   11 cycles
 SCF Done:  E(RM062X) =  -764.668262332     A.U. after   11 cycles
 SCF Done:  E(RM062X) =  -764.668263465     A.U. after    8 cycles
 SCF Done:  E(RM062X) =  -764.668263746     A.U. after    8 cycles
 SCF Done:  E(RM062X) =  -764.668264451     A.U. after   10 cycles
 SCF Done:  E(RM062X) =  -764.668265119     A.U. after   11 cycles
 SCF Done:  E(RM062X) =  -764.668265498     A.U. after   10 cycles
 SCF Done:  E(RM062X) =  -764.668265636     A.U. after    9 cycles
 Optimization completed.
    -- Stationary point found.
 Normal termination of Gaussian 16 at Sat May 24 04:24:27 2025.

 ---------------------------------------------------------------------
 #P Geom=AllCheck Guess=TCheck SCRF=Check GenChk RM062X/def2TZVPP Freq
 ---------------------------------------------------------------------

 Structure from the checkpoint file:  "1642764945472630600001_r12_insertion_R_8_3_4_IRC_F_prod.chk"
 ------------------------------
 Gaussian input prepared by ASE
 ------------------------------
 Charge =  0 Multiplicity = 1

                          Input orientation:
 ---------------------------------------------------------------------
 Center     Atomic      Atomic             Coordinates (Angstroms)
 Number     Number       Type             X           Y           Z
 ---------------------------------------------------------------------
      1          6           0        1.424067    0.040026   -0.673621
      2          8           0        2.362736   -0.657397   -0.465463
      3          6           0       -0.032009   -0.431829   -0.469127
      4          6           0       -0.682782    0.177417    0.791981
      5          9           0       -0.834813    1.486321    0.654883
      6          9           0       -1.868744   -0.372443    0.997036
      7          9           0        0.091252   -0.056090    1.846429
      8          9           0       -0.783219   -0.095694   -1.528663
      9          9           0       -0.039615   -1.757464   -0.331209
     10          8           0        1.451525    1.301467   -1.091300
     11          1           0        2.375595    1.568290   -1.195184
 ---------------------------------------------------------------------

 SCF Done:  E(RM062X) =  -764.668265636     A.U. after    1 cycles

 Isotropic polarizability for W=    0.000000       43.88 Bohr**3.
 End of Minotr F.D. properties file   721 does not exist.

                      1                      2                      3
                      A                      A                      A
 Frequencies --     15.4939                64.7547               144.3438
 Red. masses --     12.9291                16.5101                10.2516
 Frc consts  --      0.0018                 0.0408                 0.1258
 IR Inten    --      1.4389                 0.3977                 1.0142

                      4                      5                      6
                      A                      A                      A
 Frequencies --    216.6183               248.2786               287.3507
 Red. masses --     17.2606                12.1838                14.6457
 Frc consts  --      0.4772                 0.4425                 0.7125
 IR Inten    --      1.5331                 1.1882                 1.3484

                      7                      8                      9
                      A                      A                      A
 Frequencies --    360.0840               379.6642               384.4504
 Red. masses --     16.5513                15.3630                13.7887
 Frc consts  --      1.2644                 1.3047                 1.2008
 IR Inten    --      0.3617                 0.9042                 0.5725

                     10                     11                     12
                      A                      A                      A
 Frequencies --    503.0797               548.6767               552.7874
 Red. masses --      7.8763                 5.0711                 2.9693
 Frc consts  --      1.1745                 0.8995                 0.5346
 IR Inten    --      5.7489                18.1129                18.6506

                     13                     14                     15
                      A                      A                      A
 Frequencies --    616.4813               636.8485               692.6809
 Red. masses --      6.8975                 3.1944                 4.5605
 Frc consts  --      1.5445                 0.7633                 1.2892
 IR Inten    --     17.2048                75.1543               101.4279

                     16                     17                     18
                      A                      A                      A
 Frequencies --    789.3590               797.7563              1062.5927
 Red. masses --     12.2493                 8.6751                11.6984
 Frc consts  --      4.4969                 3.2528                 7.7824
 IR Inten    --      2.6686                21.2331               123.9623

                     19                     20                     21
                      A                      A                      A
 Frequencies --   1186.7860              1229.0935              1276.4162
 Red. masses --      3.0272                 4.3215                10.5759
 Frc consts  --      2.5121                 3.8464                10.1520
 IR Inten    --    245.8383               187.6199                44.1262

                     22                     23                     24
                      A                      A                      A
 Frequencies --   1290.3088              1296.5529              1381.8360
 Red. masses --     13.2224                 7.5299                 7.9034
 Frc consts  --     12.9702                 7.4579                 8.8915
 IR Inten    --    361.6442               142.1898               127.6565

                     25                     26                     27
                      A                      A                      A
 Frequencies --   1435.6612              1920.9276              3807.0776
 Red. masses --      5.1618                11.7454                 1.0646
 Frc consts  --      6.2683                25.5352                 9.0914
 IR Inten    --     55.2679               331.1542               130.0692

 - Thermochemistry -
 -------------------
 Temperature   298.150 Kelvin.  Pressure   1.00000 Atm.
 Atom     1 has atomic number  6 and mass  12.00000

 Molecular mass:   163.98967 amu.
 Principal axes and moments of inertia in atomic units:
                           1         2         3
     Eigenvalues --   948.172601519.636581603.64129
           X            0.83510   0.18192   0.51915
           Y           -0.01971   0.95302  -0.30225
           Z           -0.54974   0.24218   0.79946
 This molecule is an asymmetric top.
 Rotational symmetry number  1.
 Warning -- assumption of classical behavior for rotation
           may cause significant error
 Rotational temperatures (Kelvin)      0.09135     0.05700     0.05401
 Rotational constants (GHZ):           1.90339     1.18761     1.12540
 Zero-point vibrational energy     138324.0 (Joules/Mol)
                                   33.06022 (Kcal/Mol)
 Warning -- explicit consideration of  13 degrees of freedom as
           vibrations may cause significant error
 Vibrational temperatures:     22.29    93.17   207.68   311.67   357.22
          (Kelvin)            413.43   518.08   546.25   553.14   723.82
                              789.42   795.34   886.98   916.28   996.61
                             1135.71  1147.79  1528.83  1707.52  1768.39
                             1836.48  1856.47  1865.45  1988.15  2065.60
                             2763.79  5477.54

 Zero-point correction=                           0.052685 (Hartree/Particle)
 Thermal correction to Energy=                    0.061630
 Thermal correction to Enthalpy=                  0.062574
 Thermal correction to Gibbs Free Energy=         0.016686
 Sum of electronic and zero-point Energies=           -764.615581
 Sum of electronic and thermal Energies=              -764.606636
 Sum of electronic and thermal Enthalpies=            -764.605692
 Sum of electronic and thermal Free Energies=         -764.651580

                     E (Thermal)             CV                S
                      KCal/Mol        Cal/Mol-Kelvin    Cal/Mol-Kelvin
 Total                   38.673             30.714             96.579
 Electronic               0.000              0.000              0.000
 Translational            0.889              2.981             41.192
 Rotational               0.889              2.981             29.226
 Vibrational             36.896             24.752             26.161
 Vibration     1          0.593              1.986              7.141
 Vibration     2          0.597              1.971              4.307
 Vibration     3          0.616              1.909              2.745
 Vibration     4          0.645              1.816              1.987
 Vibration     5          0.662              1.766              1.743
 Vibration     6          0.685              1.697              1.490
 Vibration     7          0.735              1.554              1.122
 Vibration     8          0.750              1.514              1.041
 Vibration     9          0.753              1.503              1.022
 Vibration    10          0.858              1.243              0.650
 Vibration    11          0.904              1.143              0.547
 Vibration    12          0.908              1.134              0.538
 Vibration    13          0.976              0.997              0.422

                           ! Non-Optimized Parameters !
 Normal termination of Gaussian 16 at Sat May 24 04:28:06 2025.
