 Gaussian 16, Revision C.01,
 Gaussian 16:  ES64L-G16RevC.01  3-Jul-2019

 ----------------------------------------------------------------------
 #P M062X/Def2TZVPP Symm(None) scf(xqc) pop(None) geom(AllCheck,NoKeepC
 onstants) guess(Read) irc(RCFC,forward,MaxPoints=100,StepSize=2)
 ----------------------------------------------------------------------

 Structure from the checkpoint file:  "1642764945472630600001_r12_insertion_R_10_1_2_IRC_F.chk"
 ------------------------------
 Gaussian input prepared by ASE
 ------------------------------
 Charge =  0 Multiplicity = 1

 SCF Done:  E(RM062X) =  -764.390701484     A.U. after   15 cycles
 SCF Done:  E(RM062X) =  -764.390866779     A.U. after   16 cycles
 SCF Done:  E(RM062X) =  -764.392411801     A.U. after   14 cycles
 SCF Done:  E(RM062X) =  -764.393897277     A.U. after   15 cycles
 SCF Done:  E(RM062X) =  -764.395320934     A.U. after   15 cycles
 SCF Done:  E(RM062X) =  -764.396686530     A.U. after   14 cycles
 SCF Done:  E(RM062X) =  -764.397996115     A.U. after   13 cycles
 SCF Done:  E(RM062X) =  -764.399251211     A.U. after   13 cycles
 SCF Done:  E(RM062X) =  -764.400452841     A.U. after   12 cycles
 SCF Done:  E(RM062X) =  -764.401601580     A.U. after   12 cycles
 SCF Done:  E(RM062X) =  -764.413540275     A.U. after   11 cycles
 SCF Done:  E(RM062X) =  -764.413579138     A.U. after   10 cycles
 SCF Done:  E(RM062X) =  -764.413611394     A.U. after   10 cycles
 SCF Done:  E(RM062X) =  -764.413637878     A.U. after   10 cycles
 SCF Done:  E(RM062X) =  -764.413659481     A.U. after   10 cycles
 SCF Done:  E(RM062X) =  -764.413677062     A.U. after   10 cycles
 SCF Done:  E(RM062X) =  -764.413691354     A.U. after   10 cycles
 SCF Done:  E(RM062X) =  -764.413702955     A.U. after   10 cycles
 SCF Done:  E(RM062X) =  -764.413712393     A.U. after   10 cycles
 SCF Done:  E(RM062X) =  -764.413720191     A.U. after   10 cycles

                          Input orientation:
 ---------------------------------------------------------------------
 Center     Atomic      Atomic             Coordinates (Angstroms)
 Number     Number       Type             X           Y           Z
 ---------------------------------------------------------------------
      1          6           0        1.176811   -0.860978   -0.506562
      2          8           0        2.201013    0.104112   -0.276437
      3          6           0       -0.156723   -0.089372   -0.498301
      4          6           0       -0.724706    0.013832    0.927969
      5          9           0       -1.865597    0.688531    0.921761
      6          9           0       -0.943801   -1.192162    1.425244
      7          9           0        0.144647    0.650939    1.707181
      8          9           0       -0.066242    1.191531   -0.982692
      9          9           0       -1.042662   -0.729869   -1.272224
     10          8           0        1.965481   -0.165609   -1.678916
     11          1           0        1.498331    0.653184   -1.949015
 ---------------------------------------------------------------------

 Normal termination of Gaussian 16 at Sat May 24 05:25:50 2025.
