 Gaussian 16, Revision C.01,
 Gaussian 16:  ES64L-G16RevC.01  3-Jul-2019

 -----------------------------------------------------------------
 #P M062X/Def2TZVPP Symm(None) scf(xqc) pop(None) freq opt(CalcFC)
 -----------------------------------------------------------------

 ------------------------------
 Gaussian input prepared by ASE
 ------------------------------
 Symbolic Z-matrix:
 Charge =  0 Multiplicity = 1

 SCF Done:  E(RM062X) =  -764.648377760     A.U. after   13 cycles
 SCF Done:  E(RM062X) =  -764.650004995     A.U. after   14 cycles
 SCF Done:  E(RM062X) =  -764.653461895     A.U. after   14 cycles
 SCF Done:  E(RM062X) =  -764.655196913     A.U. after   13 cycles
 SCF Done:  E(RM062X) =  -764.657858453     A.U. after   14 cycles
 SCF Done:  E(RM062X) =  -764.659571316     A.U. after   14 cycles
 SCF Done:  E(RM062X) =  -764.661220067     A.U. after   14 cycles
 SCF Done:  E(RM062X) =  -764.662888928     A.U. after   14 cycles
 SCF Done:  E(RM062X) =  -764.663745032     A.U. after   13 cycles
 SCF Done:  E(RM062X) =  -764.663969228     A.U. after   13 cycles
 SCF Done:  E(RM062X) =  -764.664412105     A.U. after   13 cycles
 SCF Done:  E(RM062X) =  -764.664541864     A.U. after   12 cycles
 SCF Done:  E(RM062X) =  -764.664555049     A.U. after    9 cycles
 SCF Done:  E(RM062X) =  -764.664555438     A.U. after    8 cycles
 SCF Done:  E(RM062X) =  -764.664555953     A.U. after    8 cycles
 SCF Done:  E(RM062X) =  -764.664556779     A.U. after    9 cycles
 SCF Done:  E(RM062X) =  -764.664558001     A.U. after    9 cycles
 SCF Done:  E(RM062X) =  -764.664559527     A.U. after   11 cycles
 SCF Done:  E(RM062X) =  -764.664560029     A.U. after    7 cycles
 Optimization completed.
    -- Stationary point found.
 Normal termination of Gaussian 16 at Sat May 24 07:31:02 2025.

 ---------------------------------------------------------------------
 #P Geom=AllCheck Guess=TCheck SCRF=Check GenChk RM062X/def2TZVPP Freq
 ---------------------------------------------------------------------

 Structure from the checkpoint file:  "1642764945472630600001_r12_insertion_R_5_4_7_IRC_R_prod.chk"
 ------------------------------
 Gaussian input prepared by ASE
 ------------------------------
 Charge =  0 Multiplicity = 1

                          Input orientation:
 ---------------------------------------------------------------------
 Center     Atomic      Atomic             Coordinates (Angstroms)
 Number     Number       Type             X           Y           Z
 ---------------------------------------------------------------------
      1          6           0        1.437175    0.071192   -0.513365
      2          8           0        2.299272   -0.526736    0.037175
      3          6           0       -0.045823   -0.335618   -0.323286
      4          6           0       -0.595870    0.112722    1.045656
      5          9           0       -0.427294    1.428939    1.166153
      6          9           0       -1.888233   -0.161541    1.126463
      7          9           0        0.039459   -0.496001    2.028500
      8          9           0       -0.815900    0.250730   -1.271190
      9          9           0       -0.172694   -1.656533   -0.426568
     10          8           0        1.639215    1.122304   -1.301045
     11          1           0        0.813444    1.441528   -1.684834
 ---------------------------------------------------------------------

 SCF Done:  E(RM062X) =  -764.664560029     A.U. after    1 cycles

 Isotropic polarizability for W=    0.000000       43.65 Bohr**3.
 End of Minotr F.D. properties file   721 does not exist.

                      1                      2                      3
                      A                      A                      A
 Frequencies --     28.0525                63.9562               142.3739
 Red. masses --      9.1562                15.1666                16.6749
 Frc consts  --      0.0042                 0.0366                 0.1991
 IR Inten    --      4.4703                 0.8024                 2.3446

                      4                      5                      6
                      A                      A                      A
 Frequencies --    214.4387               265.1396               292.8474
 Red. masses --     16.9165                13.3616                17.4352
 Frc consts  --      0.4583                 0.5534                 0.8810
 IR Inten    --      3.9824                 6.0341                 5.8931

                      7                      8                      9
                      A                      A                      A
 Frequencies --    360.1083               376.0497               394.9108
 Red. masses --     16.5839                 9.3647                16.1987
 Frc consts  --      1.2671                 0.7802                 1.4884
 IR Inten    --      0.5003                 6.7817                 2.3689

                     10                     11                     12
                      A                      A                      A
 Frequencies --    513.2158               518.9772               548.5600
 Red. masses --      1.8869                 2.8507                10.1890
 Frc consts  --      0.2928                 0.4524                 1.8065
 IR Inten    --     92.7609                26.0598                13.3471

                     13                     14                     15
                      A                      A                      A
 Frequencies --    592.8298               625.1087               710.1431
 Red. masses --      9.2755                14.4970                 9.1504
 Frc consts  --      1.9206                 3.3376                 2.7188
 IR Inten    --      5.7622                 2.9093                33.7524

                     16                     17                     18
                      A                      A                      A
 Frequencies --    781.1322               798.1981              1055.4914
 Red. masses --     12.2071                13.0566                13.3035
 Frc consts  --      4.3884                 4.9012                 8.7323
 IR Inten    --      1.4443                15.2289               146.0690

                     19                     20                     21
                      A                      A                      A
 Frequencies --   1176.6736              1246.8134              1266.8319
 Red. masses --      4.8943                 2.1537                11.7089
 Frc consts  --      3.9925                 1.9726                11.0714
 IR Inten    --     93.8851               127.7236               296.6002

                     22                     23                     24
                      A                      A                      A
 Frequencies --   1280.6618              1310.3117              1376.0955
 Red. masses --      5.7832                13.1224                 6.7813
 Frc consts  --      5.5884                13.2743                 7.5659
 IR Inten    --     71.3812               263.1784               327.6850

                     25                     26                     27
                      A                      A                      A
 Frequencies --   1412.9923              1942.7525              3839.0340
 Red. masses --      6.4128                11.5017                 1.0658
 Frc consts  --      7.5436                25.5769                 9.2545
 IR Inten    --     88.9663               292.8142               138.0401

 - Thermochemistry -
 -------------------
 Temperature   298.150 Kelvin.  Pressure   1.00000 Atm.
 Atom     1 has atomic number  6 and mass  12.00000

 Molecular mass:   163.98967 amu.
 Principal axes and moments of inertia in atomic units:
                           1         2         3
     Eigenvalues --   948.883811534.542721591.49557
           X            0.78131   0.62397  -0.01479
           Y            0.05603  -0.04652   0.99735
           Z           -0.62162   0.78007   0.07130
 This molecule is an asymmetric top.
 Rotational symmetry number  1.
 Warning -- assumption of classical behavior for rotation
           may cause significant error
 Rotational temperatures (Kelvin)      0.09128     0.05644     0.05442
 Rotational constants (GHZ):           1.90196     1.17608     1.13399
 Zero-point vibrational energy     138370.3 (Joules/Mol)
                                   33.07128 (Kcal/Mol)
 Warning -- explicit consideration of  13 degrees of freedom as
           vibrations may cause significant error
 Vibrational temperatures:     40.36    92.02   204.84   308.53   381.48
          (Kelvin)            421.34   518.12   541.05   568.19   738.40
                              746.69   789.26   852.95   899.39  1021.74
                             1123.87  1148.43  1518.62  1692.97  1793.89
                             1822.69  1842.59  1885.25  1979.89  2032.98
                             2795.19  5523.51

 Zero-point correction=                           0.052702 (Hartree/Particle)
 Thermal correction to Energy=                    0.061622
 Thermal correction to Enthalpy=                  0.062566
 Thermal correction to Gibbs Free Energy=         0.017240
 Sum of electronic and zero-point Energies=           -764.611858
 Sum of electronic and thermal Energies=              -764.602938
 Sum of electronic and thermal Enthalpies=            -764.601994
 Sum of electronic and thermal Free Energies=         -764.647321

                     E (Thermal)             CV                S
                      KCal/Mol        Cal/Mol-Kelvin    Cal/Mol-Kelvin
 Total                   38.668             30.785             95.398
 Electronic               0.000              0.000              0.000
 Translational            0.889              2.981             41.192
 Rotational               0.889              2.981             29.229
 Vibrational             36.891             24.824             24.977
 Vibration     1          0.593              1.984              5.963
 Vibration     2          0.597              1.972              4.331
 Vibration     3          0.616              1.911              2.772
 Vibration     4          0.644              1.819              2.006
 Vibration     5          0.671              1.737              1.628
 Vibration     6          0.688              1.687              1.457
 Vibration     7          0.735              1.554              1.122
 Vibration     8          0.747              1.521              1.055
 Vibration     9          0.762              1.481              0.982
 Vibration    10          0.868              1.221              0.626
 Vibration    11          0.874              1.208              0.612
 Vibration    12          0.904              1.143              0.547
 Vibration    13          0.950              1.047              0.462

 Optimization completed.
    -- Stationary point found.
 Normal termination of Gaussian 16 at Sat May 24 07:34:18 2025.
