 Gaussian 16, Revision C.01,
 Gaussian 16:  ES64L-G16RevC.01  3-Jul-2019

 ----------------------------------------------------------------------
 #P M062X/Def2TZVPP Symm(None) scf(xqc) pop(None) geom(AllCheck,NoKeepC
 onstants) guess(Read) irc(RCFC,reverse,MaxPoints=100,StepSize=2)
 ----------------------------------------------------------------------

 Structure from the checkpoint file:  "1642764945472630600001_r13_insertion_ROR_11_10_1_2_IRC_R.chk"
 ------------------------------
 Gaussian input prepared by ASE
 ------------------------------
 Charge =  0 Multiplicity = 1

 SCF Done:  E(RM062X) =  -764.437914783     A.U. after   10 cycles

                          Input orientation:
 ---------------------------------------------------------------------
 Center     Atomic      Atomic             Coordinates (Angstroms)
 Number     Number       Type             X           Y           Z
 ---------------------------------------------------------------------
      1          6           0       -1.316249    0.174910   -0.228260
      2          8           0       -3.668346    0.168042    0.087124
      3          6           0        0.151714    0.319171   -0.631043
      4          6           0        1.117967   -0.241403    0.442314
      5          9           0        2.366876   -0.066382    0.048307
      6          9           0        0.923067    0.398035    1.584987
      7          9           0        0.889251   -1.532362    0.615918
      8          9           0        0.320864   -0.356458   -1.762584
      9          9           0        0.422201    1.604594   -0.816111
     10          8           0       -1.859377   -0.409351    0.585027
     11          1           0       -4.505540   -0.072885    0.508544
 ---------------------------------------------------------------------

 Normal termination of Gaussian 16 at Sat May 24 08:08:34 2025.
