 Gaussian 16, Revision C.01,
 Gaussian 16:  ES64L-G16RevC.01  3-Jul-2019

 ----------------------------------------------------------------------
 #P M062X/Def2TZVPP Symm(None) scf(xqc) pop(None) geom(AllCheck,NoKeepC
 onstants) guess(Read) irc(RCFC,reverse,MaxPoints=100,StepSize=2)
 ----------------------------------------------------------------------

 Structure from the checkpoint file:  "1642764945472630600001_r13_insertion_ROR_4_3_1_10_IRC_R.chk"
 ------------------------------
 Gaussian input prepared by ASE
 ------------------------------
 Charge =  0 Multiplicity = 1

 SCF Done:  E(RM062X) =  -764.464758939     A.U. after   11 cycles
 SCF Done:  E(RM062X) =  -764.464854915     A.U. after   13 cycles
 SCF Done:  E(RM062X) =  -764.465012235     A.U. after   13 cycles
 SCF Done:  E(RM062X) =  -764.465228676     A.U. after   13 cycles
 SCF Done:  E(RM062X) =  -764.465501990     A.U. after   13 cycles
 SCF Done:  E(RM062X) =  -764.465829913     A.U. after   13 cycles
 SCF Done:  E(RM062X) =  -764.466210177     A.U. after   13 cycles
 SCF Done:  E(RM062X) =  -764.466640528     A.U. after   13 cycles
 SCF Done:  E(RM062X) =  -764.467118729     A.U. after   13 cycles
 SCF Done:  E(RM062X) =  -764.467642573     A.U. after   13 cycles
 SCF Done:  E(RM062X) =  -764.552265025     A.U. after   10 cycles
 SCF Done:  E(RM062X) =  -764.553364299     A.U. after   10 cycles
 SCF Done:  E(RM062X) =  -764.554463025     A.U. after   10 cycles
 SCF Done:  E(RM062X) =  -764.555561204     A.U. after   10 cycles
 SCF Done:  E(RM062X) =  -764.556658841     A.U. after   10 cycles
 SCF Done:  E(RM062X) =  -764.557755934     A.U. after   10 cycles
 SCF Done:  E(RM062X) =  -764.558852483     A.U. after   10 cycles
 SCF Done:  E(RM062X) =  -764.559948483     A.U. after   10 cycles
 SCF Done:  E(RM062X) =  -764.561043925     A.U. after   10 cycles
 SCF Done:  E(RM062X) =  -764.562138801     A.U. after   10 cycles

                          Input orientation:
 ---------------------------------------------------------------------
 Center     Atomic      Atomic             Coordinates (Angstroms)
 Number     Number       Type             X           Y           Z
 ---------------------------------------------------------------------
      1          6           0        1.117941    0.871041    0.110997
      2          8           0        1.577926    1.574350   -0.730924
      3          6           0        0.850273   -0.578713   -0.050137
      4          6           0       -1.126193   -0.072788   -0.087216
      5          9           0       -1.602967   -1.201130    0.370861
      6          9           0       -1.844989    0.874766    0.577060
      7          9           0       -1.343611    0.236909   -1.350618
      8          9           0        1.553357   -1.150549   -1.036136
      9          9           0        0.951540   -1.397952    0.977981
     10          8           0        0.480447    1.254527    1.220348
     11          1           0        0.412150    2.217510    1.233814
 ---------------------------------------------------------------------

 Normal termination of Gaussian 16 at Sat May 24 07:10:40 2025.
