 Gaussian 16, Revision C.01,
 Gaussian 16:  ES64L-G16RevC.01  3-Jul-2019

 -----------------------------------------------------------------
 #P M062X/Def2TZVPP Symm(None) scf(xqc) pop(None) freq opt(CalcFC)
 -----------------------------------------------------------------

 ------------------------------
 Gaussian input prepared by ASE
 ------------------------------
 Symbolic Z-matrix:
 Charge =  0 Multiplicity = 1

 SCF Done:  E(RM062X) =  -764.488290171     A.U. after   14 cycles
 SCF Done:  E(RM062X) =  -764.490564772     A.U. after   15 cycles
 SCF Done:  E(RM062X) =  -764.490898482     A.U. after   14 cycles
 SCF Done:  E(RM062X) =  -764.491090747     A.U. after   12 cycles
 SCF Done:  E(RM062X) =  -764.491197513     A.U. after   13 cycles
 SCF Done:  E(RM062X) =  -764.491238586     A.U. after   12 cycles
 SCF Done:  E(RM062X) =  -764.491249827     A.U. after   11 cycles
 SCF Done:  E(RM062X) =  -764.491250299     A.U. after    9 cycles
 SCF Done:  E(RM062X) =  -764.491250354     A.U. after    7 cycles
 Optimization completed.
    -- Stationary point found.
 Normal termination of Gaussian 16 at Sat May 24 06:01:44 2025.

 ---------------------------------------------------------------------
 #P Geom=AllCheck Guess=TCheck SCRF=Check GenChk RM062X/def2TZVPP Freq
 ---------------------------------------------------------------------

 Structure from the checkpoint file:  "1642764945472630600001_ketoenol_2_1_3_8_IRC_R_prod.chk"
 ------------------------------
 Gaussian input prepared by ASE
 ------------------------------
 Charge =  0 Multiplicity = 1

                          Input orientation:
 ---------------------------------------------------------------------
 Center     Atomic      Atomic             Coordinates (Angstroms)
 Number     Number       Type             X           Y           Z
 ---------------------------------------------------------------------
      1          6           0        0.000113   -0.906750    0.901946
      2          8           0       -1.006845   -1.530951    0.261330
      3          6           0        0.354986    0.318055    0.517202
      4          6           0       -0.076740    1.063367   -0.717943
      5          9           0       -0.930065    2.042236   -0.405431
      6          9           0        0.990147    1.633381   -1.278486
      7          9           0       -0.652372    0.283151   -1.619047
      8          9           0       -0.434776   -2.701098   -0.331082
      9          9           0        1.163322    1.038871    1.282092
     10          8           0        0.545779   -1.513620    1.957341
     11          1           0       -0.013582   -2.250848    2.227802
 ---------------------------------------------------------------------

 SCF Done:  E(RM062X) =  -764.491250354     A.U. after    1 cycles

 Isotropic polarizability for W=    0.000000       51.23 Bohr**3.
 End of Minotr F.D. properties file   721 does not exist.

                      1                      2                      3
                      A                      A                      A
 Frequencies --     26.3022                80.6605               103.1665
 Red. masses --     18.5524                16.1507                15.0270
 Frc consts  --      0.0076                 0.0619                 0.0942
 IR Inten    --      0.1848                 1.7508                 1.6340

                      4                      5                      6
                      A                      A                      A
 Frequencies --    194.6690               212.0219               252.1550
 Red. masses --     13.2667                 2.1367                 2.0144
 Frc consts  --      0.2962                 0.0566                 0.0755
 IR Inten    --      0.1371                39.6021                65.7788

                      7                      8                      9
                      A                      A                      A
 Frequencies --    270.4574               326.8081               368.1865
 Red. masses --     13.1396                10.7039                13.5675
 Frc consts  --      0.5663                 0.6736                 1.0836
 IR Inten    --      4.5120                 2.8453                 0.6109

                     10                     11                     12
                      A                      A                      A
 Frequencies --    375.7976               496.9894               512.7282
 Red. masses --     12.1724                16.4728                13.2628
 Frc consts  --      1.0128                 2.3972                 2.0543
 IR Inten    --      0.7980                 1.8206                 5.4399

                     13                     14                     15
                      A                      A                      A
 Frequencies --    594.3838               612.7078               683.4238
 Red. masses --      8.8060                13.6609                10.4983
 Frc consts  --      1.8330                 3.0216                 2.8890
 IR Inten    --     21.8323                 2.0864                21.4898

                     16                     17                     18
                      A                      A                      A
 Frequencies --    751.5844               819.1422               899.6352
 Red. masses --     14.5370                11.8824                15.5922
 Frc consts  --      4.8382                 4.6976                 7.4352
 IR Inten    --     51.1991                34.2587               102.7834

                     19                     20                     21
                      A                      A                      A
 Frequencies --   1048.1135              1188.6408              1225.2645
 Red. masses --      8.7638                 2.9086                12.9938
 Frc consts  --      5.6723                 2.4213                11.4934
 IR Inten    --    244.2335                19.2952               296.5393

                     22                     23                     24
                      A                      A                      A
 Frequencies --   1279.7078              1306.3455              1376.5488
 Red. masses --     12.6464                 2.2845                 8.7148
 Frc consts  --     12.2022                 2.2970                 9.7295
 IR Inten    --    320.6426                87.3817               215.7090

                     25                     26                     27
                      A                      A                      A
 Frequencies --   1418.5227              1842.7852              3853.4013
 Red. masses --     10.7725                 9.6995                 1.0657
 Frc consts  --     12.7715                19.4066                 9.3235
 IR Inten    --    264.2343                87.8145               167.3924

 - Thermochemistry -
 -------------------
 Temperature   298.150 Kelvin.  Pressure   1.00000 Atm.
 Atom     1 has atomic number  6 and mass  12.00000

 Molecular mass:   163.98967 amu.
 Principal axes and moments of inertia in atomic units:
                           1         2         3
     Eigenvalues --   913.287711757.062362280.84574
           X            0.07631   0.51054   0.85646
           Y            0.92570   0.28289  -0.25111
           Z           -0.37049   0.81199  -0.45102
 This molecule is an asymmetric top.
 Rotational symmetry number  1.
 Warning -- assumption of classical behavior for rotation
           may cause significant error
 Rotational temperatures (Kelvin)      0.09484     0.04929     0.03797
 Rotational constants (GHZ):           1.97609     1.02714     0.79126
 Zero-point vibrational energy     132307.9 (Joules/Mol)
                                   31.62234 (Kcal/Mol)
 Warning -- explicit consideration of  14 degrees of freedom as
           vibrations may cause significant error
 Vibrational temperatures:     37.84   116.05   148.43   280.09   305.05
          (Kelvin)            362.79   389.13   470.20   529.74   540.69
                              715.06   737.70   855.19   881.55   983.29
                             1081.36  1178.56  1294.37  1508.00  1710.19
                             1762.88  1841.21  1879.54  1980.55  2040.94
                             2651.36  5544.19

 Zero-point correction=                           0.050393 (Hartree/Particle)
 Thermal correction to Energy=                    0.059929
 Thermal correction to Enthalpy=                  0.060873
 Thermal correction to Gibbs Free Energy=         0.014066
 Sum of electronic and zero-point Energies=           -764.440857
 Sum of electronic and thermal Energies=              -764.431322
 Sum of electronic and thermal Enthalpies=            -764.430378
 Sum of electronic and thermal Free Energies=         -764.477184

                     E (Thermal)             CV                S
                      KCal/Mol        Cal/Mol-Kelvin    Cal/Mol-Kelvin
 Total                   37.606             32.203             98.513
 Electronic               0.000              0.000              0.000
 Translational            0.889              2.981             41.192
 Rotational               0.889              2.981             29.683
 Vibrational             35.828             26.241             27.638
 Vibration     1          0.593              1.985              6.090
 Vibration     2          0.600              1.962              3.875
 Vibration     3          0.605              1.947              3.394
 Vibration     4          0.635              1.847              2.183
 Vibration     5          0.643              1.823              2.026
 Vibration     6          0.664              1.759              1.715
 Vibration     7          0.674              1.728              1.593
 Vibration     8          0.710              1.622              1.276
 Vibration     9          0.741              1.538              1.087
 Vibration    10          0.747              1.522              1.056
 Vibration    11          0.853              1.257              0.666
 Vibration    12          0.868              1.222              0.627
 Vibration    13          0.952              1.044              0.459
 Vibration    14          0.972              1.005              0.428

 Optimization completed.
    -- Stationary point found.
 Normal termination of Gaussian 16 at Sat May 24 06:04:41 2025.
