 Gaussian 16, Revision C.01,
 Gaussian 16:  ES64L-G16RevC.01  3-Jul-2019

 ----------------------------------------------------------------------
 #P M062X/Def2TZVPP Symm(None) scf(xqc) pop(None) geom(AllCheck,NoKeepC
 onstants) guess(Read) irc(RCFC,forward,MaxPoints=100,StepSize=2)
 ----------------------------------------------------------------------

 Structure from the checkpoint file:  "1642764945472630600001_r12_insertion_R_3_1_2_IRC_F.chk"
 ------------------------------
 Gaussian input prepared by ASE
 ------------------------------
 Charge =  0 Multiplicity = 1

 SCF Done:  E(RM062X) =  -764.511189852     A.U. after   10 cycles
 SCF Done:  E(RM062X) =  -764.511344387     A.U. after   11 cycles
 SCF Done:  E(RM062X) =  -764.511600389     A.U. after   11 cycles
 SCF Done:  E(RM062X) =  -764.511955958     A.U. after   11 cycles
 SCF Done:  E(RM062X) =  -764.512408667     A.U. after   11 cycles
 SCF Done:  E(RM062X) =  -764.512955599     A.U. after   11 cycles
 SCF Done:  E(RM062X) =  -764.513593390     A.U. after   11 cycles
 SCF Done:  E(RM062X) =  -764.514318293     A.U. after   11 cycles
 SCF Done:  E(RM062X) =  -764.515126242     A.U. after   11 cycles
 SCF Done:  E(RM062X) =  -764.516012925     A.U. after   11 cycles
 SCF Done:  E(RM062X) =  -764.593159157     A.U. after    9 cycles
 SCF Done:  E(RM062X) =  -764.593384280     A.U. after    9 cycles
 SCF Done:  E(RM062X) =  -764.593608661     A.U. after    9 cycles
 SCF Done:  E(RM062X) =  -764.593830698     A.U. after    9 cycles
 SCF Done:  E(RM062X) =  -764.594041770     A.U. after    9 cycles
 SCF Done:  E(RM062X) =  -764.594245806     A.U. after    9 cycles
 SCF Done:  E(RM062X) =  -764.594443428     A.U. after    9 cycles
 SCF Done:  E(RM062X) =  -764.594634832     A.U. after    9 cycles
 SCF Done:  E(RM062X) =  -764.594820157     A.U. after    9 cycles
 SCF Done:  E(RM062X) =  -764.594999490     A.U. after    9 cycles

                          Input orientation:
 ---------------------------------------------------------------------
 Center     Atomic      Atomic             Coordinates (Angstroms)
 Number     Number       Type             X           Y           Z
 ---------------------------------------------------------------------
      1          6           0        1.695006    0.841765   -0.296589
      2          8           0        1.172564   -0.349854   -0.698946
      3          6           0       -0.204719   -0.365534   -0.587072
      4          6           0       -0.738373    0.012071    0.829377
      5          9           0       -1.971654   -0.464220    0.950722
      6          9           0        0.026896   -0.545442    1.758968
      7          9           0       -0.778939    1.315111    1.014652
      8          9           0       -0.712764    0.479994   -1.483652
      9          9           0       -0.616210   -1.590954   -0.883899
     10          8           0        2.880106    0.929813   -0.787513
     11          1           0        3.125807    0.161252   -1.339310
 ---------------------------------------------------------------------

 Normal termination of Gaussian 16 at Sat May 24 04:49:37 2025.
