 Gaussian 16, Revision C.01,
 Gaussian 16:  ES64L-G16RevC.01  3-Jul-2019

 ----------------------------------------------------------------------
 #P mp2/6-31G Symm(None) scf(xqc) pop(None) guess(Mix,Always) freq opt(
 CalcFC)
 ----------------------------------------------------------------------

 ------------------------------
 Gaussian input prepared by ASE
 ------------------------------
 Symbolic Z-matrix:
 Charge =  0 Multiplicity = 1

 SCF Done:  E(RHF) =  -760.799990855     A.U. after   17 cycles
 E2 =    -0.1145083387D+01 EUMP2 =    -0.76194507424164D+03
 E2 =    -0.1145083387D+01 EUMP2 =    -0.76194507424164D+03
 SCF Done:  E(RHF) =  -760.803534825     A.U. after   17 cycles
 E2 =    -0.1144901874D+01 EUMP2 =    -0.76194843669847D+03
 SCF Done:  E(RHF) =  -760.803672462     A.U. after   17 cycles
 E2 =    -0.1145147007D+01 EUMP2 =    -0.76194881946909D+03
 SCF Done:  E(RHF) =  -760.799517103     A.U. after   17 cycles
 E2 =    -0.1145144948D+01 EUMP2 =    -0.76194466205109D+03
 SCF Done:  E(RHF) =  -760.803710340     A.U. after   17 cycles
 E2 =    -0.1145373270D+01 EUMP2 =    -0.76194908361009D+03
 SCF Done:  E(RHF) =  -760.803915616     A.U. after   17 cycles
 E2 =    -0.1145675819D+01 EUMP2 =    -0.76194959143473D+03
 SCF Done:  E(RHF) =  -760.804390619     A.U. after   17 cycles
 E2 =    -0.1145794496D+01 EUMP2 =    -0.76195018511564D+03
 SCF Done:  E(RHF) =  -760.804909575     A.U. after   17 cycles
 E2 =    -0.1145268260D+01 EUMP2 =    -0.76195017783515D+03
 SCF Done:  E(RHF) =  -760.805427477     A.U. after   17 cycles
 E2 =    -0.1145039200D+01 EUMP2 =    -0.76195046667698D+03
 SCF Done:  E(RHF) =  -760.805396342     A.U. after   17 cycles
 E2 =    -0.1145068299D+01 EUMP2 =    -0.76195046464122D+03
 SCF Done:  E(RHF) =  -760.805391897     A.U. after   17 cycles
 E2 =    -0.1145140866D+01 EUMP2 =    -0.76195053276336D+03
 SCF Done:  E(RHF) =  -760.805390601     A.U. after   17 cycles
 E2 =    -0.1145144774D+01 EUMP2 =    -0.76195053537459D+03
 SCF Done:  E(RHF) =  -760.805381993     A.U. after   17 cycles
 E2 =    -0.1145153974D+01 EUMP2 =    -0.76195053596693D+03
 SCF Done:  E(RHF) =  -760.805379237     A.U. after   17 cycles
 E2 =    -0.1145156757D+01 EUMP2 =    -0.76195053599351D+03
 Optimization completed.
    -- Stationary point found.
 Normal termination of Gaussian 16 at Sat May 24 03:11:54 2025.

 -------------------------------------------------------------------
 #P Geom=AllCheck Guess=TCheck SCRF=Check GenChk RMP2(FC)/6-31G Freq
 -------------------------------------------------------------------

 Structure from the checkpoint file:  "1642764945472630600001_R_Addition_MultipleBond_1_10_11_IRC_F_prod.chk"
 ------------------------------
 Gaussian input prepared by ASE
 ------------------------------
 Charge =  0 Multiplicity = 1

                          Input orientation:
 ---------------------------------------------------------------------
 Center     Atomic      Atomic             Coordinates (Angstroms)
 Number     Number       Type             X           Y           Z
 ---------------------------------------------------------------------
      1          6           0        1.367246    0.168349   -0.814032
      2          8           0        2.089834   -0.741274   -0.072303
      3          6           0       -0.132423   -0.115373   -0.634760
      4          6           0       -0.653783    0.002681    0.810448
      5          9           0       -2.043779    0.043010    0.836166
      6          9           0       -0.229111   -1.062226    1.594557
      7          9           0       -0.160815    1.190645    1.365949
      8          9           0       -0.849298    0.811416   -1.414817
      9          9           0       -0.427921   -1.418920   -1.100441
     10          8           0        1.837158    1.071938   -1.524651
     11          1           0        3.059634   -0.598102   -0.168948
 ---------------------------------------------------------------------

 SCF Done:  E(RHF) =  -760.805379237     A.U. after    1 cycles
 E2 =    -0.1145156758D+01 EUMP2 =    -0.76195053599468D+03
 E2 =    -0.1145156758D+01 EUMP2 =    -0.76195053599468D+03

                      1                      2                      3
                      A                      A                      A
 Frequencies --     45.0027                64.9226               153.4402
 Red. masses --     12.1257                17.2590                10.5322
 Frc consts  --      0.0145                 0.0429                 0.1461
 IR Inten    --      1.1317                 0.2250                 1.8224

                      4                      5                      6
                      A                      A                      A
 Frequencies --    216.0528               242.3471               283.6074
 Red. masses --     17.0071                11.5811                14.5253
 Frc consts  --      0.4677                 0.4008                 0.6884
 IR Inten    --      2.7443                 0.9472                 2.0011

                      7                      8                      9
                      A                      A                      A
 Frequencies --    340.9472               363.7949               370.2055
 Red. masses --     18.2412                17.2329                13.1304
 Frc consts  --      1.2493                 1.3438                 1.0603
 IR Inten    --      0.0721                 0.8233                 2.2412

                     10                     11                     12
                      A                      A                      A
 Frequencies --    455.6353               496.0153               536.0965
 Red. masses --     11.0915                14.1241                 5.6847
 Frc consts  --      1.3567                 2.0474                 0.9626
 IR Inten    --      8.6190                15.0754                12.6113

                     13                     14                     15
                      A                      A                      A
 Frequencies --    584.6124               615.2808               649.5791
 Red. masses --      6.2629                 1.6205                 5.4243
 Frc consts  --      1.2611                 0.3615                 1.3485
 IR Inten    --     13.6687               146.1958                97.1237

                     16                     17                     18
                      A                      A                      A
 Frequencies --    710.6895               733.8137              1008.2399
 Red. masses --     10.0543                 9.3884                13.1926
 Frc consts  --      2.9920                 2.9786                 7.9015
 IR Inten    --      8.0620                23.2011               148.6883

                     19                     20                     21
                      A                      A                      A
 Frequencies --   1089.9079              1148.7286              1181.8779
 Red. masses --      4.0479                 6.7262                 7.3051
 Frc consts  --      2.8331                 5.2294                 6.0120
 IR Inten    --    287.2512               164.2803               100.2628

                     22                     23                     24
                      A                      A                      A
 Frequencies --   1206.2934              1224.2101              1328.0295
 Red. masses --     10.6971                 5.4244                12.2229
 Frc consts  --      9.1711                 4.7898                12.7011
 IR Inten    --    162.5163                98.4326                53.4559

                     25                     26                     27
                      A                      A                      A
 Frequencies --   1399.8256              1700.5647              3607.1750
 Red. masses --      3.0426                10.5860                 1.0645
 Frc consts  --      3.5128                18.0372                 8.1610
 IR Inten    --     49.2635               157.2807                93.2322

 - Thermochemistry -
 -------------------
 Temperature   298.150 Kelvin.  Pressure   1.00000 Atm.
 Atom     1 has atomic number  6 and mass  12.00000

 Molecular mass:   163.98967 amu.
 Principal axes and moments of inertia in atomic units:
                           1         2         3
     Eigenvalues --  1007.131021577.069091713.34954
           X            0.79006   0.59848   0.13277
           Y            0.08238  -0.31826   0.94442
           Z           -0.60747   0.73521   0.30075
 This molecule is an asymmetric top.
 Rotational symmetry number  1.
 Warning -- assumption of classical behavior for rotation
           may cause significant error
 Rotational temperatures (Kelvin)      0.08600     0.05492     0.05055
 Rotational constants (GHZ):           1.79196     1.14436     1.05334
 Zero-point vibrational energy     130135.1 (Joules/Mol)
                                   31.10304 (Kcal/Mol)
 Warning -- explicit consideration of  14 degrees of freedom as
           vibrations may cause significant error
 Vibrational temperatures:     64.75    93.41   220.77   310.85   348.68
          (Kelvin)            408.05   490.55   523.42   532.64   655.56
                              713.66   771.32   841.13   885.25   934.60
                             1022.52  1055.79  1450.63  1568.13  1652.76
                             1700.46  1735.59  1761.37  1910.74  2014.04
                             2446.73  5189.92

 Zero-point correction=                           0.049566 (Hartree/Particle)
 Thermal correction to Energy=                    0.058716
 Thermal correction to Enthalpy=                  0.059660
 Thermal correction to Gibbs Free Energy=         0.014309
 Sum of electronic and zero-point Energies=           -761.900970
 Sum of electronic and thermal Energies=              -761.891820
 Sum of electronic and thermal Enthalpies=            -761.890876
 Sum of electronic and thermal Free Energies=         -761.936227

                     E (Thermal)             CV                S
                      KCal/Mol        Cal/Mol-Kelvin    Cal/Mol-Kelvin
 Total                   36.845             31.909             95.451
 Electronic               0.000              0.000              0.000
 Translational            0.889              2.981             41.192
 Rotational               0.889              2.981             29.388
 Vibrational             35.067             25.947             24.870
 Vibration     1          0.595              1.979              5.026
 Vibration     2          0.597              1.971              4.302
 Vibration     3          0.619              1.899              2.629
 Vibration     4          0.645              1.817              1.992
 Vibration     5          0.659              1.775              1.786
 Vibration     6          0.682              1.704              1.512
 Vibration     7          0.720              1.594              1.208
 Vibration     8          0.737              1.547              1.106
 Vibration     9          0.742              1.533              1.079
 Vibration    10          0.814              1.348              0.779
 Vibration    11          0.852              1.259              0.668
 Vibration    12          0.891              1.170              0.574
 Vibration    13          0.942              1.065              0.477
 Vibration    14          0.975              1.000              0.424

 Optimization completed.
    -- Stationary point found.
 Normal termination of Gaussian 16 at Sat May 24 03:12:16 2025.
