 Gaussian 16, Revision C.01,
 Gaussian 16:  ES64L-G16RevC.01  3-Jul-2019

 ----------------------------------------------------------------------
 #P M062X/Def2TZVPP Symm(None) scf(xqc) pop(None) opt(NoFreeze,TS,CalcA
 ll,NoEigentest,MaxCycle=999)
 ----------------------------------------------------------------------

 ------------------------------
 Gaussian input prepared by ASE
 ------------------------------
 Symbolic Z-matrix:
 Charge =  0 Multiplicity = 1

 SCF Done:  E(RM062X) =  -764.496392816     A.U. after   17 cycles
 SCF Done:  E(RM062X) =  -764.493444167     A.U. after   15 cycles
 SCF Done:  E(RM062X) =  -764.486609516     A.U. after   17 cycles
 SCF Done:  E(RM062X) =  -764.477556461     A.U. after   17 cycles
 SCF Done:  E(RM062X) =  -764.467732731     A.U. after   17 cycles
 SCF Done:  E(RM062X) =  -764.458217763     A.U. after   20 cycles
 SCF Done:  E(RM062X) =  -764.449193375     A.U. after   21 cycles
 SCF Done:  E(RM062X) =  -764.440736724     A.U. after   21 cycles
 SCF Done:  E(RM062X) =  -764.434139258     A.U. after   26 cycles
 SCF Done:  E(RM062X) =  -764.438154522     A.U. after   21 cycles
 SCF Done:  E(RM062X) =  -764.444485119     A.U. after   20 cycles
 SCF Done:  E(RM062X) =  -764.449785660     A.U. after   19 cycles
 SCF Done:  E(RM062X) =  -764.453510315     A.U. after   18 cycles
 SCF Done:  E(RM062X) =  -764.454694243     A.U. after   17 cycles
 SCF Done:  E(RM062X) =  -764.454950152     A.U. after   17 cycles
 SCF Done:  E(RM062X) =  -764.454959919     A.U. after   14 cycles

 Isotropic polarizability for W=    0.000000       57.62 Bohr**3.
 End of Minotr F.D. properties file   721 does not exist.

 Optimization completed.
    -- Stationary point found.

                          Input orientation:
 ---------------------------------------------------------------------
 Center     Atomic      Atomic             Coordinates (Angstroms)
 Number     Number       Type             X           Y           Z
 ---------------------------------------------------------------------
      1          6           0        0.938366    0.277931    0.257913
      2          8           0        0.197708   -0.380888   -0.472544
      3          6           0        1.480090    1.457475   -0.278292
      4          6           0        1.074551    2.166576   -1.570307
      5          9           0        0.746886    3.418416   -1.228211
      6          9           0        2.119838    2.222497   -2.377255
      7          9           0        0.058124    1.616821   -2.180056
      8          9           0        1.679774   -0.747488   -1.611598
      9          9           0        2.420170    2.074369    0.342148
     10          8           0        1.441084   -0.127955    1.427003
     11          1           0        1.160705   -1.040268    1.574872
 ---------------------------------------------------------------------

 ******    1 imaginary frequencies (negative Signs) ******

                      1                      2                      3
                      A                      A                      A
 Frequencies --   -522.4999                43.1064                85.6998
 Red. masses --     15.6008                18.4743                16.6781
 Frc consts  --      2.5094                 0.0202                 0.0722
 IR Inten    --    314.4383                 1.1889                 3.3575

                      4                      5                      6
                      A                      A                      A
 Frequencies --    100.6854               191.7856               216.5268
 Red. masses --     11.0424                10.2915                10.4056
 Frc consts  --      0.0660                 0.2230                 0.2874
 IR Inten    --     10.1139                 3.3730                 8.3924

                      7                      8                      9
                      A                      A                      A
 Frequencies --    266.1808               286.5729               353.5707
 Red. masses --     16.2849                15.8590                 8.8631
 Frc consts  --      0.6798                 0.7674                 0.6528
 IR Inten    --      8.9641                54.0807                 2.3548

                     10                     11                     12
                      A                      A                      A
 Frequencies --    380.9151               387.8959               493.8721
 Red. masses --      4.0899                 1.5906                10.6438
 Frc consts  --      0.3496                 0.1410                 1.5296
 IR Inten    --     29.2167                56.3082                48.8966

                     13                     14                     15
                      A                      A                      A
 Frequencies --    528.4713               588.8095               623.6568
 Red. masses --     14.2397                13.1939                11.9585
 Frc consts  --      2.3431                 2.6951                 2.7404
 IR Inten    --      6.5186                16.4897                 3.4232

                     16                     17                     18
                      A                      A                      A
 Frequencies --    678.0064               759.4386               805.3811
 Red. masses --      6.4163                12.2916                11.2482
 Frc consts  --      1.7378                 4.1768                 4.2987
 IR Inten    --     83.7041                 2.1728                 4.2228

                     19                     20                     21
                      A                      A                      A
 Frequencies --   1078.1063              1191.8236              1228.7888
 Red. masses --     13.0203                 2.6254                 8.0565
 Frc consts  --      8.9165                 2.1972                 7.1672
 IR Inten    --    319.9738               131.0727               158.9867

                     22                     23                     24
                      A                      A                      A
 Frequencies --   1311.3267              1345.1819              1432.2543
 Red. masses --      2.9208                10.1645                12.6600
 Frc consts  --      2.9592                10.8367                15.3011
 IR Inten    --     61.7476               298.7544               410.5575

                     25                     26                     27
                      A                      A                      A
 Frequencies --   1542.1274              1640.7793              3835.1725
 Red. masses --      7.4479                12.7333                 1.0652
 Frc consts  --     10.4358                20.1973                 9.2307
 IR Inten    --    210.5367               277.2209               170.4521

 - Thermochemistry -
 -------------------
 Temperature   298.150 Kelvin.  Pressure   1.00000 Atm.
 Atom     1 has atomic number  6 and mass  12.00000

 Molecular mass:   163.98967 amu.
 Principal axes and moments of inertia in atomic units:
                           1         2         3
     Eigenvalues --   952.473711596.920751945.49296
           X           -0.01622   0.34341   0.93905
           Y            0.81487   0.54878  -0.18662
           Z           -0.57942   0.76217  -0.28873
 This molecule is an asymmetric top.
 Rotational symmetry number  1.
 Warning -- assumption of classical behavior for rotation
           may cause significant error
 Rotational temperatures (Kelvin)      0.09094     0.05424     0.04452
 Rotational constants (GHZ):           1.89479     1.13014     0.92765
    1 imaginary frequencies ignored.
 Zero-point vibrational energy     127977.3 (Joules/Mol)
                                   30.58731 (Kcal/Mol)
 Warning -- explicit consideration of  13 degrees of freedom as
           vibrations may cause significant error
 Vibrational temperatures:     62.02   123.30   144.86   275.94   311.53
          (Kelvin)            382.97   412.31   508.71   548.05   558.10
                              710.57   760.35   847.17   897.30   975.50
                             1092.66  1158.76  1551.15  1714.77  1767.95
                             1886.71  1935.42  2060.69  2218.78  2360.72
                             5517.96

 Zero-point correction=                           0.048744 (Hartree/Particle)
 Thermal correction to Energy=                    0.058068
 Thermal correction to Enthalpy=                  0.059012
 Thermal correction to Gibbs Free Energy=         0.013099
 Sum of electronic and zero-point Energies=           -764.406216
 Sum of electronic and thermal Energies=              -764.396892
 Sum of electronic and thermal Enthalpies=            -764.395948
 Sum of electronic and thermal Free Energies=         -764.441861

                     E (Thermal)             CV                S
                      KCal/Mol        Cal/Mol-Kelvin    Cal/Mol-Kelvin
 Total                   36.438             31.418             96.631
 Electronic               0.000              0.000              0.000
 Translational            0.889              2.981             41.192
 Rotational               0.889              2.981             29.472
 Vibrational             34.661             25.456             25.967
 Vibration     1          0.595              1.980              5.111
 Vibration     2          0.601              1.959              3.756
 Vibration     3          0.604              1.949              3.441
 Vibration     4          0.634              1.851              2.211
 Vibration     5          0.645              1.816              1.988
 Vibration     6          0.672              1.735              1.621
 Vibration     7          0.684              1.699              1.494
 Vibration     8          0.730              1.568              1.150
 Vibration     9          0.751              1.511              1.036
 Vibration    10          0.756              1.496              1.008
 Vibration    11          0.850              1.264              0.674
 Vibration    12          0.883              1.187              0.591
 Vibration    13          0.946              1.056              0.469

 Normal termination of Gaussian 16 at Sat May 24 04:20:13 2025.
