 Gaussian 16, Revision C.01,
 Gaussian 16:  ES64L-G16RevC.01  3-Jul-2019

 ----------------------------------------------------------------------
 #P M062X/Def2TZVPP Symm(None) scf(xqc) pop(None) geom(AllCheck,NoKeepC
 onstants) guess(Read) irc(RCFC,reverse,MaxPoints=100,StepSize=2)
 ----------------------------------------------------------------------

 Structure from the checkpoint file:  "1642764945472630600001_r12_insertion_R_1_3_8_IRC_R.chk"
 ------------------------------
 Gaussian input prepared by ASE
 ------------------------------
 Charge =  0 Multiplicity = 1

 SCF Done:  E(RM062X) =  -764.520641030     A.U. after   12 cycles
 SCF Done:  E(RM062X) =  -764.520669317     A.U. after   13 cycles
 SCF Done:  E(RM062X) =  -764.520715259     A.U. after   13 cycles
 SCF Done:  E(RM062X) =  -764.520777932     A.U. after   13 cycles
 SCF Done:  E(RM062X) =  -764.520856499     A.U. after   13 cycles
 SCF Done:  E(RM062X) =  -764.520950183     A.U. after   14 cycles
 SCF Done:  E(RM062X) =  -764.521058263     A.U. after   14 cycles
 SCF Done:  E(RM062X) =  -764.521180068     A.U. after   13 cycles
 SCF Done:  E(RM062X) =  -764.521314976     A.U. after   13 cycles
 SCF Done:  E(RM062X) =  -764.521462409     A.U. after   13 cycles
 SCF Done:  E(RM062X) =  -764.574132705     A.U. after   10 cycles
 SCF Done:  E(RM062X) =  -764.575235941     A.U. after   10 cycles
 SCF Done:  E(RM062X) =  -764.576331978     A.U. after   10 cycles
 SCF Done:  E(RM062X) =  -764.577419052     A.U. after   10 cycles
 SCF Done:  E(RM062X) =  -764.578495388     A.U. after   10 cycles
 SCF Done:  E(RM062X) =  -764.579559222     A.U. after   10 cycles
 SCF Done:  E(RM062X) =  -764.580608820     A.U. after   10 cycles
 SCF Done:  E(RM062X) =  -764.581642497     A.U. after   10 cycles
 SCF Done:  E(RM062X) =  -764.582658646     A.U. after   10 cycles
 SCF Done:  E(RM062X) =  -764.583655756     A.U. after   10 cycles

                          Input orientation:
 ---------------------------------------------------------------------
 Center     Atomic      Atomic             Coordinates (Angstroms)
 Number     Number       Type             X           Y           Z
 ---------------------------------------------------------------------
      1          6           0        0.980323    0.220551   -0.993362
      2          8           0        1.361796   -1.074850   -0.769985
      3          6           0       -0.014902   -0.561228   -0.304239
      4          6           0       -0.673713    0.053456    1.016246
      5          9           0       -1.903355   -0.423660    1.187188
      6          9           0        0.026535   -0.155783    2.110496
      7          9           0       -0.825974    1.371440    0.850927
      8          9           0        0.731553    0.651477   -2.221465
      9          9           0       -0.910701   -1.322899   -0.895635
     10          8           0        1.683602    1.103626   -0.243883
     11          1           0        2.520094    0.689839   -0.003426
 ---------------------------------------------------------------------

 Normal termination of Gaussian 16 at Sat May 24 04:13:04 2025.
