 Gaussian 16, Revision C.01,
 Gaussian 16:  ES64L-G16RevC.01  3-Jul-2019

 ----------------------------------------------------------------------
 #P M062X/Def2TZVPP Symm(None) scf(xqc) pop(None) opt(NoFreeze,TS,CalcA
 ll,NoEigentest,MaxCycle=999)
 ----------------------------------------------------------------------

 ------------------------------
 Gaussian input prepared by ASE
 ------------------------------
 Symbolic Z-matrix:
 Charge =  0 Multiplicity = 1

 SCF Done:  E(RM062X) =  -764.256384638     A.U. after   26 cycles
 SCF Done:  E(RM062X) =  -764.289642694     A.U. after   23 cycles
 SCF Done:  E(RM062X) =  -764.315356621     A.U. after   21 cycles
 SCF Done:  E(RM062X) =  -764.323186839     A.U. after   22 cycles
 SCF Done:  E(RM062X) =  -764.323092630     A.U. after   18 cycles
 SCF Done:  E(RM062X) =  -764.323223667     A.U. after   18 cycles
 SCF Done:  E(RM062X) =  -764.322670293     A.U. after   20 cycles
 SCF Done:  E(RM062X) =  -764.320135234     A.U. after   25 cycles
 SCF Done:  E(RM062X) =  -764.318322091     A.U. after   25 cycles
 SCF Done:  E(RM062X) =  -764.317117510     A.U. after   22 cycles
 SCF Done:  E(RM062X) =  -764.314507443     A.U. after   26 cycles
 SCF Done:  E(RM062X) =  -764.319555828     A.U. after   25 cycles
 SCF Done:  E(RM062X) =  -764.327665823     A.U. after   22 cycles
 SCF Done:  E(RM062X) =  -764.339209974     A.U. after   22 cycles
 SCF Done:  E(RM062X) =  -764.353754178     A.U. after   21 cycles
 SCF Done:  E(RM062X) =  -764.368691310     A.U. after   19 cycles
 SCF Done:  E(RM062X) =  -764.379479799     A.U. after   19 cycles
 SCF Done:  E(RM062X) =  -764.382117608     A.U. after   20 cycles
 SCF Done:  E(RM062X) =  -764.382278006     A.U. after   17 cycles
 SCF Done:  E(RM062X) =  -764.382280199     A.U. after   14 cycles

 Isotropic polarizability for W=    0.000000       52.02 Bohr**3.
 End of Minotr F.D. properties file   721 does not exist.

 Optimization completed.
    -- Stationary point found.

                          Input orientation:
 ---------------------------------------------------------------------
 Center     Atomic      Atomic             Coordinates (Angstroms)
 Number     Number       Type             X           Y           Z
 ---------------------------------------------------------------------
      1          6           0        1.437710   -0.484997    0.116941
      2          8           0        2.500754    0.351599    0.615008
      3          6           0        0.085652    0.193631    0.201656
      4          6           0       -0.458600    0.270105    1.637962
      5          9           0       -1.611211    0.924691    1.648223
      6          9           0       -0.653321   -0.947892    2.116997
      7          9           0        0.403041    0.909041    2.420787
      8          9           0        0.133177    1.469035   -0.293257
      9          9           0       -0.793121   -0.471112   -0.561948
     10          8           0        2.145251   -0.024502   -0.990698
     11          1           0        1.740171    0.781804   -1.399568
 ---------------------------------------------------------------------

 ******    1 imaginary frequencies (negative Signs) ******

                      1                      2                      3
                      A                      A                      A
 Frequencies --  -1499.6716                42.9759                79.1425
 Red. masses --      7.5386                14.9807                10.9877
 Frc consts  --      9.9892                 0.0163                 0.0405
 IR Inten    --   1314.2706                 1.6168                 2.6389

                      4                      5                      6
                      A                      A                      A
 Frequencies --    159.4170               216.0920               249.4639
 Red. masses --     11.1813                17.7744                15.4583
 Frc consts  --      0.1674                 0.4890                 0.5668
 IR Inten    --      5.2684                 3.4007                 3.0409

                      7                      8                      9
                      A                      A                      A
 Frequencies --    302.6526               346.6835               360.2941
 Red. masses --     10.2516                11.4113                17.9930
 Frc consts  --      0.5533                 0.8081                 1.3762
 IR Inten    --     22.0931                 3.3174                 0.5260

                     10                     11                     12
                      A                      A                      A
 Frequencies --    400.3844               483.6157               544.0671
 Red. masses --     13.0778                15.3899                15.7374
 Frc consts  --      1.2352                 2.1207                 2.7447
 IR Inten    --      4.6950                 5.3501                 5.9864

                     13                     14                     15
                      A                      A                      A
 Frequencies --    595.3445               636.8791               716.9664
 Red. masses --     16.1870                15.9046                 5.9901
 Frc consts  --      3.3803                 3.8009                 1.8142
 IR Inten    --      1.0302                 3.6603                40.8623

                     16                     17                     18
                      A                      A                      A
 Frequencies --    791.6113               842.5923               963.9128
 Red. masses --      7.9763                 5.6204                 1.6626
 Frc consts  --      2.9449                 2.3510                 0.9101
 IR Inten    --     19.0116                42.9841                43.3430

                     19                     20                     21
                      A                      A                      A
 Frequencies --   1065.0358              1108.8473              1222.1262
 Red. masses --     13.1284                 9.0440                11.3232
 Frc consts  --      8.7739                 6.5517                 9.9644
 IR Inten    --    166.1725               175.1651               138.4564

                     22                     23                     24
                      A                      A                      A
 Frequencies --   1234.8207              1269.3592              1286.9079
 Red. masses --      1.4574                 6.6914                11.8440
 Frc consts  --      1.3092                 6.3524                11.5570
 IR Inten    --     90.4609               184.7491               195.7620

                     25                     26                     27
                      A                      A                      A
 Frequencies --   1302.8987              1411.4316              3448.7789
 Red. masses --      7.7645                12.4386                 1.0644
 Frc consts  --      7.7657                14.5996                 7.4590
 IR Inten    --    171.3003                73.6721                80.5655

 - Thermochemistry -
 -------------------
 Temperature   298.150 Kelvin.  Pressure   1.00000 Atm.
 Atom     1 has atomic number  6 and mass  12.00000

 Molecular mass:   163.98967 amu.
 Principal axes and moments of inertia in atomic units:
                           1         2         3
     Eigenvalues --   848.002051564.261231769.31548
           X            0.77108   0.63664  -0.01127
           Y           -0.03132   0.05559   0.99796
           Z           -0.63597   0.76915  -0.06281
 This molecule is an asymmetric top.
 Rotational symmetry number  1.
 Warning -- assumption of classical behavior for rotation
           may cause significant error
 Rotational temperatures (Kelvin)      0.10214     0.05537     0.04895
 Rotational constants (GHZ):           2.12823     1.15373     1.02002
    1 imaginary frequencies ignored.
 Zero-point vibrational energy     126100.2 (Joules/Mol)
                                   30.13866 (Kcal/Mol)
 Warning -- explicit consideration of  12 degrees of freedom as
           vibrations may cause significant error
 Vibrational temperatures:     61.83   113.87   229.37   310.91   358.92
          (Kelvin)            435.45   498.80   518.38   576.06   695.82
                              782.79   856.57   916.33  1031.55  1138.95
                             1212.30  1386.86  1532.35  1595.38  1758.37
                             1776.63  1826.32  1851.57  1874.58  2030.74
                             4962.02

 Zero-point correction=                           0.048029 (Hartree/Particle)
 Thermal correction to Energy=                    0.056732
 Thermal correction to Enthalpy=                  0.057677
 Thermal correction to Gibbs Free Energy=         0.013200
 Sum of electronic and zero-point Energies=           -764.334251
 Sum of electronic and thermal Energies=              -764.325548
 Sum of electronic and thermal Enthalpies=            -764.324604
 Sum of electronic and thermal Free Energies=         -764.369081

                     E (Thermal)             CV                S
                      KCal/Mol        Cal/Mol-Kelvin    Cal/Mol-Kelvin
 Total                   35.600             30.074             93.610
 Electronic               0.000              0.000              0.000
 Translational            0.889              2.981             41.192
 Rotational               0.889              2.981             29.241
 Vibrational             33.823             24.113             23.176
 Vibration     1          0.595              1.980              5.117
 Vibration     2          0.600              1.963              3.912
 Vibration     3          0.621              1.892              2.557
 Vibration     4          0.645              1.817              1.992
 Vibration     5          0.662              1.764              1.734
 Vibration     6          0.694              1.669              1.402
 Vibration     7          0.725              1.582              1.181
 Vibration     8          0.735              1.554              1.121
 Vibration     9          0.766              1.469              0.961
 Vibration    10          0.840              1.286              0.700
 Vibration    11          0.899              1.153              0.557
 Vibration    12          0.953              1.042              0.458

 Normal termination of Gaussian 16 at Sat May 24 04:08:15 2025.
