 Gaussian 16, Revision C.01,
 Gaussian 16:  ES64L-G16RevC.01  3-Jul-2019

 -----------------------------------------------------------------
 #P M062X/Def2TZVPP Symm(None) scf(xqc) pop(None) freq opt(CalcFC)
 -----------------------------------------------------------------

 ------------------------------
 Gaussian input prepared by ASE
 ------------------------------
 Symbolic Z-matrix:
 Charge =  0 Multiplicity = 1

 SCF Done:  E(RM062X) =  -764.577883025     A.U. after   14 cycles
 SCF Done:  E(RM062X) =  -764.614783735     A.U. after   14 cycles
 SCF Done:  E(RM062X) =  -764.659517461     A.U. after   15 cycles
 SCF Done:  E(RM062X) =  -764.643351736     A.U. after   13 cycles
 SCF Done:  E(RM062X) =  -764.654237854     A.U. after   15 cycles
 SCF Done:  E(RM062X) =  -764.663096096     A.U. after   12 cycles
 SCF Done:  E(RM062X) =  -764.646850737     A.U. after   14 cycles
 SCF Done:  E(RM062X) =  -764.665443202     A.U. after   13 cycles
 SCF Done:  E(RM062X) =  -764.666580259     A.U. after   12 cycles
 SCF Done:  E(RM062X) =  -764.667412625     A.U. after   13 cycles
 SCF Done:  E(RM062X) =  -764.667946014     A.U. after   12 cycles
 SCF Done:  E(RM062X) =  -764.668074822     A.U. after   13 cycles
 SCF Done:  E(RM062X) =  -764.668129998     A.U. after   12 cycles
 SCF Done:  E(RM062X) =  -764.668248623     A.U. after   13 cycles
 SCF Done:  E(RM062X) =  -764.668259988     A.U. after   12 cycles
 SCF Done:  E(RM062X) =  -764.668263708     A.U. after   10 cycles
 SCF Done:  E(RM062X) =  -764.668264475     A.U. after    8 cycles
 SCF Done:  E(RM062X) =  -764.668264753     A.U. after    9 cycles
 SCF Done:  E(RM062X) =  -764.668264797     A.U. after    8 cycles
 Optimization completed.
    -- Stationary point found.
 Normal termination of Gaussian 16 at Sat May 24 07:16:26 2025.

 ---------------------------------------------------------------------
 #P Geom=AllCheck Guess=TCheck SCRF=Check GenChk RM062X/def2TZVPP Freq
 ---------------------------------------------------------------------

 Structure from the checkpoint file:  "1642764945472630600001_r13_insertion_ROR_4_3_1_2_IRC_R_prod.chk"
 ------------------------------
 Gaussian input prepared by ASE
 ------------------------------
 Charge =  0 Multiplicity = 1

                          Input orientation:
 ---------------------------------------------------------------------
 Center     Atomic      Atomic             Coordinates (Angstroms)
 Number     Number       Type             X           Y           Z
 ---------------------------------------------------------------------
      1          6           0        1.237251    0.907883    0.347271
      2          8           0        1.515498    1.358149    1.410726
      3          6           0        0.476985   -0.425270    0.176101
      4          6           0       -1.003366   -0.217993   -0.211716
      5          9           0       -1.633531   -1.381423   -0.221125
      6          9           0       -1.586005    0.583286    0.673165
      7          9           0       -1.098861    0.331587   -1.413775
      8          9           0        1.055270   -1.173305   -0.775450
      9          9           0        0.506315   -1.089239    1.331571
     10          8           0        1.505370    1.448797   -0.836659
     11          1           0        1.966649    2.286669   -0.691479
 ---------------------------------------------------------------------

 SCF Done:  E(RM062X) =  -764.668264798     A.U. after    1 cycles

 Isotropic polarizability for W=    0.000000       43.87 Bohr**3.
 End of Minotr F.D. properties file   721 does not exist.

                      1                      2                      3
                      A                      A                      A
 Frequencies --     18.4110                66.1127               144.4913
 Red. masses --     12.9552                16.4048                10.1873
 Frc consts  --      0.0026                 0.0422                 0.1253
 IR Inten    --      1.4489                 0.3986                 0.9559

                      4                      5                      6
                      A                      A                      A
 Frequencies --    215.6117               248.0953               288.2187
 Red. masses --     17.3556                12.2000                14.6894
 Frc consts  --      0.4754                 0.4424                 0.7189
 IR Inten    --      1.5093                 1.1540                 1.4898

                      7                      8                      9
                      A                      A                      A
 Frequencies --    359.9430               380.3086               383.8548
 Red. masses --     16.4754                15.6421                13.4846
 Frc consts  --      1.2576                 1.3330                 1.1706
 IR Inten    --      0.3957                 0.7825                 0.6846

                     10                     11                     12
                      A                      A                      A
 Frequencies --    505.0672               546.7796               551.8552
 Red. masses --      7.6886                 3.1202                 4.5692
 Frc consts  --      1.1556                 0.5496                 0.8199
 IR Inten    --      6.1630                22.6130                14.1790

                     13                     14                     15
                      A                      A                      A
 Frequencies --    616.6322               635.7010               692.0179
 Red. masses --      7.3763                 3.1885                 4.5559
 Frc consts  --      1.6525                 0.7592                 1.2855
 IR Inten    --     16.6412                76.5935               101.3741

                     16                     17                     18
                      A                      A                      A
 Frequencies --    789.4513               797.8408              1061.8367
 Red. masses --     12.3169                 8.7003                11.7461
 Frc consts  --      4.5228                 3.2630                 7.8030
 IR Inten    --      2.4334                20.9737               124.1048

                     19                     20                     21
                      A                      A                      A
 Frequencies --   1186.9219              1229.1547              1277.4039
 Red. masses --      2.9963                 4.3545                10.3345
 Frc consts  --      2.4870                 3.8762                 9.9356
 IR Inten    --    244.5790               186.7398                39.6182

                     22                     23                     24
                      A                      A                      A
 Frequencies --   1290.6650              1297.4233              1382.6716
 Red. masses --     13.2783                 7.7540                 7.8946
 Frc consts  --     13.0322                 7.6903                 8.8924
 IR Inten    --    362.0875               147.1061               129.5368

                     25                     26                     27
                      A                      A                      A
 Frequencies --   1435.5800              1920.1970              3809.8566
 Red. masses --      5.1511                11.7462                 1.0646
 Frc consts  --      6.2547                25.5176                 9.1048
 IR Inten    --     54.7892               329.8780               129.9954

 - Thermochemistry -
 -------------------
 Temperature   298.150 Kelvin.  Pressure   1.00000 Atm.
 Atom     1 has atomic number  6 and mass  12.00000

 Molecular mass:   163.98967 amu.
 Principal axes and moments of inertia in atomic units:
                           1         2         3
     Eigenvalues --   948.822681523.016571599.82560
           X            0.85682  -0.24873  -0.45165
           Y            0.47561   0.71955   0.50601
           Z            0.19912  -0.64837   0.73482
 This molecule is an asymmetric top.
 Rotational symmetry number  1.
 Warning -- assumption of classical behavior for rotation
           may cause significant error
 Rotational temperatures (Kelvin)      0.09129     0.05687     0.05414
 Rotational constants (GHZ):           1.90208     1.18498     1.12809
 Zero-point vibrational energy     138360.7 (Joules/Mol)
                                   33.06900 (Kcal/Mol)
 Warning -- explicit consideration of  13 degrees of freedom as
           vibrations may cause significant error
 Vibrational temperatures:     26.49    95.12   207.89   310.22   356.95
          (Kelvin)            414.68   517.88   547.18   552.28   726.68
                              786.69   794.00   887.20   914.63   995.66
                             1135.84  1147.92  1527.75  1707.72  1768.48
                             1837.90  1856.98  1866.70  1989.36  2065.48
                             2762.74  5481.53

 Zero-point correction=                           0.052699 (Hartree/Particle)
 Thermal correction to Energy=                    0.061636
 Thermal correction to Enthalpy=                  0.062580
 Thermal correction to Gibbs Free Energy=         0.016871
 Sum of electronic and zero-point Energies=           -764.615566
 Sum of electronic and thermal Energies=              -764.606629
 Sum of electronic and thermal Enthalpies=            -764.605685
 Sum of electronic and thermal Free Energies=         -764.651394

                     E (Thermal)             CV                S
                      KCal/Mol        Cal/Mol-Kelvin    Cal/Mol-Kelvin
 Total                   38.677             30.717             96.203
 Electronic               0.000              0.000              0.000
 Translational            0.889              2.981             41.192
 Rotational               0.889              2.981             29.226
 Vibrational             36.900             24.755             25.784
 Vibration     1          0.593              1.986              6.799
 Vibration     2          0.598              1.970              4.266
 Vibration     3          0.616              1.909              2.744
 Vibration     4          0.645              1.817              1.996
 Vibration     5          0.662              1.766              1.744
 Vibration     6          0.685              1.696              1.484
 Vibration     7          0.734              1.555              1.122
 Vibration     8          0.750              1.512              1.038
 Vibration     9          0.753              1.505              1.024
 Vibration    10          0.860              1.239              0.646
 Vibration    11          0.902              1.147              0.551
 Vibration    12          0.907              1.136              0.540
 Vibration    13          0.976              0.997              0.422

 Optimization completed.
    -- Stationary point found.
 Normal termination of Gaussian 16 at Sat May 24 07:19:54 2025.
