 Gaussian 16, Revision C.01,
 Gaussian 16:  ES64L-G16RevC.01  3-Jul-2019

 ----------------------------------------------------------------------
 #P M062X/Def2TZVPP Symm(None) scf(xqc) pop(None) geom(AllCheck,NoKeepC
 onstants) guess(Read) irc(RCFC,reverse,MaxPoints=100,StepSize=2)
 ----------------------------------------------------------------------

 Structure from the checkpoint file:  "1642764945472630600001_r12_insertion_R_3_1_2_IRC_R.chk"
 ------------------------------
 Gaussian input prepared by ASE
 ------------------------------
 Charge =  0 Multiplicity = 1

 SCF Done:  E(RM062X) =  -764.511190153     A.U. after   10 cycles
 SCF Done:  E(RM062X) =  -764.511346187     A.U. after   11 cycles
 SCF Done:  E(RM062X) =  -764.511606155     A.U. after   11 cycles
 SCF Done:  E(RM062X) =  -764.511969540     A.U. after   11 cycles
 SCF Done:  E(RM062X) =  -764.512435470     A.U. after   11 cycles
 SCF Done:  E(RM062X) =  -764.513002764     A.U. after   11 cycles
 SCF Done:  E(RM062X) =  -764.513669979     A.U. after   11 cycles
 SCF Done:  E(RM062X) =  -764.514435453     A.U. after   11 cycles
 SCF Done:  E(RM062X) =  -764.515297333     A.U. after   11 cycles
 SCF Done:  E(RM062X) =  -764.516253600     A.U. after   11 cycles
 SCF Done:  E(RM062X) =  -764.649163495     A.U. after    9 cycles
 SCF Done:  E(RM062X) =  -764.649959282     A.U. after    9 cycles
 SCF Done:  E(RM062X) =  -764.650731260     A.U. after    9 cycles
 SCF Done:  E(RM062X) =  -764.651479793     A.U. after    9 cycles
 SCF Done:  E(RM062X) =  -764.652205259     A.U. after    9 cycles
 SCF Done:  E(RM062X) =  -764.652908031     A.U. after    9 cycles
 SCF Done:  E(RM062X) =  -764.653588505     A.U. after    9 cycles
 SCF Done:  E(RM062X) =  -764.654246988     A.U. after    9 cycles
 SCF Done:  E(RM062X) =  -764.654883650     A.U. after    9 cycles
 SCF Done:  E(RM062X) =  -764.655497437     A.U. after    9 cycles

                          Input orientation:
 ---------------------------------------------------------------------
 Center     Atomic      Atomic             Coordinates (Angstroms)
 Number     Number       Type             X           Y           Z
 ---------------------------------------------------------------------
      1          6           0        1.424616   -0.001415   -0.621111
      2          8           0        1.941865   -1.061374   -0.488713
      3          6           0       -0.155903   -0.082286   -0.607415
      4          6           0       -0.730116    0.116304    0.822784
      5          9           0       -1.947662   -0.395761    0.919635
      6          9           0        0.039939   -0.500516    1.713719
      7          9           0       -0.768244    1.408452    1.106777
      8          9           0       -0.783717    0.701226   -1.491151
      9          9           0       -0.459719   -1.345631   -0.923545
     10          8           0        2.117212    1.138897   -0.736935
     11          1           0        3.050541    0.874273   -0.702372
 ---------------------------------------------------------------------

 Normal termination of Gaussian 16 at Sat May 24 04:50:15 2025.
