 Gaussian 16, Revision C.01,
 Gaussian 16:  ES64L-G16RevC.01  3-Jul-2019

 ----------------------------------------------------------------------
 #P mp2/6-31G Symm(None) scf(xqc) pop(None) guess(Read,Mix) geom(AllChe
 ck,NoKeepConstants) irc(RCFC,forward,MaxPoints=100,StepSize=2)
 ----------------------------------------------------------------------

 Structure from the checkpoint file:  "1642764945472630600001_R_Addition_MultipleBond_1_3_4_IRC_F.chk"
 ------------------------------
 Gaussian input prepared by ASE
 ------------------------------
 Charge =  0 Multiplicity = 1

 SCF Done:  E(RHF) =  -760.537525166     A.U. after   23 cycles
 E2 =    -0.1212671806D+01 EUMP2 =    -0.76175019697233D+03
 SCF Done:  E(RHF) =  -760.541027519     A.U. after   13 cycles
 E2 =    -0.1209603958D+01 EUMP2 =    -0.76175063147760D+03
 SCF Done:  E(RHF) =  -760.544669900     A.U. after   13 cycles
 E2 =    -0.1206697400D+01 EUMP2 =    -0.76175136729969D+03
 SCF Done:  E(RHF) =  -760.548441759     A.U. after   13 cycles
 E2 =    -0.1203966011D+01 EUMP2 =    -0.76175240776996D+03
 SCF Done:  E(RHF) =  -760.552334887     A.U. after   13 cycles
 E2 =    -0.1201416194D+01 EUMP2 =    -0.76175375108042D+03
 SCF Done:  E(RHF) =  -760.556340439     A.U. after   13 cycles
 E2 =    -0.1199050204D+01 EUMP2 =    -0.76175539064250D+03
 SCF Done:  E(RHF) =  -760.560449215     A.U. after   12 cycles
 E2 =    -0.1196866425D+01 EUMP2 =    -0.76175731564015D+03
 SCF Done:  E(RHF) =  -760.564651857     A.U. after   12 cycles
 E2 =    -0.1194859790D+01 EUMP2 =    -0.76175951164669D+03
 SCF Done:  E(RHF) =  -760.568938983     A.U. after   12 cycles
 E2 =    -0.1193022450D+01 EUMP2 =    -0.76176196143317D+03
 SCF Done:  E(RHF) =  -760.573301298     A.U. after   12 cycles
 E2 =    -0.1191344385D+01 EUMP2 =    -0.76176464568333D+03
 E2 =    -0.1189814058D+01 EUMP2 =    -0.76176754374704D+03
 E2 =    -0.1188419022D+01 EUMP2 =    -0.76177063431845D+03
 E2 =    -0.1187146456D+01 EUMP2 =    -0.76177389602571D+03
 E2 =    -0.1185983609D+01 EUMP2 =    -0.76177730791362D+03
 E2 =    -0.1184918149D+01 EUMP2 =    -0.76178084980838D+03
 E2 =    -0.1183938421D+01 EUMP2 =    -0.76178450258002D+03
 E2 =    -0.1183033619D+01 EUMP2 =    -0.76178824831153D+03
 E2 =    -0.1182193889D+01 EUMP2 =    -0.76179207038606D+03
 E2 =    -0.1181410369D+01 EUMP2 =    -0.76179595350521D+03
 E2 =    -0.1180675191D+01 EUMP2 =    -0.76179988366990D+03
 E2 =    -0.1149348069D+01 EUMP2 =    -0.76194241645667D+03
 E2 =    -0.1148887405D+01 EUMP2 =    -0.76194278014663D+03
 E2 =    -0.1148465478D+01 EUMP2 =    -0.76194311643445D+03
 E2 =    -0.1148081489D+01 EUMP2 =    -0.76194342645856D+03
 E2 =    -0.1147733825D+01 EUMP2 =    -0.76194371113516D+03
 E2 =    -0.1147420281D+01 EUMP2 =    -0.76194397119017D+03
 E2 =    -0.1147138289D+01 EUMP2 =    -0.76194420719723D+03
 E2 =    -0.1146885128D+01 EUMP2 =    -0.76194441962540D+03
 E2 =    -0.1146658091D+01 EUMP2 =    -0.76194460887353D+03
 E2 =    -0.1146454679D+01 EUMP2 =    -0.76194477532258D+03
 SCF Done:  E(RHF) =  -760.798646639     A.U. after   11 cycles
 E2 =    -0.1146272747D+01 EUMP2 =    -0.76194491938662D+03
 SCF Done:  E(RHF) =  -760.798930875     A.U. after   11 cycles
 E2 =    -0.1146110708D+01 EUMP2 =    -0.76194504158306D+03
 SCF Done:  E(RHF) =  -760.799174767     A.U. after   11 cycles
 E2 =    -0.1145967874D+01 EUMP2 =    -0.76194514264168D+03
 SCF Done:  E(RHF) =  -760.799378930     A.U. after   11 cycles
 E2 =    -0.1145844774D+01 EUMP2 =    -0.76194522370335D+03
 SCF Done:  E(RHF) =  -760.799542099     A.U. after   11 cycles
 E2 =    -0.1145744567D+01 EUMP2 =    -0.76194528666591D+03
 SCF Done:  E(RHF) =  -760.799665544     A.U. after   10 cycles
 E2 =    -0.1145669155D+01 EUMP2 =    -0.76194533469905D+03
 SCF Done:  E(RHF) =  -760.799734650     A.U. after   10 cycles
 E2 =    -0.1145637632D+01 EUMP2 =    -0.76194537228149D+03
 SCF Done:  E(RHF) =  -760.799880212     A.U. after   11 cycles
 E2 =    -0.1145518584D+01 EUMP2 =    -0.76194539879593D+03
 SCF Done:  E(RHF) =  -760.799810544     A.U. after   10 cycles
 E2 =    -0.1145593379D+01 EUMP2 =    -0.76194540392276D+03
 SCF Done:  E(RHF) =  -760.799823647     A.U. after   11 cycles
 E2 =    -0.1145609197D+01 EUMP2 =    -0.76194543284410D+03

                          Input orientation:
 ---------------------------------------------------------------------
 Center     Atomic      Atomic             Coordinates (Angstroms)
 Number     Number       Type             X           Y           Z
 ---------------------------------------------------------------------
      1          6           0        1.294612   -0.000752   -0.838731
      2          8           0        2.191235   -0.847261   -0.685785
      3          6           0       -0.189882   -0.270161   -0.539725
      4          6           0       -0.591439    0.148034    0.915967
      5          9           0       -1.510405    1.188127    0.910993
      6          9           0       -1.130750   -0.919900    1.621871
      7          9           0        0.551112    0.585714    1.608115
      8          9           0       -1.015636    0.412160   -1.454092
      9          9           0       -0.421905   -1.650750   -0.690423
     10          8           0        1.461658    1.301323   -1.249832
     11          1           0        2.412993    1.508305   -1.404448
 ---------------------------------------------------------------------

 Normal termination of Gaussian 16 at Sat May 24 03:12:29 2025.
