 Gaussian 16, Revision C.01,
 Gaussian 16:  ES64L-G16RevC.01  3-Jul-2019

 ----------------------------------------------------------------------
 #P M062X/Def2TZVPP Symm(None) scf(xqc) pop(None) geom(AllCheck,NoKeepC
 onstants) guess(Read) irc(RCFC,reverse,MaxPoints=100,StepSize=2)
 ----------------------------------------------------------------------

 Structure from the checkpoint file:  "1642764945472630600001_r13_insertion_ROR_4_3_1_2_IRC_R.chk"
 ------------------------------
 Gaussian input prepared by ASE
 ------------------------------
 Charge =  0 Multiplicity = 1

 SCF Done:  E(RM062X) =  -764.486367868     A.U. after   11 cycles
 SCF Done:  E(RM062X) =  -764.486466421     A.U. after   13 cycles
 SCF Done:  E(RM062X) =  -764.486624677     A.U. after   13 cycles
 SCF Done:  E(RM062X) =  -764.486837968     A.U. after   13 cycles
 SCF Done:  E(RM062X) =  -764.487101986     A.U. after   13 cycles
 SCF Done:  E(RM062X) =  -764.487412769     A.U. after   13 cycles
 SCF Done:  E(RM062X) =  -764.487766715     A.U. after   13 cycles
 SCF Done:  E(RM062X) =  -764.488160575     A.U. after   13 cycles
 SCF Done:  E(RM062X) =  -764.488591432     A.U. after   13 cycles
 SCF Done:  E(RM062X) =  -764.489056678     A.U. after   13 cycles
 SCF Done:  E(RM062X) =  -764.567803106     A.U. after    9 cycles
 SCF Done:  E(RM062X) =  -764.568925664     A.U. after    9 cycles
 SCF Done:  E(RM062X) =  -764.570047786     A.U. after    9 cycles
 SCF Done:  E(RM062X) =  -764.571169385     A.U. after    9 cycles
 SCF Done:  E(RM062X) =  -764.572290376     A.U. after    9 cycles
 SCF Done:  E(RM062X) =  -764.573410673     A.U. after    9 cycles
 SCF Done:  E(RM062X) =  -764.574530185     A.U. after    9 cycles
 SCF Done:  E(RM062X) =  -764.575648824     A.U. after    9 cycles
 SCF Done:  E(RM062X) =  -764.576766494     A.U. after    9 cycles
 SCF Done:  E(RM062X) =  -764.577883099     A.U. after    9 cycles

                          Input orientation:
 ---------------------------------------------------------------------
 Center     Atomic      Atomic             Coordinates (Angstroms)
 Number     Number       Type             X           Y           Z
 ---------------------------------------------------------------------
      1          6           0        1.154309    0.884750    0.079659
      2          8           0        0.387850    1.607437    0.632586
      3          6           0        0.684220   -0.544404   -0.136037
      4          6           0       -1.195255   -0.107229    0.037679
      5          9           0       -1.711771   -1.286684    0.300244
      6          9           0       -1.766689    0.693022    0.966158
      7          9           0       -1.590980    0.424074   -1.109842
      8          9           0        1.389656   -1.104691   -1.162293
      9          9           0        0.871058   -1.403779    0.857971
     10          8           0        2.314157    1.259538   -0.427273
     11          1           0        2.405020    2.207107   -0.250221
 ---------------------------------------------------------------------

 Normal termination of Gaussian 16 at Sat May 24 07:01:01 2025.
