 Gaussian 16, Revision C.01,
 Gaussian 16:  ES64L-G16RevC.01  3-Jul-2019

 -----------------------------------------------------------------
 #P M062X/Def2TZVPP Symm(None) scf(xqc) pop(None) freq opt(CalcFC)
 -----------------------------------------------------------------

 ------------------------------
 Gaussian input prepared by ASE
 ------------------------------
 Symbolic Z-matrix:
 Charge =  0 Multiplicity = 1

 SCF Done:  E(RM062X) =  -764.665755161     A.U. after   13 cycles
 SCF Done:  E(RM062X) =  -764.668044284     A.U. after   12 cycles
 SCF Done:  E(RM062X) =  -764.668202110     A.U. after   13 cycles
 SCF Done:  E(RM062X) =  -764.668244814     A.U. after   12 cycles
 SCF Done:  E(RM062X) =  -764.668262636     A.U. after   12 cycles
 SCF Done:  E(RM062X) =  -764.668264463     A.U. after   11 cycles
 SCF Done:  E(RM062X) =  -764.668264773     A.U. after    9 cycles
 Optimization completed.
    -- Stationary point found.
 Normal termination of Gaussian 16 at Sat May 24 05:28:16 2025.

 ---------------------------------------------------------------------
 #P Geom=AllCheck Guess=TCheck SCRF=Check GenChk RM062X/def2TZVPP Freq
 ---------------------------------------------------------------------

 Structure from the checkpoint file:  "1642764945472630600001_intra_H_migration_suprafacial_2_11_IRC_F_prod.chk"
 ------------------------------
 Gaussian input prepared by ASE
 ------------------------------
 Charge =  0 Multiplicity = 1

                          Input orientation:
 ---------------------------------------------------------------------
 Center     Atomic      Atomic             Coordinates (Angstroms)
 Number     Number       Type             X           Y           Z
 ---------------------------------------------------------------------
      1          6           0       -0.466225    1.304277   -0.716738
      2          8           0       -1.265113    0.829955   -1.666998
      3          6           0       -0.350488    0.297366    0.448320
      4          6           0        0.551598   -0.907582    0.103188
      5          9           0        0.718913   -1.666409    1.174152
      6          9           0        0.007400   -1.637881   -0.859348
      7          9           0        1.736900   -0.471127   -0.308184
      8          9           0        0.182119    0.916787    1.501637
      9          9           0       -1.562216   -0.172325    0.780862
     10          8           0        0.105973    2.345214   -0.727145
     11          1           0       -1.302404    1.477240   -2.384997
 ---------------------------------------------------------------------

 SCF Done:  E(RM062X) =  -764.668264773     A.U. after    1 cycles

 Isotropic polarizability for W=    0.000000       43.86 Bohr**3.
 End of Minotr F.D. properties file   721 does not exist.

                      1                      2                      3
                      A                      A                      A
 Frequencies --     17.0019                65.0302               144.7135
 Red. masses --     13.0249                16.4122                10.1228
 Frc consts  --      0.0022                 0.0409                 0.1249
 IR Inten    --      1.4187                 0.4207                 0.9930

                      4                      5                      6
                      A                      A                      A
 Frequencies --    214.8397               249.7949               287.5738
 Red. masses --     17.5084                12.1572                14.6268
 Frc consts  --      0.4761                 0.4469                 0.7127
 IR Inten    --      1.5086                 1.1371                 1.4483

                      7                      8                      9
                      A                      A                      A
 Frequencies --    359.8315               380.2508               384.0905
 Red. masses --     16.4876                15.5624                13.5122
 Frc consts  --      1.2578                 1.3258                 1.1745
 IR Inten    --      0.3858                 0.8115                 0.6526

                     10                     11                     12
                      A                      A                      A
 Frequencies --    504.6603               546.0080               551.3942
 Red. masses --      7.3419                 2.8311                 5.2831
 Frc consts  --      1.1017                 0.4973                 0.9464
 IR Inten    --      6.0430                24.4303                13.4193

                     13                     14                     15
                      A                      A                      A
 Frequencies --    616.4306               635.1457               692.7370
 Red. masses --      7.1143                 3.3465                 4.6064
 Frc consts  --      1.5928                 0.7954                 1.3024
 IR Inten    --     18.1948                74.3546               100.8333

                     16                     17                     18
                      A                      A                      A
 Frequencies --    789.3985               798.1022              1062.0970
 Red. masses --     12.3550                 8.7192                11.7721
 Frc consts  --      4.5361                 3.2722                 7.8241
 IR Inten    --      2.4522                20.7360               124.1550

                     19                     20                     21
                      A                      A                      A
 Frequencies --   1189.2959              1230.2634              1277.1786
 Red. masses --      3.1775                 4.1129                10.1665
 Frc consts  --      2.6480                 3.6677                 9.7707
 IR Inten    --    247.6537               186.8272                40.3732

                     22                     23                     24
                      A                      A                      A
 Frequencies --   1290.3430              1297.4724              1382.1781
 Red. masses --     13.2978                 7.5305                 7.8827
 Frc consts  --     13.0449                 7.4691                 8.8726
 IR Inten    --    361.5775               146.8260               127.4713

                     25                     26                     27
                      A                      A                      A
 Frequencies --   1436.6348              1920.5335              3808.7905
 Red. masses --      5.0691                11.7298                 1.0646
 Frc consts  --      6.1641                25.4908                 9.0996
 IR Inten    --     54.5626               330.2164               130.0356

 - Thermochemistry -
 -------------------
 Temperature   298.150 Kelvin.  Pressure   1.00000 Atm.
 Atom     1 has atomic number  6 and mass  12.00000

 Molecular mass:   163.98967 amu.
 Principal axes and moments of inertia in atomic units:
                           1         2         3
     Eigenvalues --   948.771301522.678741600.06900
           X           -0.38673   0.03952   0.92134
           Y            0.84877   0.40592   0.33886
           Z           -0.36060   0.91305  -0.19053
 This molecule is an asymmetric top.
 Rotational symmetry number  1.
 Warning -- assumption of classical behavior for rotation
           may cause significant error
 Rotational temperatures (Kelvin)      0.09129     0.05688     0.05413
 Rotational constants (GHZ):           1.90219     1.18524     1.12791
 Zero-point vibrational energy     138358.8 (Joules/Mol)
                                   33.06855 (Kcal/Mol)
 Warning -- explicit consideration of  13 degrees of freedom as
           vibrations may cause significant error
 Vibrational temperatures:     24.46    93.56   208.21   309.11   359.40
          (Kelvin)            413.75   517.72   547.10   552.62   726.09
                              785.58   793.33   886.91   913.83   996.69
                             1135.77  1148.29  1528.12  1711.13  1770.07
                             1837.58  1856.52  1866.77  1988.65  2067.00
                             2763.22  5480.00

 Zero-point correction=                           0.052698 (Hartree/Particle)
 Thermal correction to Energy=                    0.061641
 Thermal correction to Enthalpy=                  0.062585
 Thermal correction to Gibbs Free Energy=         0.016786
 Sum of electronic and zero-point Energies=           -764.615567
 Sum of electronic and thermal Energies=              -764.606624
 Sum of electronic and thermal Enthalpies=            -764.605680
 Sum of electronic and thermal Free Energies=         -764.651479

                     E (Thermal)             CV                S
                      KCal/Mol        Cal/Mol-Kelvin    Cal/Mol-Kelvin
 Total                   38.680             30.718             96.391
 Electronic               0.000              0.000              0.000
 Translational            0.889              2.981             41.192
 Rotational               0.889              2.981             29.226
 Vibrational             36.903             24.756             25.973
 Vibration     1          0.593              1.986              6.957
 Vibration     2          0.597              1.971              4.298
 Vibration     3          0.616              1.908              2.741
 Vibration     4          0.645              1.818              2.002
 Vibration     5          0.663              1.763              1.732
 Vibration     6          0.685              1.697              1.488
 Vibration     7          0.734              1.555              1.123
 Vibration     8          0.750              1.512              1.038
 Vibration     9          0.753              1.504              1.023
 Vibration    10          0.860              1.240              0.647
 Vibration    11          0.901              1.148              0.553
 Vibration    12          0.907              1.137              0.541
 Vibration    13          0.976              0.997              0.422

                           ! Non-Optimized Parameters !
 Normal termination of Gaussian 16 at Sat May 24 05:31:41 2025.
