 Gaussian 16, Revision C.01,
 Gaussian 16:  ES64L-G16RevC.01  3-Jul-2019

 -----------------------------------------------------------------
 #P M062X/Def2TZVPP Symm(None) scf(xqc) pop(None) freq opt(CalcFC)
 -----------------------------------------------------------------

 ------------------------------
 Gaussian input prepared by ASE
 ------------------------------
 Symbolic Z-matrix:
 Charge =  0 Multiplicity = 1

 SCF Done:  E(RM062X) =  -764.648366370     A.U. after   13 cycles
 SCF Done:  E(RM062X) =  -764.649983637     A.U. after   14 cycles
 SCF Done:  E(RM062X) =  -764.653443750     A.U. after   14 cycles
 SCF Done:  E(RM062X) =  -764.655298770     A.U. after   13 cycles
 SCF Done:  E(RM062X) =  -764.658102309     A.U. after   14 cycles
 SCF Done:  E(RM062X) =  -764.660240364     A.U. after   14 cycles
 SCF Done:  E(RM062X) =  -764.662208145     A.U. after   14 cycles
 SCF Done:  E(RM062X) =  -764.663498672     A.U. after   14 cycles
 SCF Done:  E(RM062X) =  -764.663966937     A.U. after   13 cycles
 SCF Done:  E(RM062X) =  -764.664188150     A.U. after   13 cycles
 SCF Done:  E(RM062X) =  -764.664469304     A.U. after   11 cycles
 SCF Done:  E(RM062X) =  -764.664487970     A.U. after   11 cycles
 SCF Done:  E(RM062X) =  -764.664501862     A.U. after   11 cycles
 SCF Done:  E(RM062X) =  -764.664524008     A.U. after   12 cycles
 SCF Done:  E(RM062X) =  -764.664532638     A.U. after   11 cycles
 SCF Done:  E(RM062X) =  -764.664549641     A.U. after   11 cycles
 SCF Done:  E(RM062X) =  -764.664558894     A.U. after   10 cycles
 SCF Done:  E(RM062X) =  -764.664562094     A.U. after    8 cycles
 SCF Done:  E(RM062X) =  -764.664562304     A.U. after    8 cycles
 Optimization completed.
    -- Stationary point found.
 Normal termination of Gaussian 16 at Sat May 24 06:56:58 2025.

 ---------------------------------------------------------------------
 #P Geom=AllCheck Guess=TCheck SCRF=Check GenChk RM062X/def2TZVPP Freq
 ---------------------------------------------------------------------

 Structure from the checkpoint file:  "1642764945472630600001_r12_insertion_R_5_4_6_IRC_R_prod.chk"
 ------------------------------
 Gaussian input prepared by ASE
 ------------------------------
 Charge =  0 Multiplicity = 1

                          Input orientation:
 ---------------------------------------------------------------------
 Center     Atomic      Atomic             Coordinates (Angstroms)
 Number     Number       Type             X           Y           Z
 ---------------------------------------------------------------------
      1          6           0        1.399041   -0.386205   -0.474448
      2          8           0        1.869136   -1.426853   -0.158260
      3          6           0       -0.133639   -0.166481   -0.413926
      4          6           0       -0.632087    0.025140    1.032583
      5          9           0       -1.924594    0.310788    1.032033
      6          9           0       -0.428826   -1.064992    1.746963
      7          9           0        0.032219    1.039264    1.585221
      8          9           0       -0.472882    0.950494   -1.101438
      9          9           0       -0.764437   -1.207500   -0.952593
     10          8           0        2.106468    0.664440   -0.876506
     11          1           0        1.535706    1.401127   -1.126728
 ---------------------------------------------------------------------

 SCF Done:  E(RM062X) =  -764.664562304     A.U. after    1 cycles

 Isotropic polarizability for W=    0.000000       43.63 Bohr**3.
 End of Minotr F.D. properties file   721 does not exist.

                      1                      2                      3
                      A                      A                      A
 Frequencies --     28.1595                64.2053               142.7667
 Red. masses --      9.1901                15.0251                16.7190
 Frc consts  --      0.0043                 0.0365                 0.2008
 IR Inten    --      4.4355                 0.8086                 2.4309

                      4                      5                      6
                      A                      A                      A
 Frequencies --    215.3837               266.6609               293.5356
 Red. masses --     16.9299                13.6581                17.3890
 Frc consts  --      0.4627                 0.5722                 0.8828
 IR Inten    --      3.9728                 5.6642                 6.0993

                      7                      8                      9
                      A                      A                      A
 Frequencies --    360.2161               376.8825               395.4262
 Red. masses --     16.6765                 9.3756                15.9481
 Frc consts  --      1.2749                 0.7846                 1.4692
 IR Inten    --      0.5566                 6.9577                 2.6156

                     10                     11                     12
                      A                      A                      A
 Frequencies --    509.8694               518.1463               548.4743
 Red. masses --      1.5159                 4.2229                11.2465
 Frc consts  --      0.2322                 0.6680                 1.9933
 IR Inten    --    107.9881                11.2526                11.6773

                     13                     14                     15
                      A                      A                      A
 Frequencies --    592.7425               625.3983               710.1843
 Red. masses --      9.7667                14.6465                 9.1978
 Frc consts  --      2.0218                 3.3752                 2.7332
 IR Inten    --      6.3781                 3.2011                34.1441

                     16                     17                     18
                      A                      A                      A
 Frequencies --    781.2259               798.2828              1055.4740
 Red. masses --     12.2323                13.0187                13.3115
 Frc consts  --      4.3986                 4.8880                 8.7372
 IR Inten    --      1.4341                15.1935               147.0010

                     19                     20                     21
                      A                      A                      A
 Frequencies --   1177.1818              1247.4009              1266.5501
 Red. masses --      4.9005                 2.1343                11.5896
 Frc consts  --      4.0010                 1.9567                10.9538
 IR Inten    --     94.3316               126.6790               292.1249

                     22                     23                     24
                      A                      A                      A
 Frequencies --   1281.1497              1309.9783              1376.9424
 Red. masses --      5.8984                13.1241                 6.7435
 Frc consts  --      5.7041                13.2693                 7.5330
 IR Inten    --     76.5978               263.4760               328.0660

                     25                     26                     27
                      A                      A                      A
 Frequencies --   1413.4089              1942.4768              3842.0056
 Red. masses --      6.4664                11.4967                 1.0657
 Frc consts  --      7.6111                25.5585                 9.2683
 IR Inten    --     87.8230               292.4040               138.1555

 - Thermochemistry -
 -------------------
 Temperature   298.150 Kelvin.  Pressure   1.00000 Atm.
 Atom     1 has atomic number  6 and mass  12.00000

 Molecular mass:   163.98967 amu.
 Principal axes and moments of inertia in atomic units:
                           1         2         3
     Eigenvalues --   948.552201533.932961593.05903
           X            0.81189   0.44653   0.37608
           Y           -0.08898  -0.54201   0.83565
           Z           -0.57698   0.71192   0.40033
 This molecule is an asymmetric top.
 Rotational symmetry number  1.
 Warning -- assumption of classical behavior for rotation
           may cause significant error
 Rotational temperatures (Kelvin)      0.09131     0.05647     0.05437
 Rotational constants (GHZ):           1.90263     1.17655     1.13288
 Zero-point vibrational energy     138408.7 (Joules/Mol)
                                   33.08047 (Kcal/Mol)
 Warning -- explicit consideration of  13 degrees of freedom as
           vibrations may cause significant error
 Vibrational temperatures:     40.52    92.38   205.41   309.89   383.67
          (Kelvin)            422.33   518.27   542.25   568.93   733.59
                              745.50   789.13   852.82   899.81  1021.80
                             1124.01  1148.55  1518.59  1693.70  1794.73
                             1822.28  1843.29  1884.77  1981.11  2033.58
                             2794.79  5527.79

 Zero-point correction=                           0.052717 (Hartree/Particle)
 Thermal correction to Energy=                    0.061632
 Thermal correction to Enthalpy=                  0.062576
 Thermal correction to Gibbs Free Energy=         0.017268
 Sum of electronic and zero-point Energies=           -764.611845
 Sum of electronic and thermal Energies=              -764.602930
 Sum of electronic and thermal Enthalpies=            -764.601986
 Sum of electronic and thermal Free Energies=         -764.647294

                     E (Thermal)             CV                S
                      KCal/Mol        Cal/Mol-Kelvin    Cal/Mol-Kelvin
 Total                   38.675             30.784             95.359
 Electronic               0.000              0.000              0.000
 Translational            0.889              2.981             41.192
 Rotational               0.889              2.981             29.229
 Vibrational             36.897             24.822             24.938
 Vibration     1          0.593              1.984              5.955
 Vibration     2          0.597              1.971              4.324
 Vibration     3          0.616              1.910              2.766
 Vibration     4          0.645              1.818              1.998
 Vibration     5          0.672              1.734              1.618
 Vibration     6          0.688              1.686              1.453
 Vibration     7          0.735              1.554              1.121
 Vibration     8          0.747              1.519              1.052
 Vibration     9          0.762              1.480              0.980
 Vibration    10          0.865              1.228              0.634
 Vibration    11          0.873              1.210              0.614
 Vibration    12          0.904              1.143              0.547
 Vibration    13          0.950              1.047              0.462

 Optimization completed.
    -- Stationary point found.
 Normal termination of Gaussian 16 at Sat May 24 07:00:30 2025.
