 Gaussian 16, Revision C.01,
 Gaussian 16:  ES64L-G16RevC.01  3-Jul-2019

 ----------------------------------------------------------------------
 #P M062X/Def2TZVPP Symm(None) scf(xqc) pop(None) geom(AllCheck,NoKeepC
 onstants) guess(Read) irc(RCFC,forward,MaxPoints=100,StepSize=2)
 ----------------------------------------------------------------------

 Structure from the checkpoint file:  "1642764945472630600001_r12_insertion_R_3_1_10_IRC_F.chk"
 ------------------------------
 Gaussian input prepared by ASE
 ------------------------------
 Charge =  0 Multiplicity = 1

 SCF Done:  E(RM062X) =  -764.544698869     A.U. after   10 cycles
 SCF Done:  E(RM062X) =  -764.547106313     A.U. after   11 cycles
 SCF Done:  E(RM062X) =  -764.551793566     A.U. after   10 cycles
 SCF Done:  E(RM062X) =  -764.556362640     A.U. after   10 cycles
 SCF Done:  E(RM062X) =  -764.560808299     A.U. after   10 cycles
 SCF Done:  E(RM062X) =  -764.565124806     A.U. after   10 cycles
 SCF Done:  E(RM062X) =  -764.569306261     A.U. after   10 cycles
 SCF Done:  E(RM062X) =  -764.573346781     A.U. after   10 cycles
 SCF Done:  E(RM062X) =  -764.577240623     A.U. after   10 cycles
 SCF Done:  E(RM062X) =  -764.580982327     A.U. after   10 cycles
 SCF Done:  E(RM062X) =  -764.666464189     A.U. after    9 cycles
 SCF Done:  E(RM062X) =  -764.666621857     A.U. after    9 cycles
 SCF Done:  E(RM062X) =  -764.666767979     A.U. after    9 cycles
 SCF Done:  E(RM062X) =  -764.666902815     A.U. after    9 cycles
 SCF Done:  E(RM062X) =  -764.667026668     A.U. after    9 cycles
 SCF Done:  E(RM062X) =  -764.667139887     A.U. after    9 cycles
 SCF Done:  E(RM062X) =  -764.667242879     A.U. after    9 cycles
 SCF Done:  E(RM062X) =  -764.667336099     A.U. after    9 cycles
 SCF Done:  E(RM062X) =  -764.667420046     A.U. after    9 cycles
 SCF Done:  E(RM062X) =  -764.667495066     A.U. after    9 cycles

                          Input orientation:
 ---------------------------------------------------------------------
 Center     Atomic      Atomic             Coordinates (Angstroms)
 Number     Number       Type             X           Y           Z
 ---------------------------------------------------------------------
      1          6           0        1.384081   -0.293160   -0.570150
      2          8           0        1.994274   -1.292568   -0.762411
      3          6           0       -0.155464   -0.198088   -0.601645
      4          6           0       -0.698950    0.254379    0.777007
      5          9           0       -1.973600   -0.069254    0.912921
      6          9           0        0.001689   -0.360230    1.730512
      7          9           0       -0.570627    1.561690    0.926865
      8          9           0       -0.534101    0.687104   -1.536943
      9          9           0       -0.678203   -1.386100   -0.894838
     10          8           0        1.888615    0.903328   -0.278356
     11          1           0        2.852881    0.832512   -0.243857
 ---------------------------------------------------------------------

 Normal termination of Gaussian 16 at Sat May 24 04:17:49 2025.
