 Gaussian 16, Revision C.01,
 Gaussian 16:  ES64L-G16RevC.01  3-Jul-2019

 ----------------------------------------------------------------------
 #P mp2/6-31G Symm(None) scf(xqc) pop(None) guess(Read,Mix) geom(AllChe
 ck,NoKeepConstants) irc(RCFC,reverse,MaxPoints=100,StepSize=2)
 ----------------------------------------------------------------------

 Structure from the checkpoint file:  "1642764945472630600001_R_Addition_MultipleBond_1_10_11_IRC_R.chk"
 ------------------------------
 Gaussian input prepared by ASE
 ------------------------------
 Charge =  0 Multiplicity = 1

 SCF Done:  E(RHF) =  -760.701980602     A.U. after   16 cycles
 E2 =    -0.1175994343D+01 EUMP2 =    -0.76187797494492D+03
 SCF Done:  E(RHF) =  -760.702123350     A.U. after   11 cycles
 E2 =    -0.1175944661D+01 EUMP2 =    -0.76187806801074D+03
 SCF Done:  E(RHF) =  -760.702370423     A.U. after   11 cycles
 E2 =    -0.1175852519D+01 EUMP2 =    -0.76187822294200D+03
 SCF Done:  E(RHF) =  -760.702720775     A.U. after   11 cycles
 E2 =    -0.1175718689D+01 EUMP2 =    -0.76187843946451D+03
 SCF Done:  E(RHF) =  -760.703173215     A.U. after   11 cycles
 E2 =    -0.1175543984D+01 EUMP2 =    -0.76187871719877D+03
 SCF Done:  E(RHF) =  -760.703726186     A.U. after   11 cycles
 E2 =    -0.1175329465D+01 EUMP2 =    -0.76187905565120D+03
 SCF Done:  E(RHF) =  -760.704377796     A.U. after   11 cycles
 E2 =    -0.1175076412D+01 EUMP2 =    -0.76187945420825D+03
 SCF Done:  E(RHF) =  -760.705125833     A.U. after   11 cycles
 E2 =    -0.1174786297D+01 EUMP2 =    -0.76187991212977D+03
 SCF Done:  E(RHF) =  -760.705967791     A.U. after   11 cycles
 E2 =    -0.1174460751D+01 EUMP2 =    -0.76188042854215D+03
 SCF Done:  E(RHF) =  -760.706900886     A.U. after   11 cycles
 E2 =    -0.1174101546D+01 EUMP2 =    -0.76188100243188D+03
 E2 =    -0.1173710555D+01 EUMP2 =    -0.76188163263910D+03
 E2 =    -0.1173289735D+01 EUMP2 =    -0.76188231785268D+03
 E2 =    -0.1172841089D+01 EUMP2 =    -0.76188305660603D+03
 E2 =    -0.1172366653D+01 EUMP2 =    -0.76188384727430D+03
 E2 =    -0.1171868464D+01 EUMP2 =    -0.76188468807343D+03
 E2 =    -0.1171348544D+01 EUMP2 =    -0.76188557706038D+03
 E2 =    -0.1170808883D+01 EUMP2 =    -0.76188651213512D+03
 E2 =    -0.1170251423D+01 EUMP2 =    -0.76188749104409D+03
 E2 =    -0.1169678048D+01 EUMP2 =    -0.76188851138511D+03
 E2 =    -0.1169090573D+01 EUMP2 =    -0.76188957061362D+03
 E2 =    -0.1144947247D+01 EUMP2 =    -0.76194193859626D+03
 E2 =    -0.1144901845D+01 EUMP2 =    -0.76194225439938D+03
 E2 =    -0.1144864614D+01 EUMP2 =    -0.76194256059440D+03
 E2 =    -0.1144835204D+01 EUMP2 =    -0.76194285751043D+03
 E2 =    -0.1144813242D+01 EUMP2 =    -0.76194314545098D+03
 E2 =    -0.1144798342D+01 EUMP2 =    -0.76194342469552D+03
 E2 =    -0.1144790100D+01 EUMP2 =    -0.76194369550120D+03
 E2 =    -0.1144788107D+01 EUMP2 =    -0.76194395810455D+03
 E2 =    -0.1144791947D+01 EUMP2 =    -0.76194421272348D+03
 E2 =    -0.1144801203D+01 EUMP2 =    -0.76194445955911D+03
 SCF Done:  E(RHF) =  -760.799883342     A.U. after   10 cycles
 E2 =    -0.1144815455D+01 EUMP2 =    -0.76194469879764D+03
 SCF Done:  E(RHF) =  -760.800096322     A.U. after   10 cycles
 E2 =    -0.1144834291D+01 EUMP2 =    -0.76194493061221D+03
 SCF Done:  E(RHF) =  -760.800297866     A.U. after   10 cycles
 E2 =    -0.1144857299D+01 EUMP2 =    -0.76194515516465D+03
 SCF Done:  E(RHF) =  -760.800488530     A.U. after   10 cycles
 E2 =    -0.1144884077D+01 EUMP2 =    -0.76194537260707D+03
 SCF Done:  E(RHF) =  -760.800668855     A.U. after   10 cycles
 E2 =    -0.1144914228D+01 EUMP2 =    -0.76194558308347D+03
 SCF Done:  E(RHF) =  -760.800839365     A.U. after   10 cycles
 E2 =    -0.1144947366D+01 EUMP2 =    -0.76194578673109D+03
 SCF Done:  E(RHF) =  -760.801000570     A.U. after    9 cycles
 E2 =    -0.1144983123D+01 EUMP2 =    -0.76194598369343D+03
 SCF Done:  E(RHF) =  -760.801152968     A.U. after    9 cycles
 E2 =    -0.1145021107D+01 EUMP2 =    -0.76194617407487D+03
 SCF Done:  E(RHF) =  -760.801297039     A.U. after    9 cycles
 E2 =    -0.1145060972D+01 EUMP2 =    -0.76194635801140D+03
 SCF Done:  E(RHF) =  -760.801433260     A.U. after    9 cycles
 E2 =    -0.1145102365D+01 EUMP2 =    -0.76194653562536D+03

                          Input orientation:
 ---------------------------------------------------------------------
 Center     Atomic      Atomic             Coordinates (Angstroms)
 Number     Number       Type             X           Y           Z
 ---------------------------------------------------------------------
      1          6           0        1.438440   -0.106249   -0.598540
      2          8           0        2.187694   -1.054394   -0.886041
      3          6           0       -0.106769   -0.198998   -0.549365
      4          6           0       -0.767933    0.185504    0.786745
      5          9           0       -2.118166   -0.148346    0.795958
      6          9           0       -0.126072   -0.506129    1.819452
      7          9           0       -0.642344    1.550269    1.018559
      8          9           0       -0.681096    0.607953   -1.561788
      9          9           0       -0.451959   -1.542517   -0.811265
     10          8           0        1.977411    1.124708   -0.315650
     11          1           0        2.958174    1.040699   -0.397386
 ---------------------------------------------------------------------

 Normal termination of Gaussian 16 at Sat May 24 03:09:57 2025.
