 Gaussian 16, Revision C.01,
 Gaussian 16:  ES64L-G16RevC.01  3-Jul-2019

 ----------------------------------------------------------------------
 #P M062X/Def2TZVPP Symm(None) scf(xqc) pop(None) opt(NoFreeze,TS,CalcA
 ll,NoEigentest,MaxCycle=999)
 ----------------------------------------------------------------------

 ------------------------------
 Gaussian input prepared by ASE
 ------------------------------
 Symbolic Z-matrix:
 Charge =  0 Multiplicity = 1

 SCF Done:  E(RM062X) =  -764.421114417     A.U. after   18 cycles
 SCF Done:  E(RM062X) =  -764.416756846     A.U. after   16 cycles
 SCF Done:  E(RM062X) =  -764.416546065     A.U. after   16 cycles
 SCF Done:  E(RM062X) =  -764.420862422     A.U. after   16 cycles
 SCF Done:  E(RM062X) =  -764.427271449     A.U. after   16 cycles
 SCF Done:  E(RM062X) =  -764.434562170     A.U. after   15 cycles
 SCF Done:  E(RM062X) =  -764.441673062     A.U. after   15 cycles
 SCF Done:  E(RM062X) =  -764.447770197     A.U. after   14 cycles
 SCF Done:  E(RM062X) =  -764.453110636     A.U. after   15 cycles
 SCF Done:  E(RM062X) =  -764.457236054     A.U. after   14 cycles
 SCF Done:  E(RM062X) =  -764.460150585     A.U. after   14 cycles
 SCF Done:  E(RM062X) =  -764.462464301     A.U. after   14 cycles
 SCF Done:  E(RM062X) =  -764.463850700     A.U. after   14 cycles
 SCF Done:  E(RM062X) =  -764.464498735     A.U. after   14 cycles
 SCF Done:  E(RM062X) =  -764.464709594     A.U. after   14 cycles
 SCF Done:  E(RM062X) =  -764.464726333     A.U. after   13 cycles
 SCF Done:  E(RM062X) =  -764.464726457     A.U. after   10 cycles

 Isotropic polarizability for W=    0.000000       57.39 Bohr**3.
 End of Minotr F.D. properties file   721 does not exist.

 Optimization completed.
    -- Stationary point found.

                          Input orientation:
 ---------------------------------------------------------------------
 Center     Atomic      Atomic             Coordinates (Angstroms)
 Number     Number       Type             X           Y           Z
 ---------------------------------------------------------------------
      1          6           0        2.170748    1.158176   -0.054948
      2          8           0        2.561937    2.055838   -0.740280
      3          6           0        2.105801   -0.228341   -0.160550
      4          6           0       -0.180187    0.620173    0.034877
      5          9           0       -0.409314   -0.579013    0.440511
      6          9           0       -1.074645    1.419106    0.579708
      7          9           0       -0.206887    0.822915   -1.244502
      8          9           0        2.821273   -0.827092   -1.104596
      9          9           0        2.022912   -0.992320    0.932745
     10          8           0        1.166501    1.497850    0.999750
     11          1           0        1.033874    2.457118    0.937994
 ---------------------------------------------------------------------

 ******    1 imaginary frequencies (negative Signs) ******

                      1                      2                      3
                      A                      A                      A
 Frequencies --   -643.5976                50.4884                92.8054
 Red. masses --     10.4945                16.3380                13.3539
 Frc consts  --      2.5612                 0.0245                 0.0678
 IR Inten    --    179.3964                 0.7090                 9.5523

                      4                      5                      6
                      A                      A                      A
 Frequencies --    121.2696               210.1627               216.6119
 Red. masses --     16.7078                18.0907                11.7465
 Frc consts  --      0.1448                 0.4708                 0.3247
 IR Inten    --     15.9126                 7.6978                 2.7912

                      7                      8                      9
                      A                      A                      A
 Frequencies --    279.8183               344.3690               374.1158
 Red. masses --     12.7821                11.2065                12.3155
 Frc consts  --      0.5897                 0.7830                 1.0156
 IR Inten    --     15.5025                32.5759                13.2576

                     10                     11                     12
                      A                      A                      A
 Frequencies --    405.7428               514.5445               532.0787
 Red. masses --      9.9885                 6.2726                 9.1758
 Frc consts  --      0.9688                 0.9785                 1.5305
 IR Inten    --     12.2695                43.1372                10.1755

                     13                     14                     15
                      A                      A                      A
 Frequencies --    566.3205               592.0332               624.5575
 Red. masses --      4.3361                15.7834                 6.5423
 Frc consts  --      0.8194                 3.2594                 1.5036
 IR Inten    --     60.0197                 4.9078                70.4599

                     16                     17                     18
                      A                      A                      A
 Frequencies --    684.0907               732.7007               766.6402
 Red. masses --      5.0787                 3.7700                 4.5081
 Frc consts  --      1.4003                 1.1925                 1.5611
 IR Inten    --     36.5865               348.3625                23.7395

                     19                     20                     21
                      A                      A                      A
 Frequencies --    906.5912               955.1912              1153.8956
 Red. masses --      3.7830                13.3107                 1.6259
 Frc consts  --      1.8319                 7.1554                 1.2755
 IR Inten    --     91.0430               535.1871                69.2434

                     22                     23                     24
                      A                      A                      A
 Frequencies --   1264.4258              1314.4703              1425.5765
 Red. masses --     11.5851                11.9905                12.4581
 Frc consts  --     10.9128                12.2064                14.9171
 IR Inten    --    500.3363               256.6364               225.4220

                     25                     26                     27
                      A                      A                      A
 Frequencies --   1449.3206              1899.9034              3769.7453
 Red. masses --     12.9335                10.9510                 1.0659
 Frc consts  --     16.0064                23.2899                 8.9247
 IR Inten    --    218.6915               579.6921               208.5093

 - Thermochemistry -
 -------------------
 Temperature   298.150 Kelvin.  Pressure   1.00000 Atm.
 Atom     1 has atomic number  6 and mass  12.00000

 Molecular mass:   163.98967 amu.
 Principal axes and moments of inertia in atomic units:
                           1         2         3
     Eigenvalues --   952.815031551.513301838.86368
           X            0.93919   0.25277   0.23244
           Y           -0.29624   0.93873   0.17614
           Z           -0.17368  -0.23429   0.95653
 This molecule is an asymmetric top.
 Rotational symmetry number  1.
 Warning -- assumption of classical behavior for rotation
           may cause significant error
 Rotational temperatures (Kelvin)      0.09090     0.05583     0.04710
 Rotational constants (GHZ):           1.89411     1.16321     0.98144
    1 imaginary frequencies ignored.
 Zero-point vibrational energy     127088.1 (Joules/Mol)
                                   30.37478 (Kcal/Mol)
 Warning -- explicit consideration of  13 degrees of freedom as
           vibrations may cause significant error
 Vibrational temperatures:     72.64   133.53   174.48   302.38   311.66
          (Kelvin)            402.60   495.47   538.27   583.77   740.31
                              765.54   814.81   851.80   898.60   984.25
                             1054.19  1103.02  1304.38  1374.31  1660.20
                             1819.23  1891.23  2051.09  2085.25  2733.54
                             5423.82

 Zero-point correction=                           0.048405 (Hartree/Particle)
 Thermal correction to Energy=                    0.057415
 Thermal correction to Enthalpy=                  0.058359
 Thermal correction to Gibbs Free Energy=         0.013399
 Sum of electronic and zero-point Energies=           -764.416321
 Sum of electronic and thermal Energies=              -764.407311
 Sum of electronic and thermal Enthalpies=            -764.406367
 Sum of electronic and thermal Free Energies=         -764.451328

                     E (Thermal)             CV                S
                      KCal/Mol        Cal/Mol-Kelvin    Cal/Mol-Kelvin
 Total                   36.029             31.280             94.628
 Electronic               0.000              0.000              0.000
 Translational            0.889              2.981             41.192
 Rotational               0.889              2.981             29.387
 Vibrational             34.251             25.318             24.048
 Vibration     1          0.595              1.977              4.798
 Vibration     2          0.602              1.954              3.600
 Vibration     3          0.609              1.931              3.080
 Vibration     4          0.642              1.825              2.042
 Vibration     5          0.645              1.816              1.987
 Vibration     6          0.680              1.711              1.535
 Vibration     7          0.723              1.587              1.192
 Vibration     8          0.745              1.525              1.063
 Vibration     9          0.771              1.458              0.942
 Vibration    10          0.870              1.218              0.623
 Vibration    11          0.887              1.179              0.583
 Vibration    12          0.922              1.104              0.511
 Vibration    13          0.950              1.049              0.464

 Normal termination of Gaussian 16 at Sat May 24 06:11:32 2025.
