 Gaussian 16, Revision C.01,
 Gaussian 16:  ES64L-G16RevC.01  3-Jul-2019

 -----------------------------------------------------------------
 #P M062X/Def2TZVPP Symm(None) scf(xqc) pop(None) freq opt(CalcFC)
 -----------------------------------------------------------------

 ------------------------------
 Gaussian input prepared by ASE
 ------------------------------
 Symbolic Z-matrix:
 Charge =  0 Multiplicity = 1

 SCF Done:  E(RM062X) =  -764.558458907     A.U. after   14 cycles
 SCF Done:  E(RM062X) =  -764.566220253     A.U. after   13 cycles
 SCF Done:  E(RM062X) =  -764.575715194     A.U. after   13 cycles
 SCF Done:  E(RM062X) =  -764.578086714     A.U. after   16 cycles
 SCF Done:  E(RM062X) =  -764.567500664     A.U. after   14 cycles
 SCF Done:  E(RM062X) =  -764.580023238     A.U. after   14 cycles
 SCF Done:  E(RM062X) =  -764.540441724     A.U. after   13 cycles
 SCF Done:  E(RM062X) =  -764.580265081     A.U. after   12 cycles
 SCF Done:  E(RM062X) =  -764.580312118     A.U. after   11 cycles
 SCF Done:  E(RM062X) =  -764.580337592     A.U. after   12 cycles
 SCF Done:  E(RM062X) =  -764.580346855     A.U. after   11 cycles
 SCF Done:  E(RM062X) =  -764.580354750     A.U. after    9 cycles
 SCF Done:  E(RM062X) =  -764.580359084     A.U. after   10 cycles
 SCF Done:  E(RM062X) =  -764.580362156     A.U. after   10 cycles
 SCF Done:  E(RM062X) =  -764.580362807     A.U. after    8 cycles
 SCF Done:  E(RM062X) =  -764.580362860     A.U. after    7 cycles
 SCF Done:  E(RM062X) =  -764.580362904     A.U. after    7 cycles
 SCF Done:  E(RM062X) =  -764.580362917     A.U. after    7 cycles
 Optimization completed.
    -- Stationary point found.
 Normal termination of Gaussian 16 at Sat May 24 03:47:38 2025.

 ---------------------------------------------------------------------
 #P Geom=AllCheck Guess=TCheck SCRF=Check GenChk RM062X/def2TZVPP Freq
 ---------------------------------------------------------------------

 Structure from the checkpoint file:  "1642764945472630600001_r12_insertion_R_1_3_4_IRC_R_prod.chk"
 ------------------------------
 Gaussian input prepared by ASE
 ------------------------------
 Charge =  0 Multiplicity = 1

                          Input orientation:
 ---------------------------------------------------------------------
 Center     Atomic      Atomic             Coordinates (Angstroms)
 Number     Number       Type             X           Y           Z
 ---------------------------------------------------------------------
      1          6           0        1.261145    0.266078    0.275186
      2          8           0        1.808964   -0.785010    0.183713
      3          6           0       -0.790993   -0.683127   -1.746486
      4          6           0        0.016532    0.481725    1.161466
      5          9           0       -0.809727    1.391549    0.664456
      6          9           0       -0.642907   -0.656466    1.312595
      7          9           0        0.418185    0.897670    2.364058
      8          9           0       -1.810650   -0.426029   -2.495570
      9          9           0       -0.682926   -1.966737   -1.757121
     10          8           0        1.644344    1.411201   -0.275950
     11          1           0        2.451971    1.245888   -0.781278
 ---------------------------------------------------------------------

 SCF Done:  E(RM062X) =  -764.580362917     A.U. after    1 cycles

 Isotropic polarizability for W=    0.000000       46.15 Bohr**3.
 End of Minotr F.D. properties file   721 does not exist.

                      1                      2                      3
                      A                      A                      A
 Frequencies --     12.3581                32.0338                36.8744
 Red. masses --     17.4785                17.9481                14.4331
 Frc consts  --      0.0016                 0.0109                 0.0116
 IR Inten    --      0.1679                 0.5118                 1.4612

                      4                      5                      6
                      A                      A                      A
 Frequencies --     59.2343                76.4169               105.2113
 Red. masses --     11.7008                16.0829                15.4579
 Frc consts  --      0.0242                 0.0553                 0.1008
 IR Inten    --      2.4359                 0.0112                 0.2218

                      7                      8                      9
                      A                      A                      A
 Frequencies --    153.8977               243.1713               246.7987
 Red. masses --     11.7556                10.4064                10.4289
 Frc consts  --      0.1640                 0.3626                 0.3743
 IR Inten    --      0.4223                 1.1665                 0.4803

                     10                     11                     12
                      A                      A                      A
 Frequencies --    395.0524               434.3702               513.6563
 Red. masses --     11.7178                15.6886                 4.3269
 Frc consts  --      1.0775                 1.7440                 0.6726
 IR Inten    --      2.3560                 0.0999                 2.3381

                     13                     14                     15
                      A                      A                      A
 Frequencies --    592.6617               601.0423               681.5659
 Red. masses --      1.5274                11.0587                 4.8803
 Frc consts  --      0.3161                 2.3538                 1.3357
 IR Inten    --    103.2637                11.4549                76.0209

                     16                     17                     18
                      A                      A                      A
 Frequencies --    694.8677               800.4006               824.7030
 Red. masses --     17.6493                 9.7216                 8.7215
 Frc consts  --      5.0209                 3.6695                 3.4949
 IR Inten    --      6.0251                56.3939                 6.1520

                     19                     20                     21
                      A                      A                      A
 Frequencies --   1177.9660              1205.8901              1235.6586
 Red. masses --      4.2257                13.6548                 5.1666
 Frc consts  --      3.4547                11.6991                 4.6479
 IR Inten    --    285.8976               309.0841               322.6460

                     22                     23                     24
                      A                      A                      A
 Frequencies --   1256.7338              1299.5675              1304.9589
 Red. masses --      3.4565                 9.1455                10.9736
 Frc consts  --      3.2164                 9.1003                11.0102
 IR Inten    --    242.6673                98.1433               194.6911

                     25                     26                     27
                      A                      A                      A
 Frequencies --   1463.6115              1922.7398              3816.5413
 Red. masses --      5.4505                11.6450                 1.0646
 Frc consts  --      6.8792                25.3648                 9.1364
 IR Inten    --     61.3995               305.6281               119.5996

 - Thermochemistry -
 -------------------
 Temperature   298.150 Kelvin.  Pressure   1.00000 Atm.
 Atom     1 has atomic number  6 and mass  12.00000

 Molecular mass:   163.98967 amu.
 Principal axes and moments of inertia in atomic units:
                           1         2         3
     Eigenvalues --   992.262902252.933982417.63725
           X            0.41555   0.90954   0.00808
           Y            0.42456  -0.20182   0.88262
           Z            0.80441  -0.36334  -0.47001
 This molecule is an asymmetric top.
 Rotational symmetry number  1.
 Warning -- assumption of classical behavior for rotation
           may cause significant error
 Rotational temperatures (Kelvin)      0.08729     0.03844     0.03583
 Rotational constants (GHZ):           1.81881     0.80106     0.74649
 Zero-point vibrational energy     126732.3 (Joules/Mol)
                                   30.28974 (Kcal/Mol)
 Warning -- explicit consideration of  14 degrees of freedom as
           vibrations may cause significant error
 Vibrational temperatures:     17.78    46.09    53.05    85.22   109.95
          (Kelvin)            151.38   221.42   349.87   355.09   568.39
                              624.96   739.04   852.71   864.77   980.62
                              999.76  1151.60  1186.56  1694.83  1735.01
                             1777.84  1808.16  1869.79  1877.54  2105.81
                             2766.39  5491.15

 Zero-point correction=                           0.048270 (Hartree/Particle)
 Thermal correction to Energy=                    0.059305
 Thermal correction to Enthalpy=                  0.060249
 Thermal correction to Gibbs Free Energy=         0.006764
 Sum of electronic and zero-point Energies=           -764.532093
 Sum of electronic and thermal Energies=              -764.521058
 Sum of electronic and thermal Enthalpies=            -764.520114
 Sum of electronic and thermal Free Energies=         -764.573599

                     E (Thermal)             CV                S
                      KCal/Mol        Cal/Mol-Kelvin    Cal/Mol-Kelvin
 Total                   37.214             33.544            112.568
 Electronic               0.000              0.000              0.000
 Translational            0.889              2.981             41.192
 Rotational               0.889              2.981             30.070
 Vibrational             35.437             27.583             41.306
 Vibration     1          0.593              1.987              7.590
 Vibration     2          0.594              1.983              5.699
 Vibration     3          0.594              1.982              5.420
 Vibration     4          0.597              1.974              4.483
 Vibration     5          0.599              1.965              3.981
 Vibration     6          0.605              1.945              3.355
 Vibration     7          0.619              1.898              2.623
 Vibration     8          0.659              1.774              1.780
 Vibration     9          0.661              1.768              1.753
 Vibration    10          0.762              1.481              0.981
 Vibration    11          0.795              1.395              0.844
 Vibration    12          0.869              1.220              0.625
 Vibration    13          0.950              1.047              0.462
 Vibration    14          0.959              1.030              0.448

                           ! Non-Optimized Parameters !
 Normal termination of Gaussian 16 at Sat May 24 03:50:39 2025.
