 Gaussian 16, Revision C.01,
 Gaussian 16:  ES64L-G16RevC.01  3-Jul-2019

 ----------------------------------------------------------------------
 #P M062X/Def2TZVPP Symm(None) scf(xqc) pop(None) geom(AllCheck,NoKeepC
 onstants) guess(Read) irc(RCFC,reverse,MaxPoints=100,StepSize=2)
 ----------------------------------------------------------------------

 Structure from the checkpoint file:  "1642764945472630600001_r12_insertion_R_5_4_3_IRC_R.chk"
 ------------------------------
 Gaussian input prepared by ASE
 ------------------------------
 Charge =  0 Multiplicity = 1

 SCF Done:  E(RM062X) =  -764.529110287     A.U. after   11 cycles
 SCF Done:  E(RM062X) =  -764.529127117     A.U. after   11 cycles
 SCF Done:  E(RM062X) =  -764.529154772     A.U. after   11 cycles
 SCF Done:  E(RM062X) =  -764.529192876     A.U. after   11 cycles
 SCF Done:  E(RM062X) =  -764.529241078     A.U. after   11 cycles
 SCF Done:  E(RM062X) =  -764.529299035     A.U. after   11 cycles
 SCF Done:  E(RM062X) =  -764.529366427     A.U. after   11 cycles
 SCF Done:  E(RM062X) =  -764.529442961     A.U. after   11 cycles
 SCF Done:  E(RM062X) =  -764.529528377     A.U. after   11 cycles
 SCF Done:  E(RM062X) =  -764.529622450     A.U. after   11 cycles
 SCF Done:  E(RM062X) =  -764.554515615     A.U. after    9 cycles
 SCF Done:  E(RM062X) =  -764.554884528     A.U. after    9 cycles
 SCF Done:  E(RM062X) =  -764.555251552     A.U. after    9 cycles
 SCF Done:  E(RM062X) =  -764.555616633     A.U. after    9 cycles
 SCF Done:  E(RM062X) =  -764.555979721     A.U. after    9 cycles
 SCF Done:  E(RM062X) =  -764.556340771     A.U. after    9 cycles
 SCF Done:  E(RM062X) =  -764.556699741     A.U. after    9 cycles
 SCF Done:  E(RM062X) =  -764.557056593     A.U. after    9 cycles
 SCF Done:  E(RM062X) =  -764.557411291     A.U. after    9 cycles
 SCF Done:  E(RM062X) =  -764.557763803     A.U. after    9 cycles

                          Input orientation:
 ---------------------------------------------------------------------
 Center     Atomic      Atomic             Coordinates (Angstroms)
 Number     Number       Type             X           Y           Z
 ---------------------------------------------------------------------
      1          6           0        1.040401    0.364004    0.099209
      2          8           0        1.314757    1.523488    0.002740
      3          6           0       -0.416765    0.042123   -1.490673
      4          6           0       -0.049018   -0.120239    1.088404
      5          9           0       -1.086238    0.712338    1.127202
      6          9           0       -0.542371   -1.334258    0.827878
      7          9           0        0.533418   -0.147198    2.278531
      8          9           0       -1.257242    0.949284   -1.788791
      9          9           0       -0.790584   -1.063215   -2.000321
     10          8           0        1.822271   -0.670304   -0.262176
     11          1           0        2.620546   -0.297691   -0.657373
 ---------------------------------------------------------------------

 Normal termination of Gaussian 16 at Sat May 24 04:38:06 2025.
