 Gaussian 16, Revision C.01,
 Gaussian 16:  ES64L-G16RevC.01  3-Jul-2019

 ----------------------------------------------------------------------
 #P M062X/Def2TZVPP Symm(None) scf(xqc) pop(None) geom(AllCheck,NoKeepC
 onstants) guess(Read) irc(RCFC,forward,MaxPoints=100,StepSize=2)
 ----------------------------------------------------------------------

 Structure from the checkpoint file:  "1642764945472630600001_r12_insertion_R_2_1_10_IRC_F.chk"
 ------------------------------
 Gaussian input prepared by ASE
 ------------------------------
 Charge =  0 Multiplicity = 1

 SCF Done:  E(RM062X) =  -764.544704828     A.U. after   10 cycles
 SCF Done:  E(RM062X) =  -764.547112253     A.U. after   11 cycles
 SCF Done:  E(RM062X) =  -764.551800668     A.U. after   10 cycles
 SCF Done:  E(RM062X) =  -764.556370575     A.U. after   10 cycles
 SCF Done:  E(RM062X) =  -764.560816776     A.U. after   10 cycles
 SCF Done:  E(RM062X) =  -764.565133603     A.U. after   10 cycles
 SCF Done:  E(RM062X) =  -764.569315209     A.U. after   10 cycles
 SCF Done:  E(RM062X) =  -764.573355726     A.U. after   10 cycles
 SCF Done:  E(RM062X) =  -764.577249385     A.U. after   10 cycles
 SCF Done:  E(RM062X) =  -764.580990676     A.U. after   10 cycles
 SCF Done:  E(RM062X) =  -764.666465482     A.U. after    9 cycles
 SCF Done:  E(RM062X) =  -764.666623462     A.U. after    9 cycles
 SCF Done:  E(RM062X) =  -764.666769952     A.U. after    9 cycles
 SCF Done:  E(RM062X) =  -764.666905214     A.U. after    9 cycles
 SCF Done:  E(RM062X) =  -764.667029540     A.U. after    9 cycles
 SCF Done:  E(RM062X) =  -764.667143257     A.U. after    9 cycles
 SCF Done:  E(RM062X) =  -764.667246737     A.U. after    9 cycles
 SCF Done:  E(RM062X) =  -764.667340406     A.U. after    9 cycles
 SCF Done:  E(RM062X) =  -764.667424737     A.U. after    9 cycles
 SCF Done:  E(RM062X) =  -764.667500142     A.U. after    9 cycles

                          Input orientation:
 ---------------------------------------------------------------------
 Center     Atomic      Atomic             Coordinates (Angstroms)
 Number     Number       Type             X           Y           Z
 ---------------------------------------------------------------------
      1          6           0        1.359315   -0.319377   -0.614485
      2          8           0        1.968169   -1.325758   -0.774431
      3          6           0       -0.180996   -0.234970   -0.580732
      4          6           0       -0.664976    0.297332    0.791531
      5          9           0       -1.929472   -0.024295    1.004953
      6          9           0        0.083215   -0.254525    1.747288
      7          9           0       -0.540577    1.612004    0.856273
      8          9           0       -0.609293    0.589515   -1.549522
      9          9           0       -0.706590   -1.441695   -0.777137
     10          8           0        1.866423    0.894853   -0.418640
     11          1           0        2.831409    0.832780   -0.423007
 ---------------------------------------------------------------------

 Normal termination of Gaussian 16 at Sat May 24 06:35:49 2025.
