 Gaussian 16, Revision C.01,
 Gaussian 16:  ES64L-G16RevC.01  3-Jul-2019

 -----------------------------------------------------------------
 #P M062X/Def2TZVPP Symm(None) scf(xqc) pop(None) freq opt(CalcFC)
 -----------------------------------------------------------------

 ------------------------------
 Gaussian input prepared by ASE
 ------------------------------
 Symbolic Z-matrix:
 Charge =  0 Multiplicity = 1

 SCF Done:  E(RM062X) =  -764.600107320     A.U. after   14 cycles
 SCF Done:  E(RM062X) =  -764.633500050     A.U. after   13 cycles
 SCF Done:  E(RM062X) =  -764.658617802     A.U. after   14 cycles
 SCF Done:  E(RM062X) =  -764.659955369     A.U. after   13 cycles
 SCF Done:  E(RM062X) =  -764.663244640     A.U. after   12 cycles
 SCF Done:  E(RM062X) =  -764.664152983     A.U. after   13 cycles
 SCF Done:  E(RM062X) =  -764.665379447     A.U. after   14 cycles
 SCF Done:  E(RM062X) =  -764.665012366     A.U. after   12 cycles
 SCF Done:  E(RM062X) =  -764.660431312     A.U. after   13 cycles
 SCF Done:  E(RM062X) =  -764.659225739     A.U. after   13 cycles
 SCF Done:  E(RM062X) =  -764.668178673     A.U. after   10 cycles
 SCF Done:  E(RM062X) =  -764.668201562     A.U. after   12 cycles
 SCF Done:  E(RM062X) =  -764.668216496     A.U. after   12 cycles
 SCF Done:  E(RM062X) =  -764.668235293     A.U. after   12 cycles
 SCF Done:  E(RM062X) =  -764.668251655     A.U. after   12 cycles
 SCF Done:  E(RM062X) =  -764.668267282     A.U. after   11 cycles
 SCF Done:  E(RM062X) =  -764.668269319     A.U. after    8 cycles
 SCF Done:  E(RM062X) =  -764.668269382     A.U. after    8 cycles
 SCF Done:  E(RM062X) =  -764.668269396     A.U. after    7 cycles
 Optimization completed.
    -- Stationary point found.
 Normal termination of Gaussian 16 at Sat May 24 04:54:43 2025.

 ---------------------------------------------------------------------
 #P Geom=AllCheck Guess=TCheck SCRF=Check GenChk RM062X/def2TZVPP Freq
 ---------------------------------------------------------------------

 Structure from the checkpoint file:  "1642764945472630600001_r12_insertion_R_5_4_3_IRC_F_prod.chk"
 ------------------------------
 Gaussian input prepared by ASE
 ------------------------------
 Charge =  0 Multiplicity = 1

                          Input orientation:
 ---------------------------------------------------------------------
 Center     Atomic      Atomic             Coordinates (Angstroms)
 Number     Number       Type             X           Y           Z
 ---------------------------------------------------------------------
      1          6           0        1.222585    0.546600   -0.595465
      2          8           0        1.379521    1.680680   -0.912080
      3          6           0       -0.164170   -0.132431   -0.574620
      4          6           0       -0.714111   -0.314716    0.856888
      5          9           0       -0.711164    0.855739    1.485277
      6          9           0       -1.953582   -0.775315    0.808002
      7          9           0        0.034233   -1.168467    1.540143
      8          9           0       -1.026334    0.628658   -1.248459
      9          9           0       -0.099846   -1.341270   -1.152734
     10          8           0        2.165931   -0.305218   -0.207227
     11          1           0        3.016375    0.155771   -0.218601
 ---------------------------------------------------------------------

 SCF Done:  E(RM062X) =  -764.668269396     A.U. after    1 cycles

 Isotropic polarizability for W=    0.000000       43.85 Bohr**3.
 End of Minotr F.D. properties file   721 does not exist.

                      1                      2                      3
                      A                      A                      A
 Frequencies --     20.5910                65.4782               144.4222
 Red. masses --     12.9819                16.4180                10.1318
 Frc consts  --      0.0032                 0.0415                 0.1245
 IR Inten    --      1.4166                 0.4116                 0.9930

                      4                      5                      6
                      A                      A                      A
 Frequencies --    217.0659               248.8655               288.2282
 Red. masses --     17.2959                12.2313                14.6090
 Frc consts  --      0.4801                 0.4463                 0.7151
 IR Inten    --      1.5814                 1.2173                 1.4655

                      7                      8                      9
                      A                      A                      A
 Frequencies --    360.0235               380.1581               384.2529
 Red. masses --     16.4902                15.6011                13.5786
 Frc consts  --      1.2593                 1.3284                 1.1812
 IR Inten    --      0.3925                 0.7892                 0.6475

                     10                     11                     12
                      A                      A                      A
 Frequencies --    503.8656               546.6531               551.6706
 Red. masses --      7.1574                 2.9266                 4.9291
 Frc consts  --      1.0706                 0.5153                 0.8838
 IR Inten    --      6.2886                24.6979                13.8424

                     13                     14                     15
                      A                      A                      A
 Frequencies --    616.5839               634.7082               692.8035
 Red. masses --      6.9756                 3.4377                 4.5649
 Frc consts  --      1.5625                 0.8160                 1.2909
 IR Inten    --     18.5195                72.7119               101.6595

                     16                     17                     18
                      A                      A                      A
 Frequencies --    789.5465               797.9525              1062.4545
 Red. masses --     12.3276                 8.7759                11.7480
 Frc consts  --      4.5278                 3.2923                 7.8133
 IR Inten    --      2.5523                20.5328               124.2770

                     19                     20                     21
                      A                      A                      A
 Frequencies --   1187.9075              1229.9034              1277.8721
 Red. masses --      3.0750                 4.2380                10.3253
 Frc consts  --      2.5566                 3.7770                 9.9341
 IR Inten    --    245.2807               185.8327                41.9623

                     22                     23                     24
                      A                      A                      A
 Frequencies --   1290.9258              1297.5922              1383.4317
 Red. masses --     13.3116                 7.6379                 7.8389
 Frc consts  --     13.0703                 7.5771                 8.8394
 IR Inten    --    361.0423               148.3351               126.9521

                     25                     26                     27
                      A                      A                      A
 Frequencies --   1436.1889              1920.8434              3810.4730
 Red. masses --      5.1324                11.7379                 1.0646
 Frc consts  --      6.2373                25.5167                 9.1077
 IR Inten    --     54.2198               330.7456               129.9262

 - Thermochemistry -
 -------------------
 Temperature   298.150 Kelvin.  Pressure   1.00000 Atm.
 Atom     1 has atomic number  6 and mass  12.00000

 Molecular mass:   163.98967 amu.
 Principal axes and moments of inertia in atomic units:
                           1         2         3
     Eigenvalues --   948.597721521.771631601.16919
           X            0.77880   0.61782  -0.10850
           Y            0.33620  -0.26510   0.90371
           Z           -0.52957   0.74028   0.41417
 This molecule is an asymmetric top.
 Rotational symmetry number  1.
 Warning -- assumption of classical behavior for rotation
           may cause significant error
 Rotational temperatures (Kelvin)      0.09131     0.05692     0.05409
 Rotational constants (GHZ):           1.90254     1.18595     1.12714
 Zero-point vibrational energy     138410.7 (Joules/Mol)
                                   33.08095 (Kcal/Mol)
 Warning -- explicit consideration of  13 degrees of freedom as
           vibrations may cause significant error
 Vibrational temperatures:     29.63    94.21   207.79   312.31   358.06
          (Kelvin)            414.70   517.99   546.96   552.85   724.95
                              786.51   793.73   887.13   913.20   996.79
                             1135.98  1148.08  1528.64  1709.13  1769.56
                             1838.57  1857.35  1866.95  1990.45  2066.36
                             2763.67  5482.42

 Zero-point correction=                           0.052718 (Hartree/Particle)
 Thermal correction to Energy=                    0.061649
 Thermal correction to Enthalpy=                  0.062593
 Thermal correction to Gibbs Free Energy=         0.016988
 Sum of electronic and zero-point Energies=           -764.615552
 Sum of electronic and thermal Energies=              -764.606621
 Sum of electronic and thermal Enthalpies=            -764.605676
 Sum of electronic and thermal Free Energies=         -764.651282

                     E (Thermal)             CV                S
                      KCal/Mol        Cal/Mol-Kelvin    Cal/Mol-Kelvin
 Total                   38.685             30.714             95.984
 Electronic               0.000              0.000              0.000
 Translational            0.889              2.981             41.192
 Rotational               0.889              2.981             29.226
 Vibrational             36.908             24.752             25.566
 Vibration     1          0.593              1.986              6.576
 Vibration     2          0.597              1.971              4.285
 Vibration     3          0.616              1.909              2.744
 Vibration     4          0.646              1.815              1.983
 Vibration     5          0.662              1.765              1.739
 Vibration     6          0.685              1.696              1.484
 Vibration     7          0.735              1.555              1.122
 Vibration     8          0.750              1.512              1.039
 Vibration     9          0.753              1.504              1.022
 Vibration    10          0.859              1.241              0.649
 Vibration    11          0.902              1.147              0.551
 Vibration    12          0.907              1.136              0.541
 Vibration    13          0.976              0.997              0.422

 Optimization completed.
    -- Stationary point found.
 Normal termination of Gaussian 16 at Sat May 24 04:58:00 2025.
