 Gaussian 16, Revision C.01,
 Gaussian 16:  ES64L-G16RevC.01  3-Jul-2019

 ----------------------------------------------------------------------
 #P M062X/Def2TZVPP Symm(None) scf(xqc) pop(None) geom(AllCheck,NoKeepC
 onstants) guess(Read) irc(RCFC,forward,MaxPoints=100,StepSize=2)
 ----------------------------------------------------------------------

 Structure from the checkpoint file:  "1642764945472630600001_r12_insertion_R_1_3_8_IRC_F.chk"
 ------------------------------
 Gaussian input prepared by ASE
 ------------------------------
 Charge =  0 Multiplicity = 1

 SCF Done:  E(RM062X) =  -764.520641335     A.U. after   12 cycles
 SCF Done:  E(RM062X) =  -764.520672077     A.U. after   13 cycles
 SCF Done:  E(RM062X) =  -764.520724769     A.U. after   13 cycles
 SCF Done:  E(RM062X) =  -764.520800626     A.U. after   13 cycles
 SCF Done:  E(RM062X) =  -764.520900932     A.U. after   13 cycles
 SCF Done:  E(RM062X) =  -764.521027023     A.U. after   13 cycles
 SCF Done:  E(RM062X) =  -764.521180280     A.U. after   13 cycles
 SCF Done:  E(RM062X) =  -764.521362133     A.U. after   13 cycles
 SCF Done:  E(RM062X) =  -764.521574046     A.U. after   13 cycles
 SCF Done:  E(RM062X) =  -764.521817516     A.U. after   13 cycles
 SCF Done:  E(RM062X) =  -764.628428677     A.U. after    9 cycles
 SCF Done:  E(RM062X) =  -764.629608672     A.U. after    9 cycles
 SCF Done:  E(RM062X) =  -764.630761667     A.U. after    9 cycles
 SCF Done:  E(RM062X) =  -764.631888183     A.U. after    9 cycles
 SCF Done:  E(RM062X) =  -764.632988765     A.U. after    9 cycles
 SCF Done:  E(RM062X) =  -764.634063972     A.U. after    9 cycles
 SCF Done:  E(RM062X) =  -764.635114359     A.U. after    9 cycles
 SCF Done:  E(RM062X) =  -764.636140471     A.U. after    9 cycles
 SCF Done:  E(RM062X) =  -764.637142837     A.U. after    9 cycles
 SCF Done:  E(RM062X) =  -764.638121962     A.U. after    9 cycles

                          Input orientation:
 ---------------------------------------------------------------------
 Center     Atomic      Atomic             Coordinates (Angstroms)
 Number     Number       Type             X           Y           Z
 ---------------------------------------------------------------------
      1          6           0        1.409084   -0.301117   -0.580218
      2          8           0        1.998798   -1.114225   -1.208689
      3          6           0       -0.109878   -0.230910   -0.552332
      4          6           0       -0.776659    0.250654    0.845232
      5          9           0       -1.959503   -0.312743    1.076395
      6          9           0       -0.006258   -0.133997    1.872091
      7          9           0       -0.913804    1.557616    0.884692
      8          9           0       -0.096262    0.582275   -1.685700
      9          9           0       -0.745952   -1.351187   -0.853771
     10          8           0        1.853673    0.859323   -0.094185
     11          1           0        2.795923    0.949690   -0.289191
 ---------------------------------------------------------------------

 Normal termination of Gaussian 16 at Sat May 24 04:14:15 2025.
