 Gaussian 16, Revision C.01,
 Gaussian 16:  ES64L-G16RevC.01  3-Jul-2019

 ----------------------------------------------------------------------
 #P M062X/Def2TZVPP Symm(None) scf(xqc) pop(None) geom(AllCheck,NoKeepC
 onstants) guess(Read) irc(RCFC,forward,MaxPoints=100,StepSize=2)
 ----------------------------------------------------------------------

 Structure from the checkpoint file:  "1642764945472630600001_r13_insertion_ROR_4_3_1_10_IRC_F.chk"
 ------------------------------
 Gaussian input prepared by ASE
 ------------------------------
 Charge =  0 Multiplicity = 1

 SCF Done:  E(RM062X) =  -764.464759614     A.U. after   11 cycles
 SCF Done:  E(RM062X) =  -764.464860369     A.U. after   13 cycles
 SCF Done:  E(RM062X) =  -764.465030613     A.U. after   13 cycles
 SCF Done:  E(RM062X) =  -764.465272055     A.U. after   13 cycles
 SCF Done:  E(RM062X) =  -764.465586198     A.U. after   12 cycles
 SCF Done:  E(RM062X) =  -764.465974284     A.U. after   13 cycles
 SCF Done:  E(RM062X) =  -764.466437237     A.U. after   13 cycles
 SCF Done:  E(RM062X) =  -764.466975602     A.U. after   13 cycles
 SCF Done:  E(RM062X) =  -764.467589477     A.U. after   13 cycles
 SCF Done:  E(RM062X) =  -764.468278446     A.U. after   13 cycles
 SCF Done:  E(RM062X) =  -764.553082871     A.U. after   11 cycles
 SCF Done:  E(RM062X) =  -764.553709304     A.U. after   11 cycles
 SCF Done:  E(RM062X) =  -764.554327958     A.U. after   11 cycles
 SCF Done:  E(RM062X) =  -764.554938672     A.U. after   11 cycles
 SCF Done:  E(RM062X) =  -764.555541296     A.U. after   11 cycles
 SCF Done:  E(RM062X) =  -764.556135702     A.U. after   11 cycles
 SCF Done:  E(RM062X) =  -764.556721793     A.U. after   11 cycles
 SCF Done:  E(RM062X) =  -764.557299506     A.U. after   11 cycles
 SCF Done:  E(RM062X) =  -764.557868807     A.U. after   11 cycles
 SCF Done:  E(RM062X) =  -764.558429684     A.U. after   11 cycles

                          Input orientation:
 ---------------------------------------------------------------------
 Center     Atomic      Atomic             Coordinates (Angstroms)
 Number     Number       Type             X           Y           Z
 ---------------------------------------------------------------------
      1          6           0        1.442809    0.582970   -0.284416
      2          8           0        1.532143    1.660803   -0.719660
      3          6           0        1.361665   -0.722447   -0.137023
      4          6           0       -1.281161    0.343360    0.246941
      5          9           0       -1.403559   -0.936245    0.518088
      6          9           0       -2.368249    1.008560    0.606122
      7          9           0       -1.157807    0.452482   -1.077189
      8          9           0        1.894956   -1.434585   -1.116911
      9          9           0        1.009597   -1.436394    0.917257
     10          8           0       -0.249433    0.858197    0.970233
     11          1           0       -0.321248    1.821559    0.978245
 ---------------------------------------------------------------------

 Normal termination of Gaussian 16 at Sat May 24 07:15:54 2025.
