 Gaussian 16, Revision C.01,
 Gaussian 16:  ES64L-G16RevC.01  3-Jul-2019

 ----------------------------------------------------------------------
 #P M062X/Def2TZVPP Symm(None) scf(xqc) pop(None) opt(NoFreeze,TS,CalcA
 ll,NoEigentest,MaxCycle=999)
 ----------------------------------------------------------------------

 ------------------------------
 Gaussian input prepared by ASE
 ------------------------------
 Symbolic Z-matrix:
 Charge =  0 Multiplicity = 1

 SCF Done:  E(RM062X) =  -764.363561962     A.U. after   20 cycles
 SCF Done:  E(RM062X) =  -764.400309920     A.U. after   19 cycles
 SCF Done:  E(RM062X) =  -764.424940196     A.U. after   20 cycles
 SCF Done:  E(RM062X) =  -764.431984865     A.U. after   19 cycles
 SCF Done:  E(RM062X) =  -764.419494036     A.U. after   19 cycles
 SCF Done:  E(RM062X) =  -764.406428794     A.U. after   21 cycles
 SCF Done:  E(RM062X) =  -764.399930939     A.U. after   20 cycles
 SCF Done:  E(RM062X) =  -764.399851618     A.U. after   15 cycles
 SCF Done:  E(RM062X) =  -764.399801210     A.U. after    9 cycles
 SCF Done:  E(RM062X) =  -764.399752536     A.U. after   15 cycles
 SCF Done:  E(RM062X) =  -764.435855870     A.U. after   21 cycles
 SCF Done:  E(RM062X) =  -764.437382058     A.U. after   18 cycles
 SCF Done:  E(RM062X) =  -764.437758089     A.U. after   20 cycles
 SCF Done:  E(RM062X) =  -764.437886521     A.U. after   20 cycles
 SCF Done:  E(RM062X) =  -764.437907830     A.U. after   19 cycles
 SCF Done:  E(RM062X) =  -764.437912173     A.U. after   19 cycles
 SCF Done:  E(RM062X) =  -764.437912981     A.U. after   17 cycles
 SCF Done:  E(RM062X) =  -764.437913329     A.U. after   16 cycles
 SCF Done:  E(RM062X) =  -764.437913393     A.U. after   14 cycles
 SCF Done:  E(RM062X) =  -764.437913432     A.U. after   13 cycles

 Isotropic polarizability for W=    0.000000       64.08 Bohr**3.
 End of Minotr F.D. properties file   721 does not exist.

 Optimization completed on the basis of negligible forces.
    -- Stationary point found.

                          Input orientation:
 ---------------------------------------------------------------------
 Center     Atomic      Atomic             Coordinates (Angstroms)
 Number     Number       Type             X           Y           Z
 ---------------------------------------------------------------------
      1          6           0        1.759135    1.088430   -0.189037
      2          8           0       -0.592771    1.083218    0.124131
      3          6           0        3.227099    1.233622   -0.593112
      4          6           0        4.193399    0.672935    0.480401
      5          9           0        5.442258    0.848015    0.086279
      6          9           0        3.998560    1.312373    1.623044
      7          9           0        3.964752   -0.618007    0.653950
      8          9           0        3.396171    0.557989   -1.724558
      9          9           0        3.497384    2.518972   -0.778117
     10          8           0        1.217683    0.503614    0.624595
     11          1           0       -1.434236    0.847436    0.539778
 ---------------------------------------------------------------------

 ******    1 imaginary frequencies (negative Signs) ******

                      1                      2                      3
                      A                      A                      A
 Frequencies --   -276.1926                16.7135                63.4231
 Red. masses --      2.3457                15.1282                15.0901
 Frc consts  --      0.1054                 0.0025                 0.0358
 IR Inten    --     83.8360                 4.6941                 0.0179

                      4                      5                      6
                      A                      A                      A
 Frequencies --    105.4962               127.1369               217.9381
 Red. masses --     14.4193                11.1730                18.5762
 Frc consts  --      0.0946                 0.1064                 0.5198
 IR Inten    --      4.1281                 3.0485                 1.5457

                      7                      8                      9
                      A                      A                      A
 Frequencies --    267.0230               289.1642               308.5684
 Red. masses --     15.8753                 8.3488                 1.1166
 Frc consts  --      0.6669                 0.4113                 0.0626
 IR Inten    --     19.6524                58.3350               126.6524

                     10                     11                     12
                      A                      A                      A
 Frequencies --    357.0042               405.2697               420.6741
 Red. masses --     16.9678                16.1761                10.3237
 Frc consts  --      1.2742                 1.5654                 1.0764
 IR Inten    --      2.5876                 4.1627                30.0991

                     13                     14                     15
                      A                      A                      A
 Frequencies --    510.4977               535.2761               601.6040
 Red. masses --     14.1453                14.8760                10.7006
 Frc consts  --      2.1720                 2.5113                 2.2818
 IR Inten    --     85.1195                 0.7921                80.1048

                     16                     17                     18
                      A                      A                      A
 Frequencies --    620.1939               679.7322               790.2573
 Red. masses --     16.4941                16.4353                 9.3229
 Frc consts  --      3.7379                 4.4741                 3.4303
 IR Inten    --      2.9106                15.7495                 8.4863

                     19                     20                     21
                      A                      A                      A
 Frequencies --    868.2306              1053.7981              1212.7250
 Red. masses --      2.2629                12.6531                13.1851
 Frc consts  --      1.0051                 8.2787                11.4251
 IR Inten    --     73.3318                86.6861               225.3386

                     22                     23                     24
                      A                      A                      A
 Frequencies --   1277.2524              1299.7706              1305.4692
 Red. masses --     13.1338                13.0195                13.2477
 Frc consts  --     12.6240                12.9592                13.3022
 IR Inten    --     89.4757               154.2198               367.0472

                     25                     26                     27
                      A                      A                      A
 Frequencies --   1366.7788              2104.7482              3808.0034
 Red. masses --     12.3389                12.6366                 1.0667
 Frc consts  --     13.5807                32.9822                 9.1135
 IR Inten    --    406.1396               620.6460                93.5700

 - Thermochemistry -
 -------------------
 Temperature   298.150 Kelvin.  Pressure   1.00000 Atm.
 Atom     1 has atomic number  6 and mass  12.00000

 Molecular mass:   163.98967 amu.
 Principal axes and moments of inertia in atomic units:
                           1         2         3
     Eigenvalues --   871.490202002.031252231.14216
           X            0.99893  -0.03942   0.02434
           Y           -0.03993  -0.46596   0.88390
           Z            0.02350   0.88393   0.46703
 This molecule is an asymmetric top.
 Rotational symmetry number  1.
 Warning -- assumption of classical behavior for rotation
           may cause significant error
 Rotational temperatures (Kelvin)      0.09939     0.04326     0.03882
 Rotational constants (GHZ):           2.07087     0.90146     0.80889
    1 imaginary frequencies ignored.
 Zero-point vibrational energy     123291.6 (Joules/Mol)
                                   29.46740 (Kcal/Mol)
 Warning -- explicit consideration of  15 degrees of freedom as
           vibrations may cause significant error
 Vibrational temperatures:     24.05    91.25   151.79   182.92   313.56
          (Kelvin)            384.19   416.04   443.96   513.65   583.09
                              605.26   734.49   770.14   865.57   892.32
                              977.98  1137.00  1249.19  1516.18  1744.84
                             1837.68  1870.08  1878.28  1966.49  3028.26
                             5478.87

 Zero-point correction=                           0.046959 (Hartree/Particle)
 Thermal correction to Energy=                    0.056777
 Thermal correction to Enthalpy=                  0.057721
 Thermal correction to Gibbs Free Energy=         0.009724
 Sum of electronic and zero-point Energies=           -764.390954
 Sum of electronic and thermal Energies=              -764.381136
 Sum of electronic and thermal Enthalpies=            -764.380192
 Sum of electronic and thermal Free Energies=         -764.428189

                     E (Thermal)             CV                S
                      KCal/Mol        Cal/Mol-Kelvin    Cal/Mol-Kelvin
 Total                   35.628             32.729            101.018
 Electronic               0.000              0.000              0.000
 Translational            0.889              2.981             41.192
 Rotational               0.889              2.981             29.744
 Vibrational             33.851             26.767             30.082
 Vibration     1          0.593              1.986              6.991
 Vibration     2          0.597              1.972              4.348
 Vibration     3          0.605              1.945              3.350
 Vibration     4          0.611              1.926              2.989
 Vibration     5          0.646              1.814              1.976
 Vibration     6          0.672              1.734              1.615
 Vibration     7          0.686              1.694              1.479
 Vibration     8          0.698              1.657              1.370
 Vibration     9          0.732              1.561              1.135
 Vibration    10          0.770              1.459              0.943
 Vibration    11          0.783              1.425              0.890
 Vibration    12          0.866              1.227              0.632
 Vibration    13          0.890              1.172              0.576
 Vibration    14          0.960              1.028              0.447
 Vibration    15          0.980              0.989              0.416

 Normal termination of Gaussian 16 at Sat May 24 08:07:25 2025.
