 Gaussian 16, Revision C.01,
 Gaussian 16:  ES64L-G16RevC.01  3-Jul-2019

 ----------------------------------------------------------------------
 #P M062X/Def2TZVPP Symm(None) scf(xqc) pop(None) geom(AllCheck,NoKeepC
 onstants) guess(Read) irc(RCFC,reverse,MaxPoints=100,StepSize=2)
 ----------------------------------------------------------------------

 Structure from the checkpoint file:  "1642764945472630600001_r12_insertion_R_4_3_1_IRC_R.chk"
 ------------------------------
 Gaussian input prepared by ASE
 ------------------------------
 Charge =  0 Multiplicity = 1

 SCF Done:  E(RM062X) =  -764.457843409     A.U. after   10 cycles
 SCF Done:  E(RM062X) =  -764.457953136     A.U. after   12 cycles
 SCF Done:  E(RM062X) =  -764.458137382     A.U. after   12 cycles
 SCF Done:  E(RM062X) =  -764.458397009     A.U. after   12 cycles
 SCF Done:  E(RM062X) =  -764.458732672     A.U. after   12 cycles
 SCF Done:  E(RM062X) =  -764.459144802     A.U. after   12 cycles
 SCF Done:  E(RM062X) =  -764.459633632     A.U. after   12 cycles
 SCF Done:  E(RM062X) =  -764.460199226     A.U. after   12 cycles
 SCF Done:  E(RM062X) =  -764.460841518     A.U. after   12 cycles
 SCF Done:  E(RM062X) =  -764.461560337     A.U. after   12 cycles
 SCF Done:  E(RM062X) =  -764.633034160     A.U. after    9 cycles
 SCF Done:  E(RM062X) =  -764.633976477     A.U. after    9 cycles
 SCF Done:  E(RM062X) =  -764.634890210     A.U. after    9 cycles
 SCF Done:  E(RM062X) =  -764.635776877     A.U. after    9 cycles
 SCF Done:  E(RM062X) =  -764.636637849     A.U. after    9 cycles
 SCF Done:  E(RM062X) =  -764.637474365     A.U. after    9 cycles
 SCF Done:  E(RM062X) =  -764.638287539     A.U. after    9 cycles
 SCF Done:  E(RM062X) =  -764.639078381     A.U. after    9 cycles
 SCF Done:  E(RM062X) =  -764.639847805     A.U. after    9 cycles
 SCF Done:  E(RM062X) =  -764.640596647     A.U. after    9 cycles

                          Input orientation:
 ---------------------------------------------------------------------
 Center     Atomic      Atomic             Coordinates (Angstroms)
 Number     Number       Type             X           Y           Z
 ---------------------------------------------------------------------
      1          6           0        1.279196    0.004707   -0.533965
      2          8           0        2.034525   -0.803495   -0.106678
      3          6           0       -0.182211   -0.320187   -0.715421
      4          6           0       -0.638833    0.148657    0.772440
      5          9           0       -1.459093    1.178151    0.676786
      6          9           0       -1.104853   -0.899152    1.424776
      7          9           0        0.371903    0.590937    1.545616
      8          9           0       -0.746660    0.332448   -1.743017
      9          9           0       -0.404219   -1.615324   -0.950985
     10          8           0        1.444608    1.321653   -0.643957
     11          1           0        2.345872    1.547190   -0.375676
 ---------------------------------------------------------------------

 Normal termination of Gaussian 16 at Sat May 24 04:16:39 2025.
