 Gaussian 16, Revision C.01,
 Gaussian 16:  ES64L-G16RevC.01  3-Jul-2019

 ----------------------------------------------------------------------
 #P M062X/Def2TZVPP Symm(None) scf(xqc) pop(None) geom(AllCheck,NoKeepC
 onstants) guess(Read) irc(RCFC,reverse,MaxPoints=100,StepSize=2)
 ----------------------------------------------------------------------

 Structure from the checkpoint file:  "1642764945472630600001_r12_insertion_R_8_3_4_IRC_R.chk"
 ------------------------------
 Gaussian input prepared by ASE
 ------------------------------
 Charge =  0 Multiplicity = 1

 SCF Done:  E(RM062X) =  -764.469672719     A.U. after   11 cycles
 SCF Done:  E(RM062X) =  -764.469814749     A.U. after   11 cycles
 SCF Done:  E(RM062X) =  -764.470048236     A.U. after   11 cycles
 SCF Done:  E(RM062X) =  -764.470370179     A.U. after   11 cycles
 SCF Done:  E(RM062X) =  -764.470777370     A.U. after   11 cycles
 SCF Done:  E(RM062X) =  -764.471266426     A.U. after   11 cycles
 SCF Done:  E(RM062X) =  -764.471833822     A.U. after   11 cycles
 SCF Done:  E(RM062X) =  -764.472475910     A.U. after   11 cycles
 SCF Done:  E(RM062X) =  -764.473188942     A.U. after   11 cycles
 SCF Done:  E(RM062X) =  -764.473969085     A.U. after   11 cycles
 SCF Done:  E(RM062X) =  -764.540145901     A.U. after   11 cycles
 SCF Done:  E(RM062X) =  -764.540428591     A.U. after   10 cycles
 SCF Done:  E(RM062X) =  -764.540703312     A.U. after   10 cycles
 SCF Done:  E(RM062X) =  -764.540970282     A.U. after   10 cycles
 SCF Done:  E(RM062X) =  -764.541229701     A.U. after   10 cycles
 SCF Done:  E(RM062X) =  -764.541481741     A.U. after   10 cycles
 SCF Done:  E(RM062X) =  -764.541726544     A.U. after   10 cycles
 SCF Done:  E(RM062X) =  -764.541964226     A.U. after    9 cycles
 SCF Done:  E(RM062X) =  -764.542194896     A.U. after    9 cycles
 SCF Done:  E(RM062X) =  -764.542418676     A.U. after   10 cycles

                          Input orientation:
 ---------------------------------------------------------------------
 Center     Atomic      Atomic             Coordinates (Angstroms)
 Number     Number       Type             X           Y           Z
 ---------------------------------------------------------------------
      1          6           0        1.815181   -0.343355   -0.867801
      2          8           0        2.781444   -0.970873   -1.201265
      3          6           0        0.788582   -1.161579   -0.128803
      4          6           0       -1.222093    0.589033    0.756087
      5          9           0       -2.201502    1.457490    0.835867
      6          9           0       -1.625052   -0.582272    1.189760
      7          9           0       -0.194944    1.002945    1.459917
      8          9           0       -0.870131    0.487375   -0.521496
      9          9           0        0.112267   -1.865382   -0.976784
     10          8           0        1.699062    0.979626   -0.900967
     11          1           0        2.535072    1.338055   -1.234045
 ---------------------------------------------------------------------

 Normal termination of Gaussian 16 at Sat May 24 04:19:37 2025.
