 Gaussian 16, Revision C.01,
 Gaussian 16:  ES64L-G16RevC.01  3-Jul-2019

 -----------------------------------------------------------------
 #P M062X/Def2TZVPP Symm(None) scf(xqc) pop(None) freq opt(CalcFC)
 -----------------------------------------------------------------

 ------------------------------
 Gaussian input prepared by ASE
 ------------------------------
 Symbolic Z-matrix:
 Charge =  0 Multiplicity = 1

 SCF Done:  E(RM062X) =  -764.583655774     A.U. after   13 cycles
 SCF Done:  E(RM062X) =  -764.607071280     A.U. after   12 cycles
 SCF Done:  E(RM062X) =  -764.618163485     A.U. after   12 cycles
 SCF Done:  E(RM062X) =  -764.620351149     A.U. after   11 cycles
 SCF Done:  E(RM062X) =  -764.621914959     A.U. after   12 cycles
 SCF Done:  E(RM062X) =  -764.623041346     A.U. after   12 cycles
 SCF Done:  E(RM062X) =  -764.622907815     A.U. after   12 cycles
 SCF Done:  E(RM062X) =  -764.624036403     A.U. after   12 cycles
 SCF Done:  E(RM062X) =  -764.624529924     A.U. after   12 cycles
 SCF Done:  E(RM062X) =  -764.624620527     A.U. after   10 cycles
 SCF Done:  E(RM062X) =  -764.624649272     A.U. after   11 cycles
 SCF Done:  E(RM062X) =  -764.624683601     A.U. after   10 cycles
 SCF Done:  E(RM062X) =  -764.624683991     A.U. after    7 cycles
 SCF Done:  E(RM062X) =  -764.624684036     A.U. after    6 cycles
 Optimization completed.
    -- Stationary point found.
 Normal termination of Gaussian 16 at Sat May 24 04:23:47 2025.

 ---------------------------------------------------------------------
 #P Geom=AllCheck Guess=TCheck SCRF=Check GenChk RM062X/def2TZVPP Freq
 ---------------------------------------------------------------------

 Structure from the checkpoint file:  "1642764945472630600001_r12_insertion_R_1_3_8_IRC_R_prod.chk"
 ------------------------------
 Gaussian input prepared by ASE
 ------------------------------
 Charge =  0 Multiplicity = 1

                          Input orientation:
 ---------------------------------------------------------------------
 Center     Atomic      Atomic             Coordinates (Angstroms)
 Number     Number       Type             X           Y           Z
 ---------------------------------------------------------------------
      1          6           0        1.088834    0.161735   -0.860300
      2          8           0        0.903244   -1.143643   -0.397915
      3          6           0       -0.194131   -0.284216   -0.345779
      4          6           0       -0.763552    0.019077    1.033947
      5          9           0       -1.504774   -1.005333    1.444005
      6          9           0        0.198527    0.223821    1.917386
      7          9           0       -1.534727    1.099750    0.977028
      8          9           0        1.238644    0.227478   -2.187966
      9          9           0       -1.183272   -0.553240   -1.199928
     10          8           0        1.905171    0.994007   -0.201976
     11          1           0        2.821295    0.812532   -0.445641
 ---------------------------------------------------------------------

 SCF Done:  E(RM062X) =  -764.624684036     A.U. after    1 cycles

 Isotropic polarizability for W=    0.000000       43.29 Bohr**3.
 End of Minotr F.D. properties file   721 does not exist.

                      1                      2                      3
                      A                      A                      A
 Frequencies --     43.5530               140.7619               165.8014
 Red. masses --     15.0886                16.2733                11.3508
 Frc consts  --      0.0169                 0.1900                 0.1838
 IR Inten    --      0.1153                 0.5319                 0.7943

                      4                      5                      6
                      A                      A                      A
 Frequencies --    203.6864               254.3529               272.6698
 Red. masses --      1.0765                16.9704                12.9321
 Frc consts  --      0.0263                 0.6469                 0.5665
 IR Inten    --    113.9658                 1.4526                 6.1730

                      7                      8                      9
                      A                      A                      A
 Frequencies --    316.3838               355.4776               436.4451
 Red. masses --     14.7294                15.2608                14.1882
 Frc consts  --      0.8687                 1.1362                 1.5923
 IR Inten    --      6.2435                 1.7644                 3.6532

                     10                     11                     12
                      A                      A                      A
 Frequencies --    521.2433               552.1431               584.3185
 Red. masses --     14.4783                14.8296                16.3515
 Frc consts  --      2.3177                 2.6637                 3.2893
 IR Inten    --     17.6633                 3.0426                 5.5072

                     13                     14                     15
                      A                      A                      A
 Frequencies --    596.0970               634.8200               717.7763
 Red. masses --     15.1270                16.4700                 6.0946
 Frc consts  --      3.1669                 3.9106                 1.8500
 IR Inten    --      0.5839                11.5946                58.1599

                     16                     17                     18
                      A                      A                      A
 Frequencies --    791.9860               842.5214              1049.5951
 Red. masses --     12.1526                13.0151                13.4072
 Frc consts  --      4.4911                 5.4433                 8.7022
 IR Inten    --     19.7751                 1.0871               317.1834

                     19                     20                     21
                      A                      A                      A
 Frequencies --   1121.0544              1187.6189              1261.8171
 Red. masses --      3.5300                11.4993                12.8306
 Frc consts  --      2.6139                 9.5560                12.0362
 IR Inten    --    120.2159               139.4259               180.8433

                     22                     23                     24
                      A                      A                      A
 Frequencies --   1288.4446              1316.4739              1327.9785
 Red. masses --     12.2473                 2.0535                10.3288
 Frc consts  --     11.9791                 2.0969                10.7320
 IR Inten    --    114.5132               124.5819               535.1387

                     25                     26                     27
                      A                      A                      A
 Frequencies --   1419.6820              1631.3465              3831.4542
 Red. masses --     11.1216                 7.8013                 1.0654
 Frc consts  --     13.2068                12.2323                 9.2146
 IR Inten    --     63.7140               111.1545               113.9937

 - Thermochemistry -
 -------------------
 Temperature   298.150 Kelvin.  Pressure   1.00000 Atm.
 Atom     1 has atomic number  6 and mass  12.00000

 Molecular mass:   163.98967 amu.
 Principal axes and moments of inertia in atomic units:
                           1         2         3
     Eigenvalues --   804.909901619.962001901.50574
           X           -0.67038   0.65386  -0.35079
           Y           -0.05842   0.42478   0.90341
           Z            0.73972   0.62612  -0.24657
 This molecule is an asymmetric top.
 Rotational symmetry number  1.
 Warning -- assumption of classical behavior for rotation
           may cause significant error
 Rotational temperatures (Kelvin)      0.10761     0.05347     0.04555
 Rotational constants (GHZ):           2.24217     1.11406     0.94911
 Zero-point vibrational energy     136766.1 (Joules/Mol)
                                   32.68788 (Kcal/Mol)
 Warning -- explicit consideration of  13 degrees of freedom as
           vibrations may cause significant error
 Vibrational temperatures:     62.66   202.53   238.55   293.06   365.96
          (Kelvin)            392.31   455.21   511.45   627.95   749.95
                              794.41   840.70   857.65   913.36  1032.72
                             1139.49  1212.20  1510.13  1612.95  1708.72
                             1815.47  1853.78  1894.11  1910.66  2042.61
                             2347.14  5512.61

 Zero-point correction=                           0.052091 (Hartree/Particle)
 Thermal correction to Energy=                    0.060819
 Thermal correction to Enthalpy=                  0.061763
 Thermal correction to Gibbs Free Energy=         0.017575
 Sum of electronic and zero-point Energies=           -764.572593
 Sum of electronic and thermal Energies=              -764.563865
 Sum of electronic and thermal Enthalpies=            -764.562921
 Sum of electronic and thermal Free Energies=         -764.607109

                     E (Thermal)             CV                S
                      KCal/Mol        Cal/Mol-Kelvin    Cal/Mol-Kelvin
 Total                   38.165             30.639             93.002
 Electronic               0.000              0.000              0.000
 Translational            0.889              2.981             41.192
 Rotational               0.889              2.981             29.296
 Vibrational             36.387             24.677             22.514
 Vibration     1          0.595              1.980              5.091
 Vibration     2          0.615              1.913              2.793
 Vibration     3          0.624              1.885              2.483
 Vibration     4          0.639              1.835              2.100
 Vibration     5          0.665              1.755              1.700
 Vibration     6          0.676              1.724              1.579
 Vibration     7          0.703              1.642              1.329
 Vibration     8          0.731              1.564              1.142
 Vibration     9          0.797              1.391              0.838
 Vibration    10          0.876              1.203              0.607
 Vibration    11          0.907              1.135              0.540
 Vibration    12          0.941              1.065              0.477
 Vibration    13          0.954              1.040              0.456

 Optimization completed.
    -- Stationary point found.
 Normal termination of Gaussian 16 at Sat May 24 04:27:18 2025.
