 Gaussian 16, Revision C.01,
 Gaussian 16:  ES64L-G16RevC.01  3-Jul-2019

 -----------------------------------------------------------------
 #P M062X/Def2TZVPP Symm(None) scf(xqc) pop(None) freq opt(CalcFC)
 -----------------------------------------------------------------

 ------------------------------
 Gaussian input prepared by ASE
 ------------------------------
 Symbolic Z-matrix:
 Charge =  0 Multiplicity = 1

 SCF Done:  E(RM062X) =  -764.610198087     A.U. after   14 cycles
 SCF Done:  E(RM062X) =  -764.633925275     A.U. after   12 cycles
 SCF Done:  E(RM062X) =  -764.661770046     A.U. after   13 cycles
 SCF Done:  E(RM062X) =  -764.613017746     A.U. after   13 cycles
 SCF Done:  E(RM062X) =  -764.662987801     A.U. after   13 cycles
 SCF Done:  E(RM062X) =  -764.663990901     A.U. after   13 cycles
 SCF Done:  E(RM062X) =  -764.662298230     A.U. after   13 cycles
 SCF Done:  E(RM062X) =  -764.664371136     A.U. after   13 cycles
 SCF Done:  E(RM062X) =  -764.664446355     A.U. after   12 cycles
 SCF Done:  E(RM062X) =  -764.664558215     A.U. after   12 cycles
 SCF Done:  E(RM062X) =  -764.664561076     A.U. after   11 cycles
 SCF Done:  E(RM062X) =  -764.664561281     A.U. after   10 cycles
 SCF Done:  E(RM062X) =  -764.664561806     A.U. after    9 cycles
 Optimization completed.
    -- Stationary point found.
 Normal termination of Gaussian 16 at Sat May 24 06:58:05 2025.

 ---------------------------------------------------------------------
 #P Geom=AllCheck Guess=TCheck SCRF=Check GenChk RM062X/def2TZVPP Freq
 ---------------------------------------------------------------------

 Structure from the checkpoint file:  "1642764945472630600001_r13_insertion_CO2_3_11_IRC_R_prod.chk"
 ------------------------------
 Gaussian input prepared by ASE
 ------------------------------
 Charge =  0 Multiplicity = 1

                          Input orientation:
 ---------------------------------------------------------------------
 Center     Atomic      Atomic             Coordinates (Angstroms)
 Number     Number       Type             X           Y           Z
 ---------------------------------------------------------------------
      1          6           0        1.451472   -0.052228   -0.536629
      2          8           0        1.993560   -1.099914   -0.425562
      3          6           0       -0.095399    0.032391   -0.566837
      4          6           0       -0.710478   -0.146842    0.835770
      5          9           0       -2.021008    0.030838    0.781607
      6          9           0       -0.454951   -1.351190    1.309584
      7          9           0       -0.186383    0.764407    1.654449
      8          9           0       -0.487585    1.247786   -1.019204
      9          9           0       -0.587029   -0.903525   -1.375440
     10          8           0        2.083740    1.113597   -0.621300
     11          1           0        1.465337    1.843337   -0.748422
 ---------------------------------------------------------------------

 SCF Done:  E(RM062X) =  -764.664561806     A.U. after    1 cycles

 Isotropic polarizability for W=    0.000000       43.65 Bohr**3.
 End of Minotr F.D. properties file   721 does not exist.

                      1                      2                      3
                      A                      A                      A
 Frequencies --     31.2771                64.0461               142.9897
 Red. masses --      9.4569                14.7408                16.6849
 Frc consts  --      0.0055                 0.0356                 0.2010
 IR Inten    --      4.1666                 0.8905                 2.3628

                      4                      5                      6
                      A                      A                      A
 Frequencies --    214.8589               267.5254               293.7466
 Red. masses --     17.0263                13.8296                17.4144
 Frc consts  --      0.4631                 0.5832                 0.8853
 IR Inten    --      3.7651                 5.4197                 6.0714

                      7                      8                      9
                      A                      A                      A
 Frequencies --    360.2975               377.8032               395.5044
 Red. masses --     16.8601                 9.4982                15.8895
 Frc consts  --      1.2895                 0.7988                 1.4644
 IR Inten    --      0.4908                 6.8945                 2.6497

                     10                     11                     12
                      A                      A                      A
 Frequencies --    515.4033               523.7282               548.6949
 Red. masses --      4.5483                 1.5607                 8.8952
 Frc consts  --      0.7119                 0.2522                 1.5779
 IR Inten    --     42.5369                74.8612                15.7691

                     13                     14                     15
                      A                      A                      A
 Frequencies --    593.1467               625.0934               710.9351
 Red. masses --      8.6238                14.4977                 9.3525
 Frc consts  --      1.7876                 3.3376                 2.7851
 IR Inten    --      4.9103                 2.8892                34.5843

                     16                     17                     18
                      A                      A                      A
 Frequencies --    781.2996               798.6400              1055.5009
 Red. masses --     12.1751                13.0018                13.3089
 Frc consts  --      4.3788                 4.8860                 8.7359
 IR Inten    --      1.5541                14.7327               145.7012

                     19                     20                     21
                      A                      A                      A
 Frequencies --   1177.9306              1251.1531              1267.2382
 Red. masses --      5.3586                 2.3022                11.1851
 Frc consts  --      4.3807                 2.1233                10.5829
 IR Inten    --     97.6939               115.9055               316.6680

                     22                     23                     24
                      A                      A                      A
 Frequencies --   1281.6937              1309.2585              1377.1709
 Red. masses --      4.8601                13.1171                 6.5298
 Frc consts  --      4.7040                13.2476                 7.2966
 IR Inten    --     55.2786               263.8385               324.2701

                     25                     26                     27
                      A                      A                      A
 Frequencies --   1414.4179              1943.2530              3840.3087
 Red. masses --      6.0227                11.4638                 1.0657
 Frc consts  --      7.0990                25.5058                 9.2602
 IR Inten    --     96.0599               292.0456               137.8507

 - Thermochemistry -
 -------------------
 Temperature   298.150 Kelvin.  Pressure   1.00000 Atm.
 Atom     1 has atomic number  6 and mass  12.00000

 Molecular mass:   163.98967 amu.
 Principal axes and moments of inertia in atomic units:
                           1         2         3
     Eigenvalues --   948.922291534.708461591.47467
           X            0.85583  -0.44212   0.26850
           Y            0.10435   0.65597   0.74754
           Z           -0.50663  -0.61174   0.60753
 This molecule is an asymmetric top.
 Rotational symmetry number  1.
 Warning -- assumption of classical behavior for rotation
           may cause significant error
 Rotational temperatures (Kelvin)      0.09128     0.05644     0.05442
 Rotational constants (GHZ):           1.90189     1.17595     1.13401
 Zero-point vibrational energy     138545.0 (Joules/Mol)
                                   33.11305 (Kcal/Mol)
 Warning -- explicit consideration of  13 degrees of freedom as
           vibrations may cause significant error
 Vibrational temperatures:     45.00    92.15   205.73   309.13   384.91
          (Kelvin)            422.64   518.39   543.57   569.04   741.55
                              753.53   789.45   853.41   899.37  1022.88
                             1124.12  1149.06  1518.63  1694.78  1800.13
                             1823.27  1844.07  1883.73  1981.44  2035.03
                             2795.91  5525.35

 Zero-point correction=                           0.052769 (Hartree/Particle)
 Thermal correction to Energy=                    0.061667
 Thermal correction to Enthalpy=                  0.062611
 Thermal correction to Gibbs Free Energy=         0.017417
 Sum of electronic and zero-point Energies=           -764.611793
 Sum of electronic and thermal Energies=              -764.602895
 Sum of electronic and thermal Enthalpies=            -764.601951
 Sum of electronic and thermal Free Energies=         -764.647144

                     E (Thermal)             CV                S
                      KCal/Mol        Cal/Mol-Kelvin    Cal/Mol-Kelvin
 Total                   38.696             30.749             95.117
 Electronic               0.000              0.000              0.000
 Translational            0.889              2.981             41.192
 Rotational               0.889              2.981             29.229
 Vibrational             36.919             24.787             24.696
 Vibration     1          0.594              1.983              5.747
 Vibration     2          0.597              1.971              4.328
 Vibration     3          0.616              1.910              2.763
 Vibration     4          0.645              1.818              2.002
 Vibration     5          0.673              1.733              1.612
 Vibration     6          0.689              1.685              1.452
 Vibration     7          0.735              1.554              1.121
 Vibration     8          0.748              1.517              1.048
 Vibration     9          0.762              1.480              0.979
 Vibration    10          0.870              1.216              0.621
 Vibration    11          0.879              1.197              0.601
 Vibration    12          0.904              1.143              0.547
 Vibration    13          0.951              1.046              0.462

 Optimization completed.
    -- Stationary point found.
 Normal termination of Gaussian 16 at Sat May 24 07:01:30 2025.
