 Gaussian 16, Revision C.01,
 Gaussian 16:  ES64L-G16RevC.01  3-Jul-2019

 ----------------------------------------------------------------------
 #P M062X/Def2TZVPP Symm(None) scf(xqc) pop(None) geom(AllCheck,NoKeepC
 onstants) guess(Read) irc(RCFC,forward,MaxPoints=100,StepSize=2)
 ----------------------------------------------------------------------

 Structure from the checkpoint file:  "1642764945472630600001_intra_H_migration_1_11_IRC_F.chk"
 ------------------------------
 Gaussian input prepared by ASE
 ------------------------------
 Charge =  0 Multiplicity = 1

 SCF Done:  E(RM062X) =  -764.605151941     A.U. after    9 cycles
 SCF Done:  E(RM062X) =  -764.605250830     A.U. after    9 cycles
 SCF Done:  E(RM062X) =  -764.605415103     A.U. after    9 cycles
 SCF Done:  E(RM062X) =  -764.605644023     A.U. after    9 cycles
 SCF Done:  E(RM062X) =  -764.605936454     A.U. after   10 cycles
 SCF Done:  E(RM062X) =  -764.606290827     A.U. after   10 cycles
 SCF Done:  E(RM062X) =  -764.606705203     A.U. after   10 cycles
 SCF Done:  E(RM062X) =  -764.607177417     A.U. after   10 cycles
 SCF Done:  E(RM062X) =  -764.607705242     A.U. after   10 cycles
 SCF Done:  E(RM062X) =  -764.608286482     A.U. after   10 cycles
 SCF Done:  E(RM062X) =  -764.664458164     A.U. after    8 cycles
 SCF Done:  E(RM062X) =  -764.664648185     A.U. after    8 cycles
 SCF Done:  E(RM062X) =  -764.664830727     A.U. after    8 cycles
 SCF Done:  E(RM062X) =  -764.665005938     A.U. after    8 cycles
 SCF Done:  E(RM062X) =  -764.665173960     A.U. after    8 cycles
 SCF Done:  E(RM062X) =  -764.665334940     A.U. after    8 cycles
 SCF Done:  E(RM062X) =  -764.665489026     A.U. after    8 cycles
 SCF Done:  E(RM062X) =  -764.665636370     A.U. after    8 cycles
 SCF Done:  E(RM062X) =  -764.665777128     A.U. after    8 cycles
 SCF Done:  E(RM062X) =  -764.665911460     A.U. after    8 cycles

                          Input orientation:
 ---------------------------------------------------------------------
 Center     Atomic      Atomic             Coordinates (Angstroms)
 Number     Number       Type             X           Y           Z
 ---------------------------------------------------------------------
      1          6           0        1.400011    0.146318   -0.638075
      2          8           0        2.184615   -0.794179   -0.131056
      3          6           0       -0.133061   -0.151560   -0.589680
      4          6           0       -0.737066    0.064573    0.817390
      5          9           0       -2.055109   -0.048769    0.771987
      6          9           0       -0.256739   -0.833974    1.665031
      7          9           0       -0.421370    1.278382    1.251920
      8          9           0       -0.743554    0.693561   -1.424282
      9          9           0       -0.407544   -1.407738   -0.969705
     10          8           0        1.837097    1.156517   -1.085070
     11          1           0        3.086159   -0.452295   -0.224034
 ---------------------------------------------------------------------

 Normal termination of Gaussian 16 at Sat May 24 03:27:53 2025.
