 Gaussian 16, Revision C.01,
 Gaussian 16:  ES64L-G16RevC.01  3-Jul-2019

 ----------------------------------------------------------------------
 #P M062X/Def2TZVPP Symm(None) scf(xqc) pop(None) opt(NoFreeze,TS,CalcA
 ll,NoEigentest,MaxCycle=999)
 ----------------------------------------------------------------------

 ------------------------------
 Gaussian input prepared by ASE
 ------------------------------
 Symbolic Z-matrix:
 Charge =  0 Multiplicity = 1

 SCF Done:  E(RM062X) =  -764.579876425     A.U. after   14 cycles
 SCF Done:  E(RM062X) =  -764.588487769     A.U. after   13 cycles
 SCF Done:  E(RM062X) =  -764.600423241     A.U. after   13 cycles
 SCF Done:  E(RM062X) =  -764.604489638     A.U. after   12 cycles
 SCF Done:  E(RM062X) =  -764.604522313     A.U. after    8 cycles
 SCF Done:  E(RM062X) =  -764.604553483     A.U. after    8 cycles
 SCF Done:  E(RM062X) =  -764.604649479     A.U. after    9 cycles
 SCF Done:  E(RM062X) =  -764.605079927     A.U. after   11 cycles
 SCF Done:  E(RM062X) =  -764.595149581     A.U. after   14 cycles
 SCF Done:  E(RM062X) =  -764.600970056     A.U. after   12 cycles
 SCF Done:  E(RM062X) =  -764.605560498     A.U. after    8 cycles
 SCF Done:  E(RM062X) =  -764.605248249     A.U. after   13 cycles
 SCF Done:  E(RM062X) =  -764.604032690     A.U. after   14 cycles
 SCF Done:  E(RM062X) =  -764.596768191     A.U. after   13 cycles
 SCF Done:  E(RM062X) =  -764.597903852     A.U. after   13 cycles
 SCF Done:  E(RM062X) =  -764.604825919     A.U. after   13 cycles
 SCF Done:  E(RM062X) =  -764.605107501     A.U. after   12 cycles
 SCF Done:  E(RM062X) =  -764.605116287     A.U. after   12 cycles
 SCF Done:  E(RM062X) =  -764.605118456     A.U. after   12 cycles
 SCF Done:  E(RM062X) =  -764.605118848     A.U. after   11 cycles

 Isotropic polarizability for W=    0.000000       44.28 Bohr**3.
 End of Minotr F.D. properties file   721 does not exist.

 Optimization completed on the basis of negligible forces.
    -- Stationary point found.

                          Input orientation:
 ---------------------------------------------------------------------
 Center     Atomic      Atomic             Coordinates (Angstroms)
 Number     Number       Type             X           Y           Z
 ---------------------------------------------------------------------
      1          6           0        1.490778    0.316767   -0.024436
      2          8           0        2.318687   -0.509140    0.431273
      3          6           0       -0.017724    0.086268   -0.007614
      4          6           0       -0.609218    0.303324    1.404594
      5          9           0       -1.925163    0.191074    1.355159
      6          9           0       -0.126737   -0.594025    2.247987
      7          9           0       -0.289846    1.518095    1.834266
      8          9           0       -0.615007    0.936391   -0.844219
      9          9           0       -0.282089   -1.168012   -0.387702
     10          8           0        2.035856    1.351748   -0.475123
     11          1           0        2.949959    0.538917   -0.022081
 ---------------------------------------------------------------------

 ******    1 imaginary frequencies (negative Signs) ******

                      1                      2                      3
                      A                      A                      A
 Frequencies --  -1994.6264                16.8082                61.5645
 Red. masses --      1.0985                16.3299                16.3946
 Frc consts  --      2.5749                 0.0027                 0.0366
 IR Inten    --    352.9830                 0.0014                 0.0254

                      4                      5                      6
                      A                      A                      A
 Frequencies --    136.3799               212.1910               233.5216
 Red. masses --     11.3027                17.2265                15.5007
 Frc consts  --      0.1239                 0.4570                 0.4980
 IR Inten    --      0.5303                 2.0414                 0.0095

                      7                      8                      9
                      A                      A                      A
 Frequencies --    284.6883               361.8096               379.0780
 Red. masses --     15.9830                17.8867                16.6094
 Frc consts  --      0.7632                 1.3796                 1.4062
 IR Inten    --      2.3724                 0.0137                 0.2100

                     10                     11                     12
                      A                      A                      A
 Frequencies --    392.6820               507.5583               551.5711
 Red. masses --     14.3915                14.8424                15.0936
 Frc consts  --      1.3075                 2.2528                 2.7055
 IR Inten    --      1.1029                 4.2250                 6.6747

                     13                     14                     15
                      A                      A                      A
 Frequencies --    571.2844               621.9659               741.1632
 Red. masses --     10.5195                16.7147                 8.2663
 Frc consts  --      2.0228                 3.8096                 2.6754
 IR Inten    --     10.7668                 1.3288                 5.0681

                     16                     17                     18
                      A                      A                      A
 Frequencies --    776.7805               938.8041              1092.6097
 Red. masses --     15.8037                13.3831                12.4290
 Frc consts  --      5.6183                 6.9495                 8.7421
 IR Inten    --     35.1603               103.8168               114.2090

                     19                     20                     21
                      A                      A                      A
 Frequencies --   1177.6797              1242.7378              1273.3899
 Red. masses --      1.2428                12.6701                13.0000
 Frc consts  --      1.0156                11.5290                12.4199
 IR Inten    --     65.2375               253.6285                68.3113

                     22                     23                     24
                      A                      A                      A
 Frequencies --   1295.1112              1307.7413              1386.5782
 Red. masses --     13.1107                12.9071                12.4288
 Frc consts  --     12.9566                13.0054                14.0789
 IR Inten    --    324.8125               157.3267               114.9298

                     25                     26                     27
                      A                      A                      A
 Frequencies --   1583.0671              1729.0125              2238.4973
 Red. masses --      7.5615                 8.4654                 1.0928
 Frc consts  --     11.1650                14.9105                 3.2263
 IR Inten    --     95.8630               504.8854                73.5427

 - Thermochemistry -
 -------------------
 Temperature   298.150 Kelvin.  Pressure   1.00000 Atm.
 Atom     1 has atomic number  6 and mass  12.00000

 Molecular mass:   163.98967 amu.
 Principal axes and moments of inertia in atomic units:
                           1         2         3
     Eigenvalues --   932.697061554.277981630.45997
           X            0.86132   0.50805   0.00159
           Y            0.04311  -0.07621   0.99616
           Z           -0.50622   0.85795   0.08754
 This molecule is an asymmetric top.
 Rotational symmetry number  1.
 Warning -- assumption of classical behavior for rotation
           may cause significant error
 Rotational temperatures (Kelvin)      0.09286     0.05573     0.05312
 Rotational constants (GHZ):           1.93497     1.16114     1.10689
    1 imaginary frequencies ignored.
 Zero-point vibrational energy     126291.4 (Joules/Mol)
                                   30.18437 (Kcal/Mol)
 Warning -- explicit consideration of  12 degrees of freedom as
           vibrations may cause significant error
 Vibrational temperatures:     24.18    88.58   196.22   305.30   335.99
          (Kelvin)            409.60   520.56   545.41   564.98   730.26
                              793.59   821.95   894.87  1066.37  1117.61
                             1350.73  1572.02  1694.42  1788.02  1832.12
                             1863.38  1881.55  1994.98  2277.68  2487.66
                             3220.70

 Zero-point correction=                           0.048102 (Hartree/Particle)
 Thermal correction to Energy=                    0.056873
 Thermal correction to Enthalpy=                  0.057817
 Thermal correction to Gibbs Free Energy=         0.012122
 Sum of electronic and zero-point Energies=           -764.557017
 Sum of electronic and thermal Energies=              -764.548246
 Sum of electronic and thermal Enthalpies=            -764.547301
 Sum of electronic and thermal Free Energies=         -764.592997

                     E (Thermal)             CV                S
                      KCal/Mol        Cal/Mol-Kelvin    Cal/Mol-Kelvin
 Total                   35.688             29.388             96.174
 Electronic               0.000              0.000              0.000
 Translational            0.889              2.981             41.192
 Rotational               0.889              2.981             29.248
 Vibrational             33.911             23.427             25.733
 Vibration     1          0.593              1.986              6.979
 Vibration     2          0.597              1.973              4.406
 Vibration     3          0.614              1.917              2.854
 Vibration     4          0.643              1.822              2.025
 Vibration     5          0.654              1.790              1.852
 Vibration     6          0.683              1.702              1.505
 Vibration     7          0.736              1.551              1.114
 Vibration     8          0.749              1.515              1.043
 Vibration     9          0.760              1.486              0.990
 Vibration    10          0.863              1.233              0.639
 Vibration    11          0.907              1.136              0.541
 Vibration    12          0.927              1.093              0.502

 Normal termination of Gaussian 16 at Sat May 24 02:23:46 2025.
