 Gaussian 16, Revision C.01,
 Gaussian 16:  ES64L-G16RevC.01  3-Jul-2019

 ----------------------------------------------------------------------
 #P M062X/Def2TZVPP Symm(None) scf(xqc) pop(None) geom(AllCheck,NoKeepC
 onstants) guess(Read) irc(RCFC,forward,MaxPoints=100,StepSize=2)
 ----------------------------------------------------------------------

 Structure from the checkpoint file:  "1642764945472630600001_r13_insertion_ROR_8_3_1_2_IRC_F.chk"
 ------------------------------
 Gaussian input prepared by ASE
 ------------------------------
 Charge =  0 Multiplicity = 1

 SCF Done:  E(RM062X) =  -764.454994967     A.U. after   15 cycles
 SCF Done:  E(RM062X) =  -764.455089503     A.U. after   17 cycles
 SCF Done:  E(RM062X) =  -764.455245069     A.U. after   16 cycles
 SCF Done:  E(RM062X) =  -764.455459746     A.U. after   16 cycles
 SCF Done:  E(RM062X) =  -764.455731383     A.U. after   16 cycles
 SCF Done:  E(RM062X) =  -764.456057618     A.U. after   16 cycles
 SCF Done:  E(RM062X) =  -764.456435936     A.U. after   16 cycles
 SCF Done:  E(RM062X) =  -764.456863761     A.U. after   16 cycles
 SCF Done:  E(RM062X) =  -764.457338542     A.U. after   16 cycles
 SCF Done:  E(RM062X) =  -764.457857833     A.U. after   16 cycles
 SCF Done:  E(RM062X) =  -764.487752024     A.U. after   10 cycles
 SCF Done:  E(RM062X) =  -764.487812679     A.U. after   10 cycles
 SCF Done:  E(RM062X) =  -764.487872850     A.U. after   10 cycles
 SCF Done:  E(RM062X) =  -764.487932561     A.U. after   10 cycles
 SCF Done:  E(RM062X) =  -764.487991804     A.U. after   10 cycles
 SCF Done:  E(RM062X) =  -764.488050571     A.U. after   10 cycles
 SCF Done:  E(RM062X) =  -764.488108836     A.U. after   10 cycles
 SCF Done:  E(RM062X) =  -764.488166581     A.U. after   10 cycles
 SCF Done:  E(RM062X) =  -764.488223786     A.U. after   10 cycles
 SCF Done:  E(RM062X) =  -764.488280445     A.U. after   10 cycles

                          Input orientation:
 ---------------------------------------------------------------------
 Center     Atomic      Atomic             Coordinates (Angstroms)
 Number     Number       Type             X           Y           Z
 ---------------------------------------------------------------------
      1          6           0        0.476729    1.013829   -0.725310
      2          8           0        0.453300    1.800655    0.374323
      3          6           0        0.225275   -0.288869   -0.623252
      4          6           0       -0.131502   -1.054685    0.624486
      5          9           0        0.531672   -2.210622    0.634722
      6          9           0        0.158275   -0.398541    1.736912
      7          9           0       -1.435103   -1.342509    0.640034
      8          9           0       -0.908193    2.213546    0.524239
      9          9           0        0.221583   -1.051194   -1.706248
     10          8           0        0.762609    1.599239   -1.893959
     11          1           0        0.881558    2.544482   -1.749556
 ---------------------------------------------------------------------

 Normal termination of Gaussian 16 at Sat May 24 07:00:29 2025.
