 Gaussian 16, Revision C.01,
 Gaussian 16:  ES64L-G16RevC.01  3-Jul-2019

 ----------------------------------------------------------------------
 #P M062X/Def2TZVPP Symm(None) scf(xqc) pop(None) opt(NoFreeze,TS,CalcA
 ll,NoEigentest,MaxCycle=999)
 ----------------------------------------------------------------------

 ------------------------------
 Gaussian input prepared by ASE
 ------------------------------
 Symbolic Z-matrix:
 Charge =  0 Multiplicity = 1

 SCF Done:  E(RM062X) =  -764.358913498     A.U. after   20 cycles
 SCF Done:  E(RM062X) =  -764.386856037     A.U. after   15 cycles
 SCF Done:  E(RM062X) =  -764.429580342     A.U. after   15 cycles
 SCF Done:  E(RM062X) =  -764.469486852     A.U. after   14 cycles
 SCF Done:  E(RM062X) =  -764.498368959     A.U. after   14 cycles
 SCF Done:  E(RM062X) =  -764.506945330     A.U. after   14 cycles
 SCF Done:  E(RM062X) =  -764.507309756     A.U. after   11 cycles
 SCF Done:  E(RM062X) =  -764.507319015     A.U. after    7 cycles
 SCF Done:  E(RM062X) =  -764.500707374     A.U. after   13 cycles
 SCF Done:  E(RM062X) =  -764.505894370     A.U. after   15 cycles
 SCF Done:  E(RM062X) =  -764.508201470     A.U. after   10 cycles
 SCF Done:  E(RM062X) =  -764.508245992     A.U. after    9 cycles
 SCF Done:  E(RM062X) =  -764.508460897     A.U. after   11 cycles
 SCF Done:  E(RM062X) =  -764.509091725     A.U. after   13 cycles
 SCF Done:  E(RM062X) =  -764.509613689     A.U. after   14 cycles
 SCF Done:  E(RM062X) =  -764.510469064     A.U. after   15 cycles
 SCF Done:  E(RM062X) =  -764.511088919     A.U. after   13 cycles
 SCF Done:  E(RM062X) =  -764.511095488     A.U. after   13 cycles
 SCF Done:  E(RM062X) =  -764.511136299     A.U. after   12 cycles
 SCF Done:  E(RM062X) =  -764.511138137     A.U. after   10 cycles

 Isotropic polarizability for W=    0.000000       48.74 Bohr**3.
 End of Minotr F.D. properties file   721 does not exist.

 Optimization completed.
    -- Stationary point found.

                          Input orientation:
 ---------------------------------------------------------------------
 Center     Atomic      Atomic             Coordinates (Angstroms)
 Number     Number       Type             X           Y           Z
 ---------------------------------------------------------------------
      1          6           0        1.554615    0.694333    0.132105
      2          8           0        1.570053   -0.569792    0.048966
      3          6           0       -0.061252   -0.032889    0.031276
      4          6           0       -0.614456    0.267528    1.449747
      5          9           0       -1.847994   -0.212332    1.537797
      6          9           0        0.135157   -0.306654    2.377099
      7          9           0       -0.662542    1.568681    1.671481
      8          9           0       -0.610469    0.765678   -0.890917
      9          9           0       -0.526276   -1.254473   -0.325999
     10          8           0        2.644939    1.344870   -0.140025
     11          1           0        3.347717    0.706462   -0.379433
 ---------------------------------------------------------------------

 ******    1 imaginary frequencies (negative Signs) ******

                      1                      2                      3
                      A                      A                      A
 Frequencies --   -732.8659                47.0358                64.9760
 Red. masses --     12.7968                16.7035                12.2491
 Frc consts  --      4.0495                 0.0218                 0.0305
 IR Inten    --     56.6200                 0.0738                 1.9484

                      4                      5                      6
                      A                      A                      A
 Frequencies --    130.5868               208.7778               232.0796
 Red. masses --      5.8123                14.4673                14.6758
 Frc consts  --      0.0584                 0.3715                 0.4657
 IR Inten    --      7.6514                 1.2293                 2.1269

                      7                      8                      9
                      A                      A                      A
 Frequencies --    316.0096               350.9809               378.2756
 Red. masses --     15.2326                10.8660                13.9327
 Frc consts  --      0.8962                 0.7887                 1.1746
 IR Inten    --     50.9274                 9.4094                 0.7596

                     10                     11                     12
                      A                      A                      A
 Frequencies --    461.3878               473.4992               561.7466
 Red. masses --      8.2073                 8.2333                14.8284
 Frc consts  --      1.0294                 1.0876                 2.7569
 IR Inten    --     81.8601                 4.9176                38.6994

                     13                     14                     15
                      A                      A                      A
 Frequencies --    593.2122               670.7669               672.5963
 Red. masses --     12.8995                 6.1989                 5.9312
 Frc consts  --      2.6745                 1.6433                 1.5809
 IR Inten    --      4.8111                64.3589               140.8828

                     16                     17                     18
                      A                      A                      A
 Frequencies --    733.3744               755.5513               877.8212
 Red. masses --      1.5997                11.3013                13.4324
 Frc consts  --      0.5069                 3.8011                 6.0984
 IR Inten    --     74.4954               105.2356               332.6026

                     19                     20                     21
                      A                      A                      A
 Frequencies --   1008.1631              1141.3573              1221.0300
 Red. masses --     13.4773                13.6970                 1.9091
 Frc consts  --      8.0708                10.5128                 1.6770
 IR Inten    --    161.0447               227.8626               131.1687

                     22                     23                     24
                      A                      A                      A
 Frequencies --   1284.1304              1301.2048              1375.7202
 Red. masses --     10.2768                12.7900                10.8916
 Frc consts  --      9.9845                12.7588                12.1452
 IR Inten    --    276.0322               250.4153                70.0205

                     25                     26                     27
                      A                      A                      A
 Frequencies --   1412.8829              1585.6701              3606.4651
 Red. masses --      5.0129                 8.1188                 1.0621
 Frc consts  --      5.8959                12.0273                 8.1392
 IR Inten    --     62.2046               275.2775                35.8488

 - Thermochemistry -
 -------------------
 Temperature   298.150 Kelvin.  Pressure   1.00000 Atm.
 Atom     1 has atomic number  6 and mass  12.00000

 Molecular mass:   163.98967 amu.
 Principal axes and moments of inertia in atomic units:
                           1         2         3
     Eigenvalues --   930.070651547.760031749.24491
           X            0.86853   0.31924  -0.37913
           Y            0.17054   0.52574   0.83338
           Z           -0.46537   0.78847  -0.40218
 This molecule is an asymmetric top.
 Rotational symmetry number  1.
 Warning -- assumption of classical behavior for rotation
           may cause significant error
 Rotational temperatures (Kelvin)      0.09313     0.05596     0.04952
 Rotational constants (GHZ):           1.94043     1.16603     1.03173
    1 imaginary frequencies ignored.
 Zero-point vibrational energy     128391.0 (Joules/Mol)
                                   30.68619 (Kcal/Mol)
 Warning -- explicit consideration of  12 degrees of freedom as
           vibrations may cause significant error
 Vibrational temperatures:     67.67    93.49   187.89   300.38   333.91
          (Kelvin)            454.67   504.98   544.25   663.83   681.26
                              808.23   853.50   965.08   967.72  1055.16
                             1087.07  1262.99  1450.52  1642.16  1756.79
                             1847.58  1872.14  1979.35  2032.82  2281.43
                             5188.90

 Zero-point correction=                           0.048902 (Hartree/Particle)
 Thermal correction to Energy=                    0.057667
 Thermal correction to Enthalpy=                  0.058611
 Thermal correction to Gibbs Free Energy=         0.013834
 Sum of electronic and zero-point Energies=           -764.462237
 Sum of electronic and thermal Energies=              -764.453471
 Sum of electronic and thermal Enthalpies=            -764.452527
 Sum of electronic and thermal Free Energies=         -764.497304

                     E (Thermal)             CV                S
                      KCal/Mol        Cal/Mol-Kelvin    Cal/Mol-Kelvin
 Total                   36.186             30.165             94.240
 Electronic               0.000              0.000              0.000
 Translational            0.889              2.981             41.192
 Rotational               0.889              2.981             29.311
 Vibrational             34.409             24.204             23.737
 Vibration     1          0.595              1.979              4.938
 Vibration     2          0.597              1.971              4.300
 Vibration     3          0.612              1.923              2.937
 Vibration     4          0.642              1.827              2.054
 Vibration     5          0.653              1.792              1.863
 Vibration     6          0.703              1.643              1.331
 Vibration     7          0.728              1.573              1.162
 Vibration     8          0.749              1.516              1.046
 Vibration     9          0.819              1.336              0.762
 Vibration    10          0.830              1.309              0.728
 Vibration    11          0.917              1.114              0.520
 Vibration    12          0.951              1.046              0.461

 Normal termination of Gaussian 16 at Sat May 24 03:35:24 2025.
