 Gaussian 16, Revision C.01,
 Gaussian 16:  ES64L-G16RevC.01  3-Jul-2019

 ----------------------------------------------------------------------
 #P M062X/Def2TZVPP Symm(None) scf(xqc) pop(None) geom(AllCheck,NoKeepC
 onstants) guess(Read) irc(RCFC,reverse,MaxPoints=100,StepSize=2)
 ----------------------------------------------------------------------

 Structure from the checkpoint file:  "1642764945472630600001_intra_H_migration_suprafacial_2_11_IRC_R.chk"
 ------------------------------
 Gaussian input prepared by ASE
 ------------------------------
 Charge =  0 Multiplicity = 1

 SCF Done:  E(RM062X) =  -764.605159832     A.U. after    9 cycles
 SCF Done:  E(RM062X) =  -764.605258749     A.U. after   10 cycles
 SCF Done:  E(RM062X) =  -764.605423067     A.U. after   10 cycles
 SCF Done:  E(RM062X) =  -764.605651990     A.U. after   10 cycles
 SCF Done:  E(RM062X) =  -764.605944369     A.U. after   10 cycles
 SCF Done:  E(RM062X) =  -764.606298690     A.U. after   10 cycles
 SCF Done:  E(RM062X) =  -764.606713095     A.U. after   10 cycles
 SCF Done:  E(RM062X) =  -764.607185469     A.U. after   10 cycles
 SCF Done:  E(RM062X) =  -764.607713554     A.U. after   10 cycles
 SCF Done:  E(RM062X) =  -764.608295063     A.U. after   10 cycles
 SCF Done:  E(RM062X) =  -764.664468192     A.U. after    8 cycles
 SCF Done:  E(RM062X) =  -764.664658228     A.U. after    8 cycles
 SCF Done:  E(RM062X) =  -764.664840791     A.U. after    8 cycles
 SCF Done:  E(RM062X) =  -764.665016023     A.U. after    8 cycles
 SCF Done:  E(RM062X) =  -764.665184068     A.U. after    8 cycles
 SCF Done:  E(RM062X) =  -764.665345072     A.U. after    8 cycles
 SCF Done:  E(RM062X) =  -764.665499181     A.U. after    8 cycles
 SCF Done:  E(RM062X) =  -764.665646547     A.U. after    8 cycles
 SCF Done:  E(RM062X) =  -764.665787326     A.U. after    8 cycles
 SCF Done:  E(RM062X) =  -764.665921679     A.U. after    8 cycles

                          Input orientation:
 ---------------------------------------------------------------------
 Center     Atomic      Atomic             Coordinates (Angstroms)
 Number     Number       Type             X           Y           Z
 ---------------------------------------------------------------------
      1          6           0       -0.605500    1.152318   -0.829659
      2          8           0       -1.545297    1.015988   -1.543763
      3          6           0       -0.376830    0.253616    0.427672
      4          6           0        0.616651   -0.899981    0.155717
      5          9           0        0.680837   -1.705464    1.204158
      6          9           0        0.212510   -1.594425   -0.899953
      7          9           0        1.825392   -0.412282   -0.087630
      8          9           0        0.084199    0.958942    1.470067
      9          9           0       -1.548310   -0.294052    0.762651
     10          8           0        0.326538    2.065409   -1.062670
     11          1           0        0.045834    2.515686   -1.873093
 ---------------------------------------------------------------------

 Normal termination of Gaussian 16 at Sat May 24 05:23:04 2025.
