 Gaussian 16, Revision C.01,
 Gaussian 16:  ES64L-G16RevC.01  3-Jul-2019

 ----------------------------------------------------------------------
 #P M062X/Def2TZVPP Symm(None) scf(xqc) pop(None) opt(NoFreeze,TS,CalcA
 ll,NoEigentest,MaxCycle=999)
 ----------------------------------------------------------------------

 ------------------------------
 Gaussian input prepared by ASE
 ------------------------------
 Symbolic Z-matrix:
 Charge =  0 Multiplicity = 1

 SCF Done:  E(RM062X) =  -764.357294439     A.U. after   22 cycles
 SCF Done:  E(RM062X) =  -764.394318783     A.U. after   20 cycles
 SCF Done:  E(RM062X) =  -764.429641938     A.U. after   20 cycles
 SCF Done:  E(RM062X) =  -764.453407219     A.U. after   20 cycles
 SCF Done:  E(RM062X) =  -764.454904698     A.U. after   20 cycles
 SCF Done:  E(RM062X) =  -764.464210692     A.U. after   18 cycles
 SCF Done:  E(RM062X) =  -764.465267371     A.U. after   19 cycles
 SCF Done:  E(RM062X) =  -764.486135327     A.U. after   16 cycles
 SCF Done:  E(RM062X) =  -764.507366008     A.U. after   15 cycles
 SCF Done:  E(RM062X) =  -764.524599808     A.U. after   14 cycles
 SCF Done:  E(RM062X) =  -764.551077597     A.U. after   12 cycles
 SCF Done:  E(RM062X) =  -764.551580069     A.U. after   12 cycles
 SCF Done:  E(RM062X) =  -764.551957371     A.U. after   12 cycles
 SCF Done:  E(RM062X) =  -764.552050929     A.U. after   12 cycles
 SCF Done:  E(RM062X) =  -764.552211316     A.U. after   11 cycles
 SCF Done:  E(RM062X) =  -764.552213184     A.U. after   12 cycles
 SCF Done:  E(RM062X) =  -764.552255956     A.U. after   10 cycles
 SCF Done:  E(RM062X) =  -764.552257533     A.U. after   11 cycles
 SCF Done:  E(RM062X) =  -764.552259864     A.U. after    9 cycles
 SCF Done:  E(RM062X) =  -764.552259880     A.U. after    8 cycles

 Isotropic polarizability for W=    0.000000       56.24 Bohr**3.
 End of Minotr F.D. properties file   721 does not exist.

 Optimization completed.
    -- Stationary point found.

                          Input orientation:
 ---------------------------------------------------------------------
 Center     Atomic      Atomic             Coordinates (Angstroms)
 Number     Number       Type             X           Y           Z
 ---------------------------------------------------------------------
      1          6           0        1.758226   -0.251943   -0.295955
      2          8           0        1.811068   -0.901594   -1.273293
      3          6           0       -0.111734    0.066832   -0.124922
      4          6           0       -0.650788    0.625599    1.087897
      5          9           0       -1.141293   -0.111756    1.990798
      6          9           0        0.999667    0.938768    2.281900
      7          9           0       -0.919119    1.857997    1.186837
      8          9           0       -0.339598    0.895035   -1.158321
      9          9           0       -0.647062   -1.137474   -0.357930
     10          8           0        2.437739    0.289080    0.562850
     11          1           0        1.732392    0.700865    1.612241
 ---------------------------------------------------------------------

 ******    1 imaginary frequencies (negative Signs) ******

                      1                      2                      3
                      A                      A                      A
 Frequencies --   -715.0422                21.3223                40.3529
 Red. masses --      7.6180                15.1585                17.7656
 Frc consts  --      2.2948                 0.0041                 0.0170
 IR Inten    --    542.4371                 0.2825                 0.7146

                      4                      5                      6
                      A                      A                      A
 Frequencies --    180.0909               210.2571               232.1635
 Red. masses --     14.8609                17.1523                17.3019
 Frc consts  --      0.2840                 0.4468                 0.5495
 IR Inten    --     42.6004                 6.5769                20.9971

                      7                      8                      9
                      A                      A                      A
 Frequencies --    246.2682               271.3875               300.4149
 Red. masses --     17.8800                17.6446                16.8159
 Frc consts  --      0.6389                 0.7657                 0.8942
 IR Inten    --     15.9312                 2.2004                54.5781

                     10                     11                     12
                      A                      A                      A
 Frequencies --    353.1345               371.9751               495.0113
 Red. masses --     12.5202                17.4543                13.0696
 Frc consts  --      0.9199                 1.4229                 1.8869
 IR Inten    --     23.9968                19.9833                56.0272

                     13                     14                     15
                      A                      A                      A
 Frequencies --    543.1405               608.3801               674.1531
 Red. masses --     17.0363                14.5070                13.3218
 Frc consts  --      2.9611                 3.1636                 3.5672
 IR Inten    --      1.7551                67.7063               328.5875

                     16                     17                     18
                      A                      A                      A
 Frequencies --    724.7436               744.6485               849.3748
 Red. masses --     14.0124                13.7559                14.5508
 Frc consts  --      4.3364                 4.4941                 6.1849
 IR Inten    --     39.9567                59.3581                 8.1180

                     19                     20                     21
                      A                      A                      A
 Frequencies --   1058.2502              1204.1140              1226.9420
 Red. masses --      1.0404                12.0875                 2.7086
 Frc consts  --      0.6865                10.3257                 2.4024
 IR Inten    --     78.7850               121.8149               441.9542

                     22                     23                     24
                      A                      A                      A
 Frequencies --   1258.4592              1295.4285              1530.5629
 Red. masses --     13.3106                 1.6297                13.1130
 Frc consts  --     12.4202                 1.6114                18.0990
 IR Inten    --    150.5858               284.0361               305.5135

                     25                     26                     27
                      A                      A                      A
 Frequencies --   1560.1550              2031.5008              2363.0298
 Red. masses --     10.0230                 4.8911                 1.2870
 Frc consts  --     14.3742                11.8930                 4.2342
 IR Inten    --    356.3567              1122.4748               669.4499

 - Thermochemistry -
 -------------------
 Temperature   298.150 Kelvin.  Pressure   1.00000 Atm.
 Atom     1 has atomic number  6 and mass  12.00000

 Molecular mass:   163.98967 amu.
 Principal axes and moments of inertia in atomic units:
                           1         2         3
     Eigenvalues --  1041.324821527.973551920.24362
           X           -0.61470   0.78547   0.07201
           Y            0.38068   0.21547   0.89925
           Z            0.69082   0.58018  -0.43147
 This molecule is an asymmetric top.
 Rotational symmetry number  1.
 Warning -- assumption of classical behavior for rotation
           may cause significant error
 Rotational temperatures (Kelvin)      0.08318     0.05669     0.04511
 Rotational constants (GHZ):           1.73312     1.18113     0.93985
    1 imaginary frequencies ignored.
 Zero-point vibrational energy     121990.8 (Joules/Mol)
                                   29.15649 (Kcal/Mol)
 Warning -- explicit consideration of  13 degrees of freedom as
           vibrations may cause significant error
 Vibrational temperatures:     30.68    58.06   259.11   302.51   334.03
          (Kelvin)            354.32   390.47   432.23   508.08   535.19
                              712.21   781.46   875.32   969.96  1042.74
                             1071.38  1222.06  1522.59  1732.45  1765.30
                             1810.64  1863.83  2202.14  2244.72  2922.88
                             3399.87

 Zero-point correction=                           0.046464 (Hartree/Particle)
 Thermal correction to Energy=                    0.055821
 Thermal correction to Enthalpy=                  0.056765
 Thermal correction to Gibbs Free Energy=         0.009917
 Sum of electronic and zero-point Energies=           -764.505796
 Sum of electronic and thermal Energies=              -764.496439
 Sum of electronic and thermal Enthalpies=            -764.495495
 Sum of electronic and thermal Free Energies=         -764.542343

                     E (Thermal)             CV                S
                      KCal/Mol        Cal/Mol-Kelvin    Cal/Mol-Kelvin
 Total                   35.028             31.258             98.600
 Electronic               0.000              0.000              0.000
 Translational            0.889              2.981             41.192
 Rotational               0.889              2.981             29.503
 Vibrational             33.251             25.296             27.905
 Vibration     1          0.593              1.985              6.507
 Vibration     2          0.594              1.981              5.242
 Vibration     3          0.629              1.867              2.327
 Vibration     4          0.642              1.825              2.041
 Vibration     5          0.653              1.792              1.862
 Vibration     6          0.661              1.769              1.757
 Vibration     7          0.675              1.726              1.587
 Vibration     8          0.693              1.673              1.415
 Vibration     9          0.729              1.569              1.152
 Vibration    10          0.744              1.530              1.072
 Vibration    11          0.851              1.261              0.671
 Vibration    12          0.898              1.155              0.559
 Vibration    13          0.967              1.014              0.435

 Normal termination of Gaussian 16 at Sat May 24 05:46:48 2025.
