 Gaussian 16, Revision C.01,
 Gaussian 16:  ES64L-G16RevC.01  3-Jul-2019

 ----------------------------------------------------------------------
 #P M062X/Def2TZVPP Symm(None) scf(xqc) pop(None) opt(NoFreeze,TS,CalcA
 ll,NoEigentest,MaxCycle=999)
 ----------------------------------------------------------------------

 ------------------------------
 Gaussian input prepared by ASE
 ------------------------------
 Symbolic Z-matrix:
 Charge =  0 Multiplicity = 1

 SCF Done:  E(RM062X) =  -764.469191752     A.U. after   18 cycles
 SCF Done:  E(RM062X) =  -764.518047744     A.U. after   14 cycles
 SCF Done:  E(RM062X) =  -764.560101860     A.U. after   12 cycles
 SCF Done:  E(RM062X) =  -764.594306518     A.U. after   13 cycles
 SCF Done:  E(RM062X) =  -764.603369149     A.U. after   13 cycles
 SCF Done:  E(RM062X) =  -764.604922549     A.U. after   13 cycles
 SCF Done:  E(RM062X) =  -764.605077447     A.U. after   12 cycles
 SCF Done:  E(RM062X) =  -764.605110683     A.U. after   13 cycles
 SCF Done:  E(RM062X) =  -764.605117730     A.U. after   13 cycles
 SCF Done:  E(RM062X) =  -764.605118455     A.U. after   11 cycles
 SCF Done:  E(RM062X) =  -764.605118521     A.U. after    9 cycles

 Isotropic polarizability for W=    0.000000       44.28 Bohr**3.
 End of Minotr F.D. properties file   721 does not exist.

 Optimization completed.
    -- Stationary point found.

                          Input orientation:
 ---------------------------------------------------------------------
 Center     Atomic      Atomic             Coordinates (Angstroms)
 Number     Number       Type             X           Y           Z
 ---------------------------------------------------------------------
      1          6           0        1.488439    0.321464   -0.028643
      2          8           0        2.319072   -0.508558    0.414426
      3          6           0       -0.019831    0.089848   -0.006988
      4          6           0       -0.605255    0.295703    1.409416
      5          9           0       -1.921222    0.181591    1.365117
      6          9           0       -0.117438   -0.607023    2.244012
      7          9           0       -0.285949    1.507790    1.846546
      8          9           0       -0.621290    0.945999   -0.834433
      9          9           0       -0.285145   -1.161632   -0.395477
     10          8           0        2.030648    1.361538   -0.471018
     11          1           0        2.947467    0.544686   -0.030854
 ---------------------------------------------------------------------

 ******    1 imaginary frequencies (negative Signs) ******

                      1                      2                      3
                      A                      A                      A
 Frequencies --  -1994.8705                16.1942                61.5936
 Red. masses --      1.0984                16.3288                16.3982
 Frc consts  --      2.5755                 0.0025                 0.0367
 IR Inten    --    352.9815                 0.0014                 0.0248

                      4                      5                      6
                      A                      A                      A
 Frequencies --    136.3139               212.2162               233.4624
 Red. masses --     11.2993                17.2272                15.5086
 Frc consts  --      0.1237                 0.4571                 0.4980
 IR Inten    --      0.5311                 2.0409                 0.0094

                      7                      8                      9
                      A                      A                      A
 Frequencies --    284.6496               361.8284               379.0692
 Red. masses --     15.9776                17.8851                16.6250
 Frc consts  --      0.7628                 1.3796                 1.4075
 IR Inten    --      2.3638                 0.0133                 0.2051

                     10                     11                     12
                      A                      A                      A
 Frequencies --    392.6460               507.7552               551.5089
 Red. masses --     14.3808                14.8580                15.0429
 Frc consts  --      1.3063                 2.2569                 2.6958
 IR Inten    --      1.1057                 4.2182                 6.6805

                     13                     14                     15
                      A                      A                      A
 Frequencies --    571.1859               621.9147               741.1589
 Red. masses --     10.5223                16.7320                 8.2694
 Frc consts  --      2.0226                 3.8129                 2.6764
 IR Inten    --     10.7910                 1.2965                 5.0718

                     16                     17                     18
                      A                      A                      A
 Frequencies --    776.7630               938.7875              1092.5617
 Red. masses --     15.8009                13.3781                12.4258
 Frc consts  --      5.6171                 6.9467                 8.7391
 IR Inten    --     35.1778               103.8259               114.1592

                     19                     20                     21
                      A                      A                      A
 Frequencies --   1177.5686              1242.7997              1273.5407
 Red. masses --      1.2429                12.6734                12.9995
 Frc consts  --      1.0155                11.5331                12.4223
 IR Inten    --     65.2945               253.5113                67.8542

                     22                     23                     24
                      A                      A                      A
 Frequencies --   1295.1424              1307.6916              1386.6449
 Red. masses --     13.1170                12.9039                12.4281
 Frc consts  --     12.9634                13.0012                14.0794
 IR Inten    --    326.0960               156.4353               115.0184

                     25                     26                     27
                      A                      A                      A
 Frequencies --   1583.0142              1728.9211              2238.0833
 Red. masses --      7.5568                 8.4663                 1.0929
 Frc consts  --     11.1573                14.9105                 3.2254
 IR Inten    --     95.8949               504.8401                73.4974

 - Thermochemistry -
 -------------------
 Temperature   298.150 Kelvin.  Pressure   1.00000 Atm.
 Atom     1 has atomic number  6 and mass  12.00000

 Molecular mass:   163.98967 amu.
 Principal axes and moments of inertia in atomic units:
                           1         2         3
     Eigenvalues --   932.755351554.507581630.13808
           X            0.85918   0.51167   0.00067
           Y            0.04739  -0.08087   0.99560
           Z           -0.50947   0.85537   0.09373
 This molecule is an asymmetric top.
 Rotational symmetry number  1.
 Warning -- assumption of classical behavior for rotation
           may cause significant error
 Rotational temperatures (Kelvin)      0.09286     0.05572     0.05313
 Rotational constants (GHZ):           1.93485     1.16097     1.10711
    1 imaginary frequencies ignored.
 Zero-point vibrational energy     126283.9 (Joules/Mol)
                                   30.18257 (Kcal/Mol)
 Warning -- explicit consideration of  12 degrees of freedom as
           vibrations may cause significant error
 Vibrational temperatures:     23.30    88.62   196.13   305.33   335.90
          (Kelvin)            409.55   520.59   545.40   564.93   730.55
                              793.50   821.81   894.80  1066.36  1117.59
                             1350.71  1571.95  1694.26  1788.11  1832.34
                             1863.42  1881.48  1995.07  2277.60  2487.53
                             3220.10

 Zero-point correction=                           0.048099 (Hartree/Particle)
 Thermal correction to Energy=                    0.056872
 Thermal correction to Enthalpy=                  0.057816
 Thermal correction to Gibbs Free Energy=         0.012085
 Sum of electronic and zero-point Energies=           -764.557020
 Sum of electronic and thermal Energies=              -764.548247
 Sum of electronic and thermal Enthalpies=            -764.547302
 Sum of electronic and thermal Free Energies=         -764.593033

                     E (Thermal)             CV                S
                      KCal/Mol        Cal/Mol-Kelvin    Cal/Mol-Kelvin
 Total                   35.688             29.389             96.248
 Electronic               0.000              0.000              0.000
 Translational            0.889              2.981             41.192
 Rotational               0.889              2.981             29.248
 Vibrational             33.910             23.427             25.808
 Vibration     1          0.593              1.986              7.053
 Vibration     2          0.597              1.973              4.405
 Vibration     3          0.614              1.917              2.855
 Vibration     4          0.643              1.822              2.025
 Vibration     5          0.654              1.790              1.852
 Vibration     6          0.683              1.702              1.506
 Vibration     7          0.736              1.551              1.114
 Vibration     8          0.749              1.515              1.043
 Vibration     9          0.760              1.486              0.990
 Vibration    10          0.863              1.233              0.639
 Vibration    11          0.907              1.136              0.541
 Vibration    12          0.927              1.094              0.502

 Normal termination of Gaussian 16 at Sat May 24 03:05:30 2025.
