 Gaussian 16, Revision C.01,
 Gaussian 16:  ES64L-G16RevC.01  3-Jul-2019

 ----------------------------------------------------------------------
 #P M062X/Def2TZVPP Symm(None) scf(xqc) pop(None) geom(AllCheck,NoKeepC
 onstants) guess(Read) irc(RCFC,forward,MaxPoints=100,StepSize=2)
 ----------------------------------------------------------------------

 Structure from the checkpoint file:  "1642764945472630600001_r12_insertion_R_3_4_5_IRC_F.chk"
 ------------------------------
 Gaussian input prepared by ASE
 ------------------------------
 Charge =  0 Multiplicity = 1

 SCF Done:  E(RM062X) =  -764.490677757     A.U. after   10 cycles
 SCF Done:  E(RM062X) =  -764.490804555     A.U. after   11 cycles
 SCF Done:  E(RM062X) =  -764.491013512     A.U. after   11 cycles
 SCF Done:  E(RM062X) =  -764.491302549     A.U. after   11 cycles
 SCF Done:  E(RM062X) =  -764.491669734     A.U. after   11 cycles
 SCF Done:  E(RM062X) =  -764.492113266     A.U. after   11 cycles
 SCF Done:  E(RM062X) =  -764.492631478     A.U. after   11 cycles
 SCF Done:  E(RM062X) =  -764.493222827     A.U. after   11 cycles
 SCF Done:  E(RM062X) =  -764.493885867     A.U. after   11 cycles
 SCF Done:  E(RM062X) =  -764.494619223     A.U. after   10 cycles
 SCF Done:  E(RM062X) =  -764.581079796     A.U. after    9 cycles
 SCF Done:  E(RM062X) =  -764.581625506     A.U. after    9 cycles
 SCF Done:  E(RM062X) =  -764.582160362     A.U. after    9 cycles
 SCF Done:  E(RM062X) =  -764.582684401     A.U. after    9 cycles
 SCF Done:  E(RM062X) =  -764.583197654     A.U. after    9 cycles
 SCF Done:  E(RM062X) =  -764.583700148     A.U. after    9 cycles
 SCF Done:  E(RM062X) =  -764.584191906     A.U. after    9 cycles
 SCF Done:  E(RM062X) =  -764.584672945     A.U. after    9 cycles
 SCF Done:  E(RM062X) =  -764.585143282     A.U. after    9 cycles
 SCF Done:  E(RM062X) =  -764.585602935     A.U. after    9 cycles

                          Input orientation:
 ---------------------------------------------------------------------
 Center     Atomic      Atomic             Coordinates (Angstroms)
 Number     Number       Type             X           Y           Z
 ---------------------------------------------------------------------
      1          6           0        1.486304    0.147309   -0.926634
      2          8           0        1.421210    0.044012    0.430614
      3          6           0       -0.917754   -0.021331   -0.373559
      4          6           0        0.091407   -0.055724    0.822879
      5          9           0       -2.120216   -0.125747    0.176606
      6          9           0       -0.092164   -1.192383    1.491916
      7          9           0       -0.205978    0.945116    1.649429
      8          9           0       -0.879529    1.124248   -1.036514
      9          9           0       -0.764187   -1.047350   -1.196349
     10          8           0        2.696610    0.240909   -1.323037
     11          1           0        3.363243    0.223601   -0.607605
 ---------------------------------------------------------------------

 Normal termination of Gaussian 16 at Sat May 24 03:23:42 2025.
