 Gaussian 16, Revision C.01,
 Gaussian 16:  ES64L-G16RevC.01  3-Jul-2019

 ----------------------------------------------------------------------
 #P M062X/Def2TZVPP Symm(None) scf(xqc) pop(None) opt(NoFreeze,TS,CalcA
 ll,NoEigentest,MaxCycle=999)
 ----------------------------------------------------------------------

 ------------------------------
 Gaussian input prepared by ASE
 ------------------------------
 Symbolic Z-matrix:
 Charge =  0 Multiplicity = 1

 SCF Done:  E(RM062X) =  -764.274491944     A.U. after   23 cycles
 SCF Done:  E(RM062X) =  -764.281102231     A.U. after   22 cycles
 SCF Done:  E(RM062X) =  -764.310267080     A.U. after   22 cycles
 SCF Done:  E(RM062X) =  -764.336551021     A.U. after   22 cycles
 SCF Done:  E(RM062X) =  -764.346935657     A.U. after   23 cycles
 SCF Done:  E(RM062X) =  -764.343879868     A.U. after   23 cycles
 SCF Done:  E(RM062X) =  -764.343668943     A.U. after   13 cycles
 SCF Done:  E(RM062X) =  -764.341831607     A.U. after   17 cycles
 SCF Done:  E(RM062X) =  -764.336570779     A.U. after   21 cycles
 SCF Done:  E(RM062X) =  -764.330605727     A.U. after   21 cycles
 SCF Done:  E(RM062X) =  -764.544600855     A.U. after   13 cycles
 SCF Done:  E(RM062X) =  -764.544745391     A.U. after   13 cycles
 SCF Done:  E(RM062X) =  -764.544746411     A.U. after    9 cycles
 SCF Done:  E(RM062X) =  -764.537958847     A.U. after   14 cycles
 SCF Done:  E(RM062X) =  -764.539466475     A.U. after   14 cycles
 SCF Done:  E(RM062X) =  -764.539662225     A.U. after   11 cycles
 SCF Done:  E(RM062X) =  -764.541743503     A.U. after   11 cycles
 SCF Done:  E(RM062X) =  -764.544691350     A.U. after   14 cycles
 SCF Done:  E(RM062X) =  -764.544745039     A.U. after   11 cycles
 SCF Done:  E(RM062X) =  -764.544746396     A.U. after    9 cycles

 Isotropic polarizability for W=    0.000000       46.38 Bohr**3.
 End of Minotr F.D. properties file   721 does not exist.

 Optimization completed.
    -- Stationary point found.

                          Input orientation:
 ---------------------------------------------------------------------
 Center     Atomic      Atomic             Coordinates (Angstroms)
 Number     Number       Type             X           Y           Z
 ---------------------------------------------------------------------
      1          6           0        1.508934   -0.512228   -0.111264
      2          8           0        2.643038   -0.857855   -0.154208
      3          6           0       -0.072266   -0.030335   -0.051439
      4          6           0       -0.452958    0.541345    1.359138
      5          9           0       -1.719502    0.219945    1.595752
      6          9           0        0.299684   -0.028634    2.291800
      7          9           0       -0.355189    1.848646    1.427822
      8          9           0       -0.326795    0.807996   -1.028135
      9          9           0       -0.869869   -1.102346   -0.246332
     10          8           0        1.663940    0.969593    0.161281
     11          1           0        2.610473    1.115282    0.267688
 ---------------------------------------------------------------------

 ******    1 imaginary frequencies (negative Signs) ******

                      1                      2                      3
                      A                      A                      A
 Frequencies --   -176.5177                68.4421               185.1794
 Red. masses --     16.0978                16.2697                13.8854
 Frc consts  --      0.2955                 0.0449                 0.2805
 IR Inten    --      1.1395                 0.8169                 1.6654

                      4                      5                      6
                      A                      A                      A
 Frequencies --    238.8145               262.4794               310.4675
 Red. masses --     14.4127                17.4003                16.7479
 Frc consts  --      0.4843                 0.7063                 0.9511
 IR Inten    --      4.8023                 0.3813                 9.7402

                      7                      8                      9
                      A                      A                      A
 Frequencies --    334.9117               361.5373               397.8611
 Red. masses --     14.6897                17.1229                 1.9704
 Frc consts  --      0.9708                 1.3187                 0.1838
 IR Inten    --     12.5802                 0.6701                62.6047

                     10                     11                     12
                      A                      A                      A
 Frequencies --    450.5238               481.9169               538.3204
 Red. masses --      3.6324                 4.4358                14.6135
 Frc consts  --      0.4344                 0.6070                 2.4951
 IR Inten    --      7.2140                24.0173                64.7833

                     13                     14                     15
                      A                      A                      A
 Frequencies --    587.0121               601.2867               641.1958
 Red. masses --     14.1292                14.0253                 9.8765
 Frc consts  --      2.8686                 2.9876                 2.3924
 IR Inten    --     56.3319                27.8953                72.6043

                     16                     17                     18
                      A                      A                      A
 Frequencies --    736.7767               757.5314               786.9583
 Red. masses --      9.6445                 5.9166                 4.8851
 Frc consts  --      3.0846                 2.0004                 1.7825
 IR Inten    --     48.1567                35.9828                48.6408

                     19                     20                     21
                      A                      A                      A
 Frequencies --    956.7673              1139.1748              1184.0295
 Red. masses --     11.3081                 9.1000                 1.8034
 Frc consts  --      6.0989                 6.9578                 1.4896
 IR Inten    --    147.0022               252.5611                75.3317

                     22                     23                     24
                      A                      A                      A
 Frequencies --   1255.9569              1273.8995              1318.5672
 Red. masses --      6.7428                11.5039                13.0140
 Frc consts  --      6.2667                10.9993                13.3311
 IR Inten    --    228.6814               304.7427               157.0488

                     25                     26                     27
                      A                      A                      A
 Frequencies --   1379.1000              1863.6275              3839.0599
 Red. masses --     12.6197                10.6156                 1.0660
 Frc consts  --     14.1413                21.7226                 9.2565
 IR Inten    --    151.1988               178.5993               101.2746

 - Thermochemistry -
 -------------------
 Temperature   298.150 Kelvin.  Pressure   1.00000 Atm.
 Atom     1 has atomic number  6 and mass  12.00000

 Molecular mass:   163.98967 amu.
 Principal axes and moments of inertia in atomic units:
                           1         2         3
     Eigenvalues --   934.743691495.388671665.54702
           X            0.83829   0.54491  -0.01845
           Y           -0.25086   0.41553   0.87430
           Z           -0.48408   0.72829  -0.48503
 This molecule is an asymmetric top.
 Rotational symmetry number  1.
 Warning -- assumption of classical behavior for rotation
           may cause significant error
 Rotational temperatures (Kelvin)      0.09266     0.05792     0.05200
 Rotational constants (GHZ):           1.93073     1.20687     1.08357
    1 imaginary frequencies ignored.
 Zero-point vibrational energy     131298.5 (Joules/Mol)
                                   31.38110 (Kcal/Mol)
 Warning -- explicit consideration of  13 degrees of freedom as
           vibrations may cause significant error
 Vibrational temperatures:     98.47   266.43   343.60   377.65   446.69
          (Kelvin)            481.86   520.17   572.43   648.20   693.37
                              774.52   844.58   865.12   922.54  1060.06
                             1089.92  1132.26  1376.57  1639.02  1703.55
                             1807.04  1832.86  1897.12  1984.22  2681.34
                             5523.55

 Zero-point correction=                           0.050009 (Hartree/Particle)
 Thermal correction to Energy=                    0.058204
 Thermal correction to Enthalpy=                  0.059148
 Thermal correction to Gibbs Free Energy=         0.016644
 Sum of electronic and zero-point Energies=           -764.494737
 Sum of electronic and thermal Energies=              -764.486542
 Sum of electronic and thermal Enthalpies=            -764.485598
 Sum of electronic and thermal Free Energies=         -764.528102

                     E (Thermal)             CV                S
                      KCal/Mol        Cal/Mol-Kelvin    Cal/Mol-Kelvin
 Total                   36.524             30.101             89.457
 Electronic               0.000              0.000              0.000
 Translational            0.889              2.981             41.192
 Rotational               0.889              2.981             29.233
 Vibrational             34.746             24.139             19.032
 Vibration     1          0.598              1.969              4.198
 Vibration     2          0.631              1.860              2.276
 Vibration     3          0.657              1.781              1.812
 Vibration     4          0.670              1.742              1.645
 Vibration     5          0.699              1.654              1.360
 Vibration     6          0.716              1.606              1.236
 Vibration     7          0.736              1.551              1.115
 Vibration     8          0.764              1.475              0.971
 Vibration     9          0.809              1.360              0.794
 Vibration    10          0.838              1.290              0.705
 Vibration    11          0.893              1.165              0.569
 Vibration    12          0.944              1.059              0.473
 Vibration    13          0.960              1.029              0.447

 Normal termination of Gaussian 16 at Sat May 24 05:34:51 2025.
