 Gaussian 16, Revision C.01,
 Gaussian 16:  ES64L-G16RevC.01  3-Jul-2019

 -----------------------------------------------------------------
 #P M062X/Def2TZVPP Symm(None) scf(xqc) pop(None) freq opt(CalcFC)
 -----------------------------------------------------------------

 ------------------------------
 Gaussian input prepared by ASE
 ------------------------------
 Symbolic Z-matrix:
 Charge =  0 Multiplicity = 1

 SCF Done:  E(RM062X) =  -764.665913193     A.U. after   13 cycles
 SCF Done:  E(RM062X) =  -764.668233284     A.U. after   11 cycles
 SCF Done:  E(RM062X) =  -764.668267377     A.U. after   12 cycles
 SCF Done:  E(RM062X) =  -764.668271272     A.U. after   10 cycles
 SCF Done:  E(RM062X) =  -764.668271483     A.U. after    9 cycles
 SCF Done:  E(RM062X) =  -764.668271502     A.U. after    7 cycles
 Optimization completed.
    -- Stationary point found.
 Normal termination of Gaussian 16 at Sat May 24 05:32:45 2025.

 ---------------------------------------------------------------------
 #P Geom=AllCheck Guess=TCheck SCRF=Check GenChk RM062X/def2TZVPP Freq
 ---------------------------------------------------------------------

 Structure from the checkpoint file:  "1642764945472630600001_intra_H_migration_2_11_IRC_R_prod.chk"
 ------------------------------
 Gaussian input prepared by ASE
 ------------------------------
 Charge =  0 Multiplicity = 1

                          Input orientation:
 ---------------------------------------------------------------------
 Center     Atomic      Atomic             Coordinates (Angstroms)
 Number     Number       Type             X           Y           Z
 ---------------------------------------------------------------------
      1          6           0       -0.571392    1.164296   -0.854080
      2          8           0       -1.531425    1.125703   -1.552562
      3          6           0       -0.408503    0.270332    0.394516
      4          6           0        0.573700   -0.898457    0.162586
      5          9           0        0.575987   -1.700570    1.214959
      6          9           0        0.196555   -1.588848   -0.907795
      7          9           0        1.802929   -0.443889   -0.033311
      8          9           0        0.042790    0.993437    1.430373
      9          9           0       -1.594517   -0.250491    0.709006
     10          8           0        0.496151    1.938875   -1.017111
     11          1           0        0.367026    2.471947   -1.814016
 ---------------------------------------------------------------------

 SCF Done:  E(RM062X) =  -764.668271502     A.U. after    1 cycles

 Isotropic polarizability for W=    0.000000       43.86 Bohr**3.
 End of Minotr F.D. properties file   721 does not exist.

                      1                      2                      3
                      A                      A                      A
 Frequencies --     16.1085                66.1920               144.4262
 Red. masses --     13.0053                16.4665                10.1021
 Frc consts  --      0.0020                 0.0425                 0.1242
 IR Inten    --      1.4499                 0.3858                 0.9883

                      4                      5                      6
                      A                      A                      A
 Frequencies --    217.2345               249.8750               287.8069
 Red. masses --     17.3569                12.2728                14.6009
 Frc consts  --      0.4826                 0.4515                 0.7126
 IR Inten    --      1.5893                 1.1488                 1.4788

                      7                      8                      9
                      A                      A                      A
 Frequencies --    360.2154               380.3228               384.4208
 Red. masses --     16.4788                15.4614                13.6819
 Frc consts  --      1.2598                 1.3177                 1.1913
 IR Inten    --      0.3869                 0.8329                 0.6085

                     10                     11                     12
                      A                      A                      A
 Frequencies --    504.5119               546.7339               552.0431
 Red. masses --      7.2154                 3.1080                 4.6489
 Frc consts  --      1.0821                 0.5474                 0.8347
 IR Inten    --      6.2626                23.2736                13.8114

                     13                     14                     15
                      A                      A                      A
 Frequencies --    616.8672               634.7109               693.3256
 Red. masses --      7.1061                 3.3338                 4.5438
 Frc consts  --      1.5932                 0.7913                 1.2869
 IR Inten    --     17.5495                74.0509               102.2841

                     16                     17                     18
                      A                      A                      A
 Frequencies --    789.3177               797.6916              1062.6516
 Red. masses --     12.2285                 8.7975                11.7827
 Frc consts  --      4.4888                 3.2982                 7.8393
 IR Inten    --      2.6949                20.2477               124.5407

                     19                     20                     21
                      A                      A                      A
 Frequencies --   1189.0978              1230.3426              1277.4680
 Red. masses --      3.1453                 4.1676                10.1867
 Frc consts  --      2.6202                 3.7169                 9.7945
 IR Inten    --    246.2999               186.5121                43.2860

                     22                     23                     24
                      A                      A                      A
 Frequencies --   1290.0346              1296.8061              1383.2183
 Red. masses --     13.3081                 7.5078                 7.8585
 Frc consts  --     13.0488                 7.4389                 8.8587
 IR Inten    --    359.9866               148.0526               126.0855

                     25                     26                     27
                      A                      A                      A
 Frequencies --   1436.5529              1920.7903              3809.1695
 Red. masses --      5.0905                11.7317                 1.0646
 Frc consts  --      6.1894                25.5018                 9.1014
 IR Inten    --     54.0194               330.0382               130.0263

 - Thermochemistry -
 -------------------
 Temperature   298.150 Kelvin.  Pressure   1.00000 Atm.
 Atom     1 has atomic number  6 and mass  12.00000

 Molecular mass:   163.98967 amu.
 Principal axes and moments of inertia in atomic units:
                           1         2         3
     Eigenvalues --   948.799651522.359211600.08478
           X           -0.41532   0.83425   0.36268
           Y            0.80274   0.14856   0.57753
           Z           -0.42792  -0.53099   0.73139
 This molecule is an asymmetric top.
 Rotational symmetry number  1.
 Warning -- assumption of classical behavior for rotation
           may cause significant error
 Rotational temperatures (Kelvin)      0.09129     0.05689     0.05413
 Rotational constants (GHZ):           1.90213     1.18549     1.12790
 Zero-point vibrational energy     138395.6 (Joules/Mol)
                                   33.07734 (Kcal/Mol)
 Warning -- explicit consideration of  13 degrees of freedom as
           vibrations may cause significant error
 Vibrational temperatures:     23.18    95.24   207.80   312.55   359.51
          (Kelvin)            414.09   518.27   547.20   553.10   725.88
                              786.63   794.27   887.53   913.21   997.54
                             1135.65  1147.70  1528.92  1710.85  1770.19
                             1837.99  1856.07  1865.81  1990.14  2066.88
                             2763.59  5480.55

 Zero-point correction=                           0.052712 (Hartree/Particle)
 Thermal correction to Energy=                    0.061649
 Thermal correction to Enthalpy=                  0.062593
 Thermal correction to Gibbs Free Energy=         0.016772
 Sum of electronic and zero-point Energies=           -764.615559
 Sum of electronic and thermal Energies=              -764.606623
 Sum of electronic and thermal Enthalpies=            -764.605679
 Sum of electronic and thermal Free Energies=         -764.651500

                     E (Thermal)             CV                S
                      KCal/Mol        Cal/Mol-Kelvin    Cal/Mol-Kelvin
 Total                   38.685             30.708             96.439
 Electronic               0.000              0.000              0.000
 Translational            0.889              2.981             41.192
 Rotational               0.889              2.981             29.226
 Vibrational             36.908             24.747             26.020
 Vibration     1          0.593              1.986              7.064
 Vibration     2          0.598              1.970              4.264
 Vibration     3          0.616              1.909              2.744
 Vibration     4          0.646              1.815              1.982
 Vibration     5          0.663              1.763              1.731
 Vibration     6          0.685              1.696              1.487
 Vibration     7          0.735              1.554              1.121
 Vibration     8          0.750              1.512              1.038
 Vibration     9          0.753              1.503              1.022
 Vibration    10          0.860              1.240              0.647
 Vibration    11          0.902              1.147              0.551
 Vibration    12          0.907              1.135              0.540
 Vibration    13          0.977              0.996              0.422

 Optimization completed.
    -- Stationary point found.
 Normal termination of Gaussian 16 at Sat May 24 05:36:00 2025.
