 Gaussian 16, Revision C.01,
 Gaussian 16:  ES64L-G16RevC.01  3-Jul-2019

 ----------------------------------------------------------------------
 #P M062X/Def2TZVPP Symm(None) scf(xqc) pop(None) geom(AllCheck,NoKeepC
 onstants) guess(Read) irc(RCFC,reverse,MaxPoints=100,StepSize=2)
 ----------------------------------------------------------------------

 Structure from the checkpoint file:  "1642764945472630600001_r12_insertion_R_5_4_7_IRC_R.chk"
 ------------------------------
 Gaussian input prepared by ASE
 ------------------------------
 Charge =  0 Multiplicity = 1

 SCF Done:  E(RM062X) =  -764.552287981     A.U. after   10 cycles
 SCF Done:  E(RM062X) =  -764.552379127     A.U. after   11 cycles
 SCF Done:  E(RM062X) =  -764.552533993     A.U. after   11 cycles
 SCF Done:  E(RM062X) =  -764.552755132     A.U. after   11 cycles
 SCF Done:  E(RM062X) =  -764.553045514     A.U. after   11 cycles
 SCF Done:  E(RM062X) =  -764.553408740     A.U. after   11 cycles
 SCF Done:  E(RM062X) =  -764.553849278     A.U. after   11 cycles
 SCF Done:  E(RM062X) =  -764.554372467     A.U. after   11 cycles
 SCF Done:  E(RM062X) =  -764.554983910     A.U. after   11 cycles
 SCF Done:  E(RM062X) =  -764.555688418     A.U. after   11 cycles
 SCF Done:  E(RM062X) =  -764.646767943     A.U. after    8 cycles
 SCF Done:  E(RM062X) =  -764.646991336     A.U. after    8 cycles
 SCF Done:  E(RM062X) =  -764.647202340     A.U. after    8 cycles
 SCF Done:  E(RM062X) =  -764.647401637     A.U. after    8 cycles
 SCF Done:  E(RM062X) =  -764.647589792     A.U. after    8 cycles
 SCF Done:  E(RM062X) =  -764.647767276     A.U. after    8 cycles
 SCF Done:  E(RM062X) =  -764.647934488     A.U. after    9 cycles
 SCF Done:  E(RM062X) =  -764.648091773     A.U. after    9 cycles
 SCF Done:  E(RM062X) =  -764.648239436     A.U. after    9 cycles
 SCF Done:  E(RM062X) =  -764.648377755     A.U. after    9 cycles

                          Input orientation:
 ---------------------------------------------------------------------
 Center     Atomic      Atomic             Coordinates (Angstroms)
 Number     Number       Type             X           Y           Z
 ---------------------------------------------------------------------
      1          6           0        1.424747   -0.174569   -0.760813
      2          8           0        1.949567   -0.949107   -1.486695
      3          6           0       -0.087255   -0.423070   -0.416400
      4          6           0       -0.747657    0.399118    0.770583
      5          9           0       -1.767187    1.112339    0.337284
      6          9           0       -1.142188   -0.403211    1.735885
      7          9           0        0.113616    1.274484    1.338697
      8          9           0       -0.786523   -0.167167   -1.533297
      9          9           0       -0.232787   -1.722086   -0.146317
     10          8           0        2.044223    0.897454   -0.286977
     11          1           0        1.514196    1.406803    0.331709
 ---------------------------------------------------------------------

 Normal termination of Gaussian 16 at Sat May 24 07:17:35 2025.
