 Gaussian 16, Revision C.01,
 Gaussian 16:  ES64L-G16RevC.01  3-Jul-2019

 -----------------------------------------------------------------
 #P M062X/Def2TZVPP Symm(None) scf(xqc) pop(None) freq opt(CalcFC)
 -----------------------------------------------------------------

 ------------------------------
 Gaussian input prepared by ASE
 ------------------------------
 Symbolic Z-matrix:
 Charge =  0 Multiplicity = 1

 SCF Done:  E(RM062X) =  -764.617606862     A.U. after   13 cycles
 SCF Done:  E(RM062X) =  -764.620813020     A.U. after   11 cycles
 SCF Done:  E(RM062X) =  -764.624091508     A.U. after   12 cycles
 SCF Done:  E(RM062X) =  -764.625499751     A.U. after   12 cycles
 SCF Done:  E(RM062X) =  -764.624385282     A.U. after   15 cycles
 SCF Done:  E(RM062X) =  -764.626346116     A.U. after   12 cycles
 SCF Done:  E(RM062X) =  -764.626714437     A.U. after   11 cycles
 SCF Done:  E(RM062X) =  -764.626824124     A.U. after   11 cycles
 SCF Done:  E(RM062X) =  -764.626861403     A.U. after   10 cycles
 SCF Done:  E(RM062X) =  -764.626870496     A.U. after    9 cycles
 SCF Done:  E(RM062X) =  -764.626882820     A.U. after    9 cycles
 SCF Done:  E(RM062X) =  -764.626887601     A.U. after    8 cycles
 SCF Done:  E(RM062X) =  -764.626888668     A.U. after    8 cycles
 SCF Done:  E(RM062X) =  -764.626897916     A.U. after   10 cycles
 SCF Done:  E(RM062X) =  -764.626902976     A.U. after   10 cycles
 SCF Done:  E(RM062X) =  -764.626903675     A.U. after    7 cycles
 Optimization completed.
    -- Stationary point found.
 Normal termination of Gaussian 16 at Sat May 24 07:36:54 2025.

 ---------------------------------------------------------------------
 #P Geom=AllCheck Guess=TCheck SCRF=Check GenChk RM062X/def2TZVPP Freq
 ---------------------------------------------------------------------

 Structure from the checkpoint file:  "1642764945472630600001_r12_insertion_R_5_4_7_IRC_F_prod.chk"
 ------------------------------
 Gaussian input prepared by ASE
 ------------------------------
 Charge =  0 Multiplicity = 1

                          Input orientation:
 ---------------------------------------------------------------------
 Center     Atomic      Atomic             Coordinates (Angstroms)
 Number     Number       Type             X           Y           Z
 ---------------------------------------------------------------------
      1          6           0        2.308940   -0.195753   -1.190118
      2          8           0        2.528128   -0.950229   -2.028095
      3          6           0       -0.768825   -0.540625   -0.231269
      4          6           0       -1.510678    0.045834    0.683251
      5          9           0       -2.239307    1.102998    0.442460
      6          9           0       -1.591229   -0.376540    1.916835
      7          9           0        0.484284    1.846963    1.626278
      8          9           0       -0.665326   -0.115020   -1.472852
      9          9           0       -0.016671   -1.595681    0.003590
     10          8           0        2.098057    0.569788   -0.345612
     11          1           0        1.101448    1.505705    1.029905
 ---------------------------------------------------------------------

 SCF Done:  E(RM062X) =  -764.626903675     A.U. after    1 cycles

 Isotropic polarizability for W=    0.000000       45.69 Bohr**3.
 End of Minotr F.D. properties file   721 does not exist.

                      1                      2                      3
                      A                      A                      A
 Frequencies --     20.1169                28.6373                40.7580
 Red. masses --     16.3412                16.8414                16.0493
 Frc consts  --      0.0039                 0.0081                 0.0157
 IR Inten    --      0.0235                 1.2386                 0.0421

                      4                      5                      6
                      A                      A                      A
 Frequencies --     52.4815                61.5564                73.9836
 Red. masses --     15.1242                16.1038                15.6271
 Frc consts  --      0.0245                 0.0360                 0.0504
 IR Inten    --      0.2025                 0.3297                 0.9205

                      7                      8                      9
                      A                      A                      A
 Frequencies --     94.7320               141.0067               209.3071
 Red. masses --     14.7278                11.0738                17.8218
 Frc consts  --      0.0779                 0.1297                 0.4600
 IR Inten    --      2.6009                 2.1905                 2.5798

                     10                     11                     12
                      A                      A                      A
 Frequencies --    213.1854               355.8741               378.8579
 Red. masses --     18.9301                 1.0419                 1.0560
 Frc consts  --      0.5069                 0.0777                 0.0893
 IR Inten    --      0.3272               116.1229               201.1141

                     13                     14                     15
                      A                      A                      A
 Frequencies --    403.6333               446.2317               563.6345
 Red. masses --     18.4032                10.6243                17.3240
 Frc consts  --      1.7665                 1.2464                 3.2426
 IR Inten    --      0.3737                20.8855                 0.0579

                     16                     17                     18
                      A                      A                      A
 Frequencies --    564.9782               599.4508               686.4455
 Red. masses --     17.3314                12.3516                12.8737
 Frc consts  --      3.2595                 2.6151                 3.5741
 IR Inten    --      3.5913                 2.3514                31.4096

                     19                     20                     21
                      A                      A                      A
 Frequencies --    689.1747               822.6633              1230.9259
 Red. masses --     12.8772                18.5715                14.0424
 Frc consts  --      3.6036                 7.4053                12.5359
 IR Inten    --     56.1038                 0.3198               385.2617

                     22                     23                     24
                      A                      A                      A
 Frequencies --   1378.0221              1414.8804              1419.7344
 Red. masses --     13.3079                13.2381                15.9920
 Frc consts  --     14.8892                15.6141                18.9919
 IR Inten    --    213.5373               182.5079                 4.5958

                     25                     26                     27
                      A                      A                      A
 Frequencies --   1975.1244              2460.1131              4085.9626
 Red. masses --     12.1814                12.8522                 1.0581
 Frc consts  --     27.9985                45.8286                10.4082
 IR Inten    --      3.8638               832.3516               408.3691

 - Thermochemistry -
 -------------------
 Temperature   298.150 Kelvin.  Pressure   1.00000 Atm.
 Atom     1 has atomic number  6 and mass  12.00000

 Molecular mass:   163.98967 amu.
 Principal axes and moments of inertia in atomic units:
                           1         2         3
     Eigenvalues --  1048.866412313.496252712.69837
           X            0.81457   0.50437  -0.28651
           Y           -0.19839   0.70637   0.67947
           Z           -0.54509   0.49664  -0.67545
 This molecule is an asymmetric top.
 Rotational symmetry number  1.
 Warning -- assumption of classical behavior for rotation
           may cause significant error
 Rotational temperatures (Kelvin)      0.08258     0.03744     0.03193
 Rotational constants (GHZ):           1.72066     0.78009     0.66529
 Zero-point vibrational energy     122087.7 (Joules/Mol)
                                   29.17966 (Kcal/Mol)
 Warning -- explicit consideration of  17 degrees of freedom as
           vibrations may cause significant error
 Vibrational temperatures:     28.94    41.20    58.64    75.51    88.57
          (Kelvin)            106.45   136.30   202.88   301.15   306.73
                              512.02   545.09   580.74   642.03   810.94
                              812.88   862.48   987.64   991.57  1183.63
                             1771.03  1982.67  2035.70  2042.68  2841.76
                             3539.55  5878.79

 Zero-point correction=                           0.046501 (Hartree/Particle)
 Thermal correction to Energy=                    0.059009
 Thermal correction to Enthalpy=                  0.059953
 Thermal correction to Gibbs Free Energy=         0.003337
 Sum of electronic and zero-point Energies=           -764.580403
 Sum of electronic and thermal Energies=              -764.567895
 Sum of electronic and thermal Enthalpies=            -764.566951
 Sum of electronic and thermal Free Energies=         -764.623566

                     E (Thermal)             CV                S
                      KCal/Mol        Cal/Mol-Kelvin    Cal/Mol-Kelvin
 Total                   37.029             37.334            119.157
 Electronic               0.000              0.000              0.000
 Translational            0.889              2.981             41.192
 Rotational               0.889              2.981             30.266
 Vibrational             35.251             31.372             47.699
 Vibration     1          0.593              1.986              6.623
 Vibration     2          0.593              1.984              5.922
 Vibration     3          0.594              1.981              5.222
 Vibration     4          0.596              1.977              4.722
 Vibration     5          0.597              1.973              4.407
 Vibration     6          0.599              1.966              4.044
 Vibration     7          0.603              1.953              3.560
 Vibration     8          0.615              1.912              2.790
 Vibration     9          0.642              1.827              2.050
 Vibration    10          0.644              1.821              2.016
 Vibration    11          0.731              1.563              1.140
 Vibration    12          0.749              1.515              1.044
 Vibration    13          0.769              1.462              0.949
 Vibration    14          0.805              1.369              0.807
 Vibration    15          0.919              1.110              0.517
 Vibration    16          0.921              1.107              0.514
 Vibration    17          0.958              1.033              0.451

                           ! Non-Optimized Parameters !
 Normal termination of Gaussian 16 at Sat May 24 07:39:53 2025.
