 Gaussian 16, Revision C.01,
 Gaussian 16:  ES64L-G16RevC.01  3-Jul-2019

 -----------------------------------------------------------------
 #P M062X/Def2TZVPP Symm(None) scf(xqc) pop(None) freq opt(CalcFC)
 -----------------------------------------------------------------

 ------------------------------
 Gaussian input prepared by ASE
 ------------------------------
 Symbolic Z-matrix:
 Charge =  0 Multiplicity = 1

 SCF Done:  E(RM062X) =  -764.667158063     A.U. after   13 cycles
 SCF Done:  E(RM062X) =  -764.668171037     A.U. after   15 cycles
 SCF Done:  E(RM062X) =  -764.667772882     A.U. after   14 cycles
 SCF Done:  E(RM062X) =  -764.668238723     A.U. after   12 cycles
 SCF Done:  E(RM062X) =  -764.668251632     A.U. after   12 cycles
 SCF Done:  E(RM062X) =  -764.668258963     A.U. after   12 cycles
 SCF Done:  E(RM062X) =  -764.668262331     A.U. after   12 cycles
 SCF Done:  E(RM062X) =  -764.668262748     A.U. after    9 cycles
 SCF Done:  E(RM062X) =  -764.668262776     A.U. after    8 cycles
 Optimization completed.
    -- Stationary point found.
 Normal termination of Gaussian 16 at Sat May 24 04:16:42 2025.

 ---------------------------------------------------------------------
 #P Geom=AllCheck Guess=TCheck SCRF=Check GenChk RM062X/def2TZVPP Freq
 ---------------------------------------------------------------------

 Structure from the checkpoint file:  "1642764945472630600001_r12_insertion_R_4_3_8_IRC_F_prod.chk"
 ------------------------------
 Gaussian input prepared by ASE
 ------------------------------
 Charge =  0 Multiplicity = 1

                          Input orientation:
 ---------------------------------------------------------------------
 Center     Atomic      Atomic             Coordinates (Angstroms)
 Number     Number       Type             X           Y           Z
 ---------------------------------------------------------------------
      1          6           0        1.412436   -0.200979   -0.558731
      2          8           0        2.040586   -1.209071   -0.573188
      3          6           0       -0.131622   -0.176549   -0.560225
      4          6           0       -0.720673    0.177105    0.822787
      5          9           0       -2.037765    0.052936    0.796552
      6          9           0       -0.225729   -0.647167    1.739541
      7          9           0       -0.413644    1.421994    1.157134
      8          9           0       -0.582465    0.723682   -1.446775
      9          9           0       -0.581076   -1.385106   -0.897834
     10          8           0        1.899256    1.035275   -0.528135
     11          1           0        2.865105    0.982206   -0.513703
 ---------------------------------------------------------------------

 SCF Done:  E(RM062X) =  -764.668262776     A.U. after    1 cycles

 Isotropic polarizability for W=    0.000000       43.86 Bohr**3.
 End of Minotr F.D. properties file   721 does not exist.

                      1                      2                      3
                      A                      A                      A
 Frequencies --     19.0639                65.3747               144.6212
 Red. masses --     12.9716                16.3510                10.2671
 Frc consts  --      0.0028                 0.0412                 0.1265
 IR Inten    --      1.4164                 0.4466                 0.9723

                      4                      5                      6
                      A                      A                      A
 Frequencies --    216.0619               248.3947               287.9357
 Red. masses --     17.3708                12.1775                14.7680
 Frc consts  --      0.4778                 0.4427                 0.7214
 IR Inten    --      1.5368                 1.1562                 1.4485

                      7                      8                      9
                      A                      A                      A
 Frequencies --    359.9103               380.1203               384.2569
 Red. masses --     16.4994                15.5946                13.6467
 Frc consts  --      1.2592                 1.3276                 1.1872
 IR Inten    --      0.3921                 0.8181                 0.6283

                     10                     11                     12
                      A                      A                      A
 Frequencies --    504.6920               548.5772               553.7446
 Red. masses --      8.2004                 6.0519                 2.7994
 Frc consts  --      1.2307                 1.0730                 0.5057
 IR Inten    --      6.0350                16.2356                17.8703

                     13                     14                     15
                      A                      A                      A
 Frequencies --    617.0528               637.4971               692.6908
 Red. masses --      7.4490                 2.9641                 4.5165
 Frc consts  --      1.6711                 0.7097                 1.2768
 IR Inten    --     14.5219                79.3087               102.6411

                     16                     17                     18
                      A                      A                      A
 Frequencies --    789.5821               797.9864              1062.2072
 Red. masses --     12.2117                 8.6384                11.7484
 Frc consts  --      4.4856                 3.2410                 7.8099
 IR Inten    --      2.4596                21.4619               124.2037

                     19                     20                     21
                      A                      A                      A
 Frequencies --   1187.3051              1229.6505              1277.6938
 Red. masses --      3.0380                 4.3089                10.2721
 Frc consts  --      2.5233                 3.8387                 9.8801
 IR Inten    --    245.0685               185.8870                40.9736

                     22                     23                     24
                      A                      A                      A
 Frequencies --   1290.0128              1297.0357              1382.8572
 Red. masses --     13.3018                 7.6631                 7.8616
 Frc consts  --     13.0422                 7.5955                 8.8575
 IR Inten    --    359.6388               150.7468               127.6931

                     25                     26                     27
                      A                      A                      A
 Frequencies --   1435.9887              1920.3453              3808.3901
 Red. masses --      5.1385                11.7420                 1.0646
 Frc consts  --      6.2429                25.5124                 9.0977
 IR Inten    --     54.0789               330.5817               129.7063

 - Thermochemistry -
 -------------------
 Temperature   298.150 Kelvin.  Pressure   1.00000 Atm.
 Atom     1 has atomic number  6 and mass  12.00000

 Molecular mass:   163.98967 amu.
 Principal axes and moments of inertia in atomic units:
                           1         2         3
     Eigenvalues --   948.604281521.694841601.13928
           X            0.85296   0.43889  -0.28256
           Y           -0.12728   0.69985   0.70286
           Z           -0.50623   0.56354  -0.65280
 This molecule is an asymmetric top.
 Rotational symmetry number  1.
 Warning -- assumption of classical behavior for rotation
           may cause significant error
 Rotational temperatures (Kelvin)      0.09131     0.05692     0.05410
 Rotational constants (GHZ):           1.90252     1.18601     1.12716
 Zero-point vibrational energy     138402.2 (Joules/Mol)
                                   33.07893 (Kcal/Mol)
 Warning -- explicit consideration of  13 degrees of freedom as
           vibrations may cause significant error
 Vibrational temperatures:     27.43    94.06   208.08   310.86   357.38
          (Kelvin)            414.28   517.83   546.91   552.86   726.14
                              789.28   796.71   887.80   917.22   996.63
                             1136.03  1148.12  1528.28  1708.27  1769.19
                             1838.32  1856.04  1866.15  1989.62  2066.07
                             2762.95  5479.42

 Zero-point correction=                           0.052715 (Hartree/Particle)
 Thermal correction to Energy=                    0.061647
 Thermal correction to Enthalpy=                  0.062591
 Thermal correction to Gibbs Free Energy=         0.016913
 Sum of electronic and zero-point Energies=           -764.615548
 Sum of electronic and thermal Energies=              -764.606616
 Sum of electronic and thermal Enthalpies=            -764.605672
 Sum of electronic and thermal Free Energies=         -764.651349

                     E (Thermal)             CV                S
                      KCal/Mol        Cal/Mol-Kelvin    Cal/Mol-Kelvin
 Total                   38.684             30.702             96.137
 Electronic               0.000              0.000              0.000
 Translational            0.889              2.981             41.192
 Rotational               0.889              2.981             29.226
 Vibrational             36.907             24.740             25.719
 Vibration     1          0.593              1.986              6.729
 Vibration     2          0.597              1.971              4.288
 Vibration     3          0.616              1.908              2.742
 Vibration     4          0.645              1.817              1.992
 Vibration     5          0.662              1.765              1.742
 Vibration     6          0.685              1.696              1.486
 Vibration     7          0.734              1.555              1.122
 Vibration     8          0.750              1.513              1.039
 Vibration     9          0.753              1.504              1.022
 Vibration    10          0.860              1.240              0.646
 Vibration    11          0.904              1.143              0.547
 Vibration    12          0.909              1.131              0.536
 Vibration    13          0.977              0.996              0.421

 Optimization completed.
    -- Stationary point found.
 Normal termination of Gaussian 16 at Sat May 24 04:20:55 2025.
