 Gaussian 16, Revision C.01,
 Gaussian 16:  ES64L-G16RevC.01  3-Jul-2019

 ----------------------------------------------------------------------
 #P M062X/Def2TZVPP Symm(None) scf(xqc) pop(None) geom(AllCheck,NoKeepC
 onstants) guess(Read) irc(RCFC,reverse,MaxPoints=100,StepSize=2)
 ----------------------------------------------------------------------

 Structure from the checkpoint file:  "1642764945472630600001_r12_insertion_R_3_4_5_IRC_R.chk"
 ------------------------------
 Gaussian input prepared by ASE
 ------------------------------
 Charge =  0 Multiplicity = 1

 SCF Done:  E(RM062X) =  -764.490679249     A.U. after   10 cycles
 SCF Done:  E(RM062X) =  -764.490812022     A.U. after   11 cycles
 SCF Done:  E(RM062X) =  -764.491035843     A.U. after   11 cycles
 SCF Done:  E(RM062X) =  -764.491352863     A.U. after   11 cycles
 SCF Done:  E(RM062X) =  -764.491765111     A.U. after   11 cycles
 SCF Done:  E(RM062X) =  -764.492274396     A.U. after   11 cycles
 SCF Done:  E(RM062X) =  -764.492882218     A.U. after   11 cycles
 SCF Done:  E(RM062X) =  -764.493589699     A.U. after   11 cycles
 SCF Done:  E(RM062X) =  -764.494397491     A.U. after   11 cycles
 SCF Done:  E(RM062X) =  -764.495305705     A.U. after   11 cycles
 SCF Done:  E(RM062X) =  -764.649442364     A.U. after    9 cycles
 SCF Done:  E(RM062X) =  -764.650197444     A.U. after    9 cycles
 SCF Done:  E(RM062X) =  -764.650930787     A.U. after    9 cycles
 SCF Done:  E(RM062X) =  -764.651642916     A.U. after    9 cycles
 SCF Done:  E(RM062X) =  -764.652334331     A.U. after    9 cycles
 SCF Done:  E(RM062X) =  -764.653005513     A.U. after    9 cycles
 SCF Done:  E(RM062X) =  -764.653656926     A.U. after    9 cycles
 SCF Done:  E(RM062X) =  -764.654289018     A.U. after    9 cycles
 SCF Done:  E(RM062X) =  -764.654902225     A.U. after    9 cycles
 SCF Done:  E(RM062X) =  -764.655496968     A.U. after    9 cycles

                          Input orientation:
 ---------------------------------------------------------------------
 Center     Atomic      Atomic             Coordinates (Angstroms)
 Number     Number       Type             X           Y           Z
 ---------------------------------------------------------------------
      1          6           0        1.405643    0.113606   -0.526751
      2          8           0        1.831773    0.054445    0.584789
      3          6           0       -0.129326    0.039851   -0.634761
      4          6           0       -0.668103   -0.095134    0.809415
      5          9           0       -1.980229   -0.150572    0.612688
      6          9           0       -0.261661   -1.193836    1.427358
      7          9           0       -0.375222    0.938314    1.584297
      8          9           0       -0.700611    1.137228   -1.154115
      9          9           0       -0.585502   -1.024040   -1.313215
     10          8           0        2.154318    0.233315   -1.612236
     11          1           0        3.075126    0.260144   -1.312218
 ---------------------------------------------------------------------

 Normal termination of Gaussian 16 at Sat May 24 03:25:37 2025.
