 Gaussian 16, Revision C.01,
 Gaussian 16:  ES64L-G16RevC.01  3-Jul-2019

 -----------------------------------------------------------------
 #P M062X/Def2TZVPP Symm(None) scf(xqc) pop(None) freq opt(CalcFC)
 -----------------------------------------------------------------

 ------------------------------
 Gaussian input prepared by ASE
 ------------------------------
 Symbolic Z-matrix:
 Charge =  0 Multiplicity = 1

 SCF Done:  E(RM062X) =  -764.594999499     A.U. after   13 cycles
 SCF Done:  E(RM062X) =  -764.597957700     A.U. after   13 cycles
 SCF Done:  E(RM062X) =  -764.598011166     A.U. after   11 cycles
 SCF Done:  E(RM062X) =  -764.598013046     A.U. after    9 cycles
 SCF Done:  E(RM062X) =  -764.598014243     A.U. after   10 cycles
 SCF Done:  E(RM062X) =  -764.598015865     A.U. after   11 cycles
 SCF Done:  E(RM062X) =  -764.598019219     A.U. after   11 cycles
 SCF Done:  E(RM062X) =  -764.598124327     A.U. after   14 cycles
 SCF Done:  E(RM062X) =  -764.538258828     A.U. after   14 cycles
 SCF Done:  E(RM062X) =  -764.597134094     A.U. after   14 cycles
 SCF Done:  E(RM062X) =  -764.598202538     A.U. after   11 cycles
 SCF Done:  E(RM062X) =  -764.596906648     A.U. after   15 cycles
 SCF Done:  E(RM062X) =  -764.596225808     A.U. after   13 cycles
 SCF Done:  E(RM062X) =  -764.596106792     A.U. after   14 cycles
 SCF Done:  E(RM062X) =  -764.598210921     A.U. after    9 cycles
 SCF Done:  E(RM062X) =  -764.598008860     A.U. after   13 cycles
 SCF Done:  E(RM062X) =  -764.598257684     A.U. after   11 cycles
 SCF Done:  E(RM062X) =  -764.598260587     A.U. after    8 cycles
 Optimization completed.
    -- Stationary point found.
 Normal termination of Gaussian 16 at Sat May 24 05:02:37 2025.

 ---------------------------------------------------------------------
 #P Geom=AllCheck Guess=TCheck SCRF=Check GenChk RM062X/def2TZVPP Freq
 ---------------------------------------------------------------------

 Structure from the checkpoint file:  "1642764945472630600001_r12_insertion_R_3_1_2_IRC_F_prod.chk"
 ------------------------------
 Gaussian input prepared by ASE
 ------------------------------
 Charge =  0 Multiplicity = 1

                          Input orientation:
 ---------------------------------------------------------------------
 Center     Atomic      Atomic             Coordinates (Angstroms)
 Number     Number       Type             X           Y           Z
 ---------------------------------------------------------------------
      1          6           0        1.612227    1.081825   -0.846367
      2          8           0        1.133948   -0.181839   -0.701480
      3          6           0       -0.233928   -0.338213   -0.580280
      4          6           0       -0.728318   -0.048336    0.857057
      5          9           0       -2.025388   -0.304840    0.936607
      6          9           0       -0.080441   -0.828398    1.712801
      7          9           0       -0.516046    1.215026    1.180027
      8          9           0       -0.898531    0.427408   -1.433547
      9          9           0       -0.489225   -1.613948   -0.854401
     10          8           0        2.897187    0.970132   -0.927150
     11          1           0        3.206235    0.045184   -0.866527
 ---------------------------------------------------------------------

 SCF Done:  E(RM062X) =  -764.598260588     A.U. after    1 cycles

 Isotropic polarizability for W=    0.000000       46.90 Bohr**3.
 End of Minotr F.D. properties file   721 does not exist.

                      1                      2                      3
                      A                      A                      A
 Frequencies --     46.3461                94.1420               115.8646
 Red. masses --     14.6600                15.5344                 4.0141
 Frc consts  --      0.0186                 0.0811                 0.0317
 IR Inten    --      2.6412                 1.4575                25.6380

                      4                      5                      6
                      A                      A                      A
 Frequencies --    209.4430               224.8096               246.2416
 Red. masses --     13.8801                17.0253                14.1726
 Frc consts  --      0.3587                 0.5070                 0.5063
 IR Inten    --      1.9363                 1.6559                 7.5805

                      7                      8                      9
                      A                      A                      A
 Frequencies --    354.3197               375.1653               392.8125
 Red. masses --     17.1915                15.4954                14.8503
 Frc consts  --      1.2716                 1.2850                 1.3501
 IR Inten    --      0.4329                 1.4936                 1.2740

                     10                     11                     12
                      A                      A                      A
 Frequencies --    442.8762               529.3992               559.0409
 Red. masses --      9.7942                12.8956                14.4571
 Frc consts  --      1.1318                 2.1294                 2.6621
 IR Inten    --      7.1227                 1.1206                 2.8060

                     13                     14                     15
                      A                      A                      A
 Frequencies --    623.4257               685.6920               760.0664
 Red. masses --     14.6018                14.9989                10.3520
 Frc consts  --      3.3437                 4.1550                 3.5235
 IR Inten    --      2.0452                11.2024                25.9413

                     16                     17                     18
                      A                      A                      A
 Frequencies --    782.0615               865.0726              1084.8667
 Red. masses --      1.3137                 7.9335                 6.4872
 Frc consts  --      0.4734                 3.4980                 4.4984
 IR Inten    --    122.1973                20.0183                78.5119

                     19                     20                     21
                      A                      A                      A
 Frequencies --   1146.2174              1225.1058              1289.3261
 Red. masses --     12.4815                 5.2280                11.8461
 Frc consts  --      9.6616                 4.6231                11.6025
 IR Inten    --    481.8488               557.2525               125.7431

                     22                     23                     24
                      A                      A                      A
 Frequencies --   1298.0895              1304.7802              1363.3094
 Red. masses --      8.2606                11.4643                 2.3398
 Frc consts  --      8.2011                11.4993                 2.5622
 IR Inten    --    277.7240               418.1255               112.3682

                     25                     26                     27
                      A                      A                      A
 Frequencies --   1422.0908              1440.5607              3620.4860
 Red. masses --      6.1320                12.5426                 1.0625
 Frc consts  --      7.3064                15.3356                 8.2054
 IR Inten    --     68.3536                 1.6614                23.1949

 - Thermochemistry -
 -------------------
 Temperature   298.150 Kelvin.  Pressure   1.00000 Atm.
 Atom     1 has atomic number  6 and mass  12.00000

 Molecular mass:   163.98967 amu.
 Principal axes and moments of inertia in atomic units:
                           1         2         3
     Eigenvalues --   877.984331701.233791911.10187
           X            0.84679   0.30326  -0.43701
           Y            0.26296   0.47549   0.83950
           Z           -0.46238   0.82580  -0.32290
 This molecule is an asymmetric top.
 Rotational symmetry number  1.
 Warning -- assumption of classical behavior for rotation
           may cause significant error
 Rotational temperatures (Kelvin)      0.09865     0.05091     0.04532
 Rotational constants (GHZ):           2.05555     1.06084     0.94435
 Zero-point vibrational energy     134589.5 (Joules/Mol)
                                   32.16767 (Kcal/Mol)
 Warning -- explicit consideration of  12 degrees of freedom as
           vibrations may cause significant error
 Vibrational temperatures:     66.68   135.45   166.70   301.34   323.45
          (Kelvin)            354.29   509.79   539.78   565.17   637.20
                              761.69   804.34   896.97   986.56  1093.57
                             1125.21  1244.65  1560.88  1649.15  1762.65
                             1855.05  1867.66  1877.29  1961.50  2046.07
                             2072.65  5209.07

 Zero-point correction=                           0.051262 (Hartree/Particle)
 Thermal correction to Energy=                    0.060233
 Thermal correction to Enthalpy=                  0.061178
 Thermal correction to Gibbs Free Energy=         0.016117
 Sum of electronic and zero-point Energies=           -764.546998
 Sum of electronic and thermal Energies=              -764.538027
 Sum of electronic and thermal Enthalpies=            -764.537083
 Sum of electronic and thermal Free Energies=         -764.582144

                     E (Thermal)             CV                S
                      KCal/Mol        Cal/Mol-Kelvin    Cal/Mol-Kelvin
 Total                   37.797             30.757             94.839
 Electronic               0.000              0.000              0.000
 Translational            0.889              2.981             41.192
 Rotational               0.889              2.981             29.436
 Vibrational             36.020             24.795             24.211
 Vibration     1          0.595              1.979              4.968
 Vibration     2          0.603              1.953              3.572
 Vibration     3          0.608              1.936              3.168
 Vibration     4          0.642              1.826              2.049
 Vibration     5          0.649              1.803              1.920
 Vibration     6          0.661              1.769              1.757
 Vibration     7          0.730              1.566              1.147
 Vibration     8          0.746              1.523              1.059
 Vibration     9          0.760              1.486              0.989
 Vibration    10          0.803              1.377              0.818
 Vibration    11          0.884              1.185              0.589
 Vibration    12          0.915              1.120              0.526

 Optimization completed.
    -- Stationary point found.
 Normal termination of Gaussian 16 at Sat May 24 05:06:01 2025.
