 Gaussian 16, Revision C.01,
 Gaussian 16:  ES64L-G16RevC.01  3-Jul-2019

 ----------------------------------------------------------------------
 #P mp2/6-31G Symm(None) scf(xqc) pop(None) guess(Read,Mix) geom(AllChe
 ck,NoKeepConstants) irc(RCFC,reverse,MaxPoints=100,StepSize=2)
 ----------------------------------------------------------------------

 Structure from the checkpoint file:  "1642764945472630600001_R_Addition_MultipleBond_1_3_4_IRC_R.chk"
 ------------------------------
 Gaussian input prepared by ASE
 ------------------------------
 Charge =  0 Multiplicity = 1

 SCF Done:  E(RHF) =  -760.453941452     A.U. after   33 cycles
 SCF Done:  E(RHF) =  -760.530961052     a.u. after   13 cycles
 E2 =    -0.1219230730D+01 EUMP2 =    -0.76175019178216D+03
 SCF Done:  E(RHF) =  -760.527913797     A.U. after   13 cycles
 E2 =    -0.1222674048D+01 EUMP2 =    -0.76175058784469D+03
 SCF Done:  E(RHF) =  -760.525032136     A.U. after   13 cycles
 E2 =    -0.1226187270D+01 EUMP2 =    -0.76175121940595D+03
 SCF Done:  E(RHF) =  -760.522317743     A.U. after   13 cycles
 E2 =    -0.1229740619D+01 EUMP2 =    -0.76175205836156D+03
 SCF Done:  E(RHF) =  -760.519774499     A.U. after   13 cycles
 E2 =    -0.1233298747D+01 EUMP2 =    -0.76175307324641D+03
 SCF Done:  E(RHF) =  -760.517404888     A.U. after   13 cycles
 E2 =    -0.1236825218D+01 EUMP2 =    -0.76175423010585D+03
 SCF Done:  E(RHF) =  -760.515210385     A.U. after   14 cycles
 E2 =    -0.1240283182D+01 EUMP2 =    -0.76175549356731D+03
 SCF Done:  E(RHF) =  -760.513191452     A.U. after   14 cycles
 E2 =    -0.1243636543D+01 EUMP2 =    -0.76175682799453D+03
 SCF Done:  E(RHF) =  -760.511347555     A.U. after   14 cycles
 E2 =    -0.1246851299D+01 EUMP2 =    -0.76175819885470D+03
 E2 =    -0.1249896907D+01 EUMP2 =    -0.76175957410221D+03
 E2 =    -0.1252747725D+01 EUMP2 =    -0.76176092566759D+03
 E2 =    -0.1255384421D+01 EUMP2 =    -0.76176223091314D+03
 E2 =    -0.1257795148D+01 EUMP2 =    -0.76176347386460D+03
 E2 =    -0.1259976374D+01 EUMP2 =    -0.76176464595636D+03
 E2 =    -0.1261933069D+01 EUMP2 =    -0.76176574591057D+03
 E2 =    -0.1263678161D+01 EUMP2 =    -0.76176677852439D+03
 E2 =    -0.1265231156D+01 EUMP2 =    -0.76176775248048D+03
 E2 =    -0.1266616150D+01 EUMP2 =    -0.76176867791090D+03
 E2 =    -0.1267859507D+01 EUMP2 =    -0.76176956445656D+03
 E2 =    -0.1268987657D+01 EUMP2 =    -0.76177042025493D+03
 E2 =    -0.1339793353D+01 EUMP2 =    -0.76182141531487D+03
 E2 =    -0.1340576877D+01 EUMP2 =    -0.76182188348605D+03
 E2 =    -0.1341327254D+01 EUMP2 =    -0.76182233490974D+03
 E2 =    -0.1342048675D+01 EUMP2 =    -0.76182277086194D+03
 E2 =    -0.1342744867D+01 EUMP2 =    -0.76182319254864D+03
 E2 =    -0.1343419049D+01 EUMP2 =    -0.76182360111131D+03
 E2 =    -0.1344073928D+01 EUMP2 =    -0.76182399763017D+03
 E2 =    -0.1344711741D+01 EUMP2 =    -0.76182438312394D+03
 E2 =    -0.1345334314D+01 EUMP2 =    -0.76182475854869D+03
 E2 =    -0.1345943127D+01 EUMP2 =    -0.76182512479595D+03
 SCF Done:  E(RHF) =  -760.478943307     A.U. after   13 cycles
 E2 =    -0.1346539384D+01 EUMP2 =    -0.76182548269120D+03
 SCF Done:  E(RHF) =  -760.478708915     A.U. after   12 cycles
 E2 =    -0.1347124077D+01 EUMP2 =    -0.76182583299185D+03
 SCF Done:  E(RHF) =  -760.478478352     A.U. after   12 cycles
 E2 =    -0.1347698043D+01 EUMP2 =    -0.76182617639429D+03
 SCF Done:  E(RHF) =  -760.478251531     A.U. after   12 cycles
 E2 =    -0.1348261995D+01 EUMP2 =    -0.76182651352601D+03
 SCF Done:  E(RHF) =  -760.478028385     A.U. after   12 cycles
 E2 =    -0.1348816570D+01 EUMP2 =    -0.76182684495518D+03
 SCF Done:  E(RHF) =  -760.477808858     A.U. after   12 cycles
 E2 =    -0.1349362335D+01 EUMP2 =    -0.76182717119295D+03
 SCF Done:  E(RHF) =  -760.477592870     A.U. after   12 cycles
 E2 =    -0.1349899828D+01 EUMP2 =    -0.76182749269760D+03
 SCF Done:  E(RHF) =  -760.477380357     A.U. after   12 cycles
 E2 =    -0.1350429522D+01 EUMP2 =    -0.76182780987933D+03
 SCF Done:  E(RHF) =  -760.477171193     A.U. after   12 cycles
 E2 =    -0.1350951911D+01 EUMP2 =    -0.76182812310491D+03
 SCF Done:  E(RHF) =  -760.476965317     A.U. after   12 cycles
 E2 =    -0.1351467385D+01 EUMP2 =    -0.76182843270232D+03

                          Input orientation:
 ---------------------------------------------------------------------
 Center     Atomic      Atomic             Coordinates (Angstroms)
 Number     Number       Type             X           Y           Z
 ---------------------------------------------------------------------
      1          6           0        1.341488   -0.078975   -1.072079
      2          8           0        2.218384   -0.814912   -0.597741
      3          6           0       -0.015879   -0.584603   -1.582349
      4          6           0       -0.819552    0.434173    1.893021
      5          9           0       -1.514276    1.220958    0.998715
      6          9           0       -1.117975   -0.899715    1.712439
      7          9           0        0.545208    0.639636    1.734767
      8          9           0       -1.021708    0.395858   -1.543359
      9          9           0       -0.431406   -1.690161   -0.815859
     10          8           0        1.460088    1.282144   -1.251925
     11          1           0        2.328958    1.601857   -0.913741
 ---------------------------------------------------------------------

 Normal termination of Gaussian 16 at Sat May 24 03:12:19 2025.
