 Gaussian 16, Revision C.01,
 Gaussian 16:  ES64L-G16RevC.01  3-Jul-2019

 -----------------------------------------------------------------
 #P M062X/Def2TZVPP Symm(None) scf(xqc) pop(None) freq opt(CalcFC)
 -----------------------------------------------------------------

 ------------------------------
 Gaussian input prepared by ASE
 ------------------------------
 Symbolic Z-matrix:
 Charge =  0 Multiplicity = 1

 SCF Done:  E(RM062X) =  -764.488280447     A.U. after   14 cycles
 SCF Done:  E(RM062X) =  -764.490555245     A.U. after   16 cycles
 SCF Done:  E(RM062X) =  -764.490371979     A.U. after   16 cycles
 SCF Done:  E(RM062X) =  -764.491047641     A.U. after   13 cycles
 SCF Done:  E(RM062X) =  -764.491137544     A.U. after   12 cycles
 SCF Done:  E(RM062X) =  -764.491196082     A.U. after   13 cycles
 SCF Done:  E(RM062X) =  -764.491167368     A.U. after   11 cycles
 SCF Done:  E(RM062X) =  -764.491233568     A.U. after   11 cycles
 SCF Done:  E(RM062X) =  -764.491235832     A.U. after    8 cycles
 SCF Done:  E(RM062X) =  -764.491237194     A.U. after    8 cycles
 SCF Done:  E(RM062X) =  -764.491238584     A.U. after   11 cycles
 SCF Done:  E(RM062X) =  -764.491238847     A.U. after    9 cycles
 SCF Done:  E(RM062X) =  -764.491238866     A.U. after    8 cycles
 SCF Done:  E(RM062X) =  -764.491238870     A.U. after    7 cycles
 Optimization completed.
    -- Stationary point found.
 Normal termination of Gaussian 16 at Sat May 24 07:10:33 2025.

 ---------------------------------------------------------------------
 #P Geom=AllCheck Guess=TCheck SCRF=Check GenChk RM062X/def2TZVPP Freq
 ---------------------------------------------------------------------

 Structure from the checkpoint file:  "1642764945472630600001_r13_insertion_ROR_8_3_1_2_IRC_F_prod.chk"
 ------------------------------
 Gaussian input prepared by ASE
 ------------------------------
 Charge =  0 Multiplicity = 1

                          Input orientation:
 ---------------------------------------------------------------------
 Center     Atomic      Atomic             Coordinates (Angstroms)
 Number     Number       Type             X           Y           Z
 ---------------------------------------------------------------------
      1          6           0        0.368264    0.999540   -0.707748
      2          8           0        0.644089    1.683862    0.419040
      3          6           0        0.095719   -0.301848   -0.628196
      4          6           0       -0.169193   -1.120051    0.607738
      5          9           0        0.866373   -1.919994    0.875682
      6          9           0       -0.409083   -0.378985    1.677954
      7          9           0       -1.227579   -1.902220    0.394516
      8          9           0       -0.380196    2.675488    0.541020
      9          9           0        0.066557   -1.035819   -1.732072
     10          8           0        0.464077    1.642486   -1.872838
     11          1           0        0.917175    2.482872   -1.738707
 ---------------------------------------------------------------------

 SCF Done:  E(RM062X) =  -764.491238870     A.U. after    1 cycles

 Isotropic polarizability for W=    0.000000       51.22 Bohr**3.
 End of Minotr F.D. properties file   721 does not exist.

                      1                      2                      3
                      A                      A                      A
 Frequencies --     20.1091                79.5855               103.0631
 Red. masses --     18.5924                16.3007                14.8582
 Frc consts  --      0.0044                 0.0608                 0.0930
 IR Inten    --      0.1593                 1.6784                 1.2920

                      4                      5                      6
                      A                      A                      A
 Frequencies --    194.5210               216.1463               260.4965
 Red. masses --     13.9453                 2.9911                 1.8114
 Frc consts  --      0.3109                 0.0823                 0.0724
 IR Inten    --      0.1473                23.6586                68.2934

                      7                      8                      9
                      A                      A                      A
 Frequencies --    270.9852               326.5953               368.2427
 Red. masses --      6.8357                 9.7638                13.4319
 Frc consts  --      0.2958                 0.6136                 1.0731
 IR Inten    --     16.7082                 3.7460                 0.6730

                     10                     11                     12
                      A                      A                      A
 Frequencies --    375.7716               496.7826               512.8714
 Red. masses --     11.9625                16.4741                13.2962
 Frc consts  --      0.9952                 2.3954                 2.0606
 IR Inten    --      1.0141                 1.8177                 5.3730

                     13                     14                     15
                      A                      A                      A
 Frequencies --    594.3843               612.7284               683.2886
 Red. masses --      8.8562                13.5793                10.4941
 Frc consts  --      1.8435                 3.0038                 2.8867
 IR Inten    --     21.5324                 2.1286                21.5117

                     16                     17                     18
                      A                      A                      A
 Frequencies --    751.3176               818.7821               899.5370
 Red. masses --     14.5181                11.8760                15.5886
 Frc consts  --      4.8284                 4.6909                 7.4318
 IR Inten    --     51.3717                33.9420               103.0264

                     19                     20                     21
                      A                      A                      A
 Frequencies --   1048.0704              1189.1619              1224.7631
 Red. masses --      8.7979                 2.9324                12.9506
 Frc consts  --      5.6939                 2.4432                11.4458
 IR Inten    --    244.0550                20.1300               296.1321

                     22                     23                     24
                      A                      A                      A
 Frequencies --   1278.9027              1306.9688              1376.4006
 Red. masses --     12.5949                 2.2773                 8.6044
 Frc consts  --     12.1373                 2.2919                 9.6042
 IR Inten    --    318.9311                87.1817               216.6579

                     25                     26                     27
                      A                      A                      A
 Frequencies --   1417.1681              1842.5298              3852.6689
 Red. masses --     10.7535                 9.6876                 1.0657
 Frc consts  --     12.7246                19.3774                 9.3200
 IR Inten    --    265.4791                87.8094               168.0998

 - Thermochemistry -
 -------------------
 Temperature   298.150 Kelvin.  Pressure   1.00000 Atm.
 Atom     1 has atomic number  6 and mass  12.00000

 Molecular mass:   163.98967 amu.
 Principal axes and moments of inertia in atomic units:
                           1         2         3
     Eigenvalues --   913.080021757.583052281.10062
           X            0.10469  -0.14659   0.98364
           Y            0.96493   0.25441  -0.06478
           Z           -0.24075   0.95592   0.16808
 This molecule is an asymmetric top.
 Rotational symmetry number  1.
 Warning -- assumption of classical behavior for rotation
           may cause significant error
 Rotational temperatures (Kelvin)      0.09486     0.04928     0.03797
 Rotational constants (GHZ):           1.97654     1.02683     0.79117
 Zero-point vibrational energy     132318.0 (Joules/Mol)
                                   31.62476 (Kcal/Mol)
 Warning -- explicit consideration of  14 degrees of freedom as
           vibrations may cause significant error
 Vibrational temperatures:     28.93   114.51   148.28   279.87   310.99
          (Kelvin)            374.80   389.89   469.90   529.82   540.65
                              714.76   737.91   855.19   881.58   983.10
                             1080.98  1178.04  1294.23  1507.94  1710.94
                             1762.16  1840.06  1880.44  1980.33  2038.99
                             2650.99  5543.13

 Zero-point correction=                           0.050397 (Hartree/Particle)
 Thermal correction to Energy=                    0.059931
 Thermal correction to Enthalpy=                  0.060875
 Thermal correction to Gibbs Free Energy=         0.013845
 Sum of electronic and zero-point Energies=           -764.440842
 Sum of electronic and thermal Energies=              -764.431308
 Sum of electronic and thermal Enthalpies=            -764.430364
 Sum of electronic and thermal Free Energies=         -764.477394

                     E (Thermal)             CV                S
                      KCal/Mol        Cal/Mol-Kelvin    Cal/Mol-Kelvin
 Total                   37.607             32.186             98.983
 Electronic               0.000              0.000              0.000
 Translational            0.889              2.981             41.192
 Rotational               0.889              2.981             29.683
 Vibrational             35.830             26.225             28.107
 Vibration     1          0.593              1.986              6.623
 Vibration     2          0.600              1.963              3.901
 Vibration     3          0.605              1.947              3.396
 Vibration     4          0.635              1.847              2.184
 Vibration     5          0.645              1.816              1.991
 Vibration     6          0.669              1.745              1.658
 Vibration     7          0.675              1.727              1.590
 Vibration     8          0.710              1.622              1.277
 Vibration     9          0.741              1.538              1.087
 Vibration    10          0.747              1.522              1.056
 Vibration    11          0.852              1.257              0.666
 Vibration    12          0.868              1.221              0.627
 Vibration    13          0.952              1.044              0.459
 Vibration    14          0.972              1.005              0.428

 Optimization completed.
    -- Stationary point found.
 Normal termination of Gaussian 16 at Sat May 24 07:13:46 2025.
