 Gaussian 16, Revision C.01,
 Gaussian 16:  ES64L-G16RevC.01  3-Jul-2019

 ----------------------------------------------------------------------
 #P M062X/Def2TZVPP Symm(None) scf(xqc) pop(None) geom(AllCheck,NoKeepC
 onstants) guess(Read) irc(RCFC,reverse,MaxPoints=100,StepSize=2)
 ----------------------------------------------------------------------

 Structure from the checkpoint file:  "1642764945472630600001_r12_insertion_R_2_1_10_IRC_R.chk"
 ------------------------------
 Gaussian input prepared by ASE
 ------------------------------
 Charge =  0 Multiplicity = 1

 SCF Done:  E(RM062X) =  -764.544795531     A.U. after   10 cycles
 SCF Done:  E(RM062X) =  -764.546455268     A.U. after   10 cycles
 SCF Done:  E(RM062X) =  -764.546882969     A.U. after    9 cycles
 SCF Done:  E(RM062X) =  -764.551590145     A.U. after   11 cycles
 SCF Done:  E(RM062X) =  -764.556198108     A.U. after   11 cycles
 SCF Done:  E(RM062X) =  -764.560662293     A.U. after   10 cycles
 SCF Done:  E(RM062X) =  -764.564984128     A.U. after   10 cycles
 SCF Done:  E(RM062X) =  -764.569170390     A.U. after   10 cycles
 SCF Done:  E(RM062X) =  -764.573215389     A.U. after   10 cycles
 SCF Done:  E(RM062X) =  -764.577113369     A.U. after   10 cycles
 SCF Done:  E(RM062X) =  -764.666444059     A.U. after    9 cycles
 SCF Done:  E(RM062X) =  -764.666603098     A.U. after    9 cycles
 SCF Done:  E(RM062X) =  -764.666750623     A.U. after    9 cycles
 SCF Done:  E(RM062X) =  -764.666886893     A.U. after    9 cycles
 SCF Done:  E(RM062X) =  -764.667012199     A.U. after    9 cycles
 SCF Done:  E(RM062X) =  -764.667126863     A.U. after    9 cycles
 SCF Done:  E(RM062X) =  -764.667231253     A.U. after    9 cycles
 SCF Done:  E(RM062X) =  -764.667325788     A.U. after    9 cycles
 SCF Done:  E(RM062X) =  -764.667410904     A.U. after    9 cycles
 SCF Done:  E(RM062X) =  -764.667486812     A.U. after    9 cycles

                          Input orientation:
 ---------------------------------------------------------------------
 Center     Atomic      Atomic             Coordinates (Angstroms)
 Number     Number       Type             X           Y           Z
 ---------------------------------------------------------------------
      1          6           0        1.359780   -0.320095   -0.613877
      2          8           0        1.968528   -1.325323   -0.782026
      3          6           0       -0.180597   -0.235276   -0.580580
      4          6           0       -0.665512    0.298000    0.791003
      5          9           0       -1.929877   -0.024331    1.004243
      6          9           0        0.082588   -0.252590    1.747606
      7          9           0       -0.542159    1.612794    0.854651
      8          9           0       -0.607416    0.588977   -1.550307
      9          9           0       -0.706759   -1.441777   -0.776959
     10          8           0        1.866953    0.892396   -0.408656
     11          1           0        2.831847    0.830803   -0.414027
 ---------------------------------------------------------------------

 Normal termination of Gaussian 16 at Sat May 24 06:29:48 2025.
