 Gaussian 16, Revision C.01,
 Gaussian 16:  ES64L-G16RevC.01  3-Jul-2019

 -----------------------------------------------------------------
 #P M062X/Def2TZVPP Symm(None) scf(xqc) pop(None) freq opt(CalcFC)
 -----------------------------------------------------------------

 ------------------------------
 Gaussian input prepared by ASE
 ------------------------------
 Symbolic Z-matrix:
 Charge =  0 Multiplicity = 1

 SCF Done:  E(RM062X) =  -764.655496982     A.U. after   13 cycles
 SCF Done:  E(RM062X) =  -764.667162533     A.U. after   14 cycles
 SCF Done:  E(RM062X) =  -764.667758331     A.U. after   15 cycles
 SCF Done:  E(RM062X) =  -764.632132974     A.U. after   15 cycles
 SCF Done:  E(RM062X) =  -764.665787042     A.U. after   13 cycles
 SCF Done:  E(RM062X) =  -764.667762622     A.U. after    8 cycles
 SCF Done:  E(RM062X) =  -764.667928363     A.U. after   11 cycles
 SCF Done:  E(RM062X) =  -764.667950055     A.U. after   10 cycles
 SCF Done:  E(RM062X) =  -764.667952323     A.U. after    9 cycles
 SCF Done:  E(RM062X) =  -764.667952612     A.U. after    8 cycles
 SCF Done:  E(RM062X) =  -764.667952653     A.U. after    7 cycles
 Optimization completed.
    -- Stationary point found.
 Normal termination of Gaussian 16 at Sat May 24 03:34:47 2025.

 ---------------------------------------------------------------------
 #P Geom=AllCheck Guess=TCheck SCRF=Check GenChk RM062X/def2TZVPP Freq
 ---------------------------------------------------------------------

 Structure from the checkpoint file:  "1642764945472630600001_r12_insertion_R_3_4_5_IRC_R_prod.chk"
 ------------------------------
 Gaussian input prepared by ASE
 ------------------------------
 Charge =  0 Multiplicity = 1

                          Input orientation:
 ---------------------------------------------------------------------
 Center     Atomic      Atomic             Coordinates (Angstroms)
 Number     Number       Type             X           Y           Z
 ---------------------------------------------------------------------
      1          6           0        1.469279    0.114705   -0.424901
      2          8           0        2.054078    0.079184    0.611015
      3          6           0       -0.064213    0.034301   -0.547704
      4          6           0       -0.773060   -0.103558    0.814474
      5          9           0       -2.083800   -0.167688    0.613350
      6          9           0       -0.384469   -1.210068    1.428767
      7          9           0       -0.513056    0.944587    1.580253
      8          9           0       -0.522872    1.143912   -1.145102
      9          9           0       -0.397215   -1.025347   -1.299072
     10          8           0        2.010247    0.227141   -1.632340
     11          1           0        2.971287    0.276152   -1.533488
 ---------------------------------------------------------------------

 SCF Done:  E(RM062X) =  -764.667952653     A.U. after    1 cycles

 Isotropic polarizability for W=    0.000000       43.70 Bohr**3.
 End of Minotr F.D. properties file   721 does not exist.

                      1                      2                      3
                      A                      A                      A
 Frequencies --     31.1113                89.0717               156.2033
 Red. masses --     12.2296                17.8574                12.5422
 Frc consts  --      0.0070                 0.0835                 0.1803
 IR Inten    --      1.7393                 0.0000                 0.1392

                      4                      5                      6
                      A                      A                      A
 Frequencies --    214.8271               248.5370               279.3025
 Red. masses --     14.9757                10.5778                14.1416
 Frc consts  --      0.4072                 0.3850                 0.6500
 IR Inten    --      1.5982                 0.1496                 5.7636

                      7                      8                      9
                      A                      A                      A
 Frequencies --    340.4891               363.0558               422.6156
 Red. masses --     13.3061                14.1391                11.3688
 Frc consts  --      0.9089                 1.0980                 1.1963
 IR Inten    --      0.2297                 0.4499                 0.0654

                     10                     11                     12
                      A                      A                      A
 Frequencies --    423.7153               544.1834               568.3441
 Red. masses --     16.4481                15.5015                 1.5636
 Frc consts  --      1.7399                 2.7047                 0.2976
 IR Inten    --      0.8215                11.5773                83.2513

                     13                     14                     15
                      A                      A                      A
 Frequencies --    606.3926               671.8691               696.8494
 Red. masses --      4.0199                 9.2383                 5.4904
 Frc consts  --      0.8709                 2.4570                 1.5708
 IR Inten    --     21.3323                16.4215               116.6405

                     16                     17                     18
                      A                      A                      A
 Frequencies --    793.6528               805.0567              1062.5544
 Red. masses --     11.1991                 9.9414                13.5929
 Frc consts  --      4.1562                 3.7962                 9.0420
 IR Inten    --      1.7910                31.9178               270.0687

                     19                     20                     21
                      A                      A                      A
 Frequencies --   1201.0604              1233.8126              1235.3584
 Red. masses --      3.6989                12.9517                 2.5127
 Frc consts  --      3.1438                11.6165                 2.2593
 IR Inten    --     45.6626               151.1220               207.5914

                     22                     23                     24
                      A                      A                      A
 Frequencies --   1284.7088              1300.6132              1417.3314
 Red. masses --     12.9207                13.1479                11.7604
 Frc consts  --     12.5645                13.1039                13.9192
 IR Inten    --    167.6520               307.3867                58.5790

                     25                     26                     27
                      A                      A                      A
 Frequencies --   1440.6612              1911.8531              3809.6943
 Red. masses --      4.7676                11.6831                 1.0646
 Frc consts  --      5.8300                25.1605                 9.1039
 IR Inten    --    104.3661               309.2256               132.2641

 - Thermochemistry -
 -------------------
 Temperature   298.150 Kelvin.  Pressure   1.00000 Atm.
 Atom     1 has atomic number  6 and mass  12.00000

 Molecular mass:   163.98967 amu.
 Principal axes and moments of inertia in atomic units:
                           1         2         3
     Eigenvalues --   884.930661502.733251748.07719
           X            0.81393   0.57801  -0.05849
           Y            0.08759  -0.02257   0.99590
           Z           -0.57432   0.81572   0.06900
 This molecule is an asymmetric top.
 Rotational symmetry number  1.
 Warning -- assumption of classical behavior for rotation
           may cause significant error
 Rotational temperatures (Kelvin)      0.09788     0.05764     0.04955
 Rotational constants (GHZ):           2.03942     1.20097     1.03242
 Zero-point vibrational energy     138485.2 (Joules/Mol)
                                   33.09877 (Kcal/Mol)
 Warning -- explicit consideration of  13 degrees of freedom as
           vibrations may cause significant error
 Vibrational temperatures:     44.76   128.15   224.74   309.09   357.59
          (Kelvin)            401.85   489.89   522.36   608.05   609.63
                              782.96   817.72   872.46   966.67  1002.61
                             1141.89  1158.30  1528.78  1728.06  1775.18
                             1777.41  1848.41  1871.29  2039.22  2072.79
                             2750.73  5481.30

 Zero-point correction=                           0.052746 (Hartree/Particle)
 Thermal correction to Energy=                    0.061645
 Thermal correction to Enthalpy=                  0.062589
 Thermal correction to Gibbs Free Energy=         0.017611
 Sum of electronic and zero-point Energies=           -764.615206
 Sum of electronic and thermal Energies=              -764.606308
 Sum of electronic and thermal Enthalpies=            -764.605364
 Sum of electronic and thermal Free Energies=         -764.650342

                     E (Thermal)             CV                S
                      KCal/Mol        Cal/Mol-Kelvin    Cal/Mol-Kelvin
 Total                   38.683             30.766             94.665
 Electronic               0.000              0.000              0.000
 Translational            0.889              2.981             41.192
 Rotational               0.889              2.981             29.232
 Vibrational             36.905             24.804             24.240
 Vibration     1          0.594              1.983              5.757
 Vibration     2          0.602              1.957              3.680
 Vibration     3          0.620              1.896              2.595
 Vibration     4          0.645              1.818              2.002
 Vibration     5          0.662              1.765              1.741
 Vibration     6          0.680              1.712              1.538
 Vibration     7          0.720              1.595              1.210
 Vibration     8          0.737              1.548              1.109
 Vibration     9          0.785              1.421              0.883
 Vibration    10          0.786              1.419              0.879
 Vibration    11          0.899              1.152              0.556
 Vibration    12          0.924              1.100              0.507
 Vibration    13          0.965              1.018              0.439

 Optimization completed.
    -- Stationary point found.
 Normal termination of Gaussian 16 at Sat May 24 03:38:16 2025.
