 Gaussian 16, Revision C.01,
 Gaussian 16:  ES64L-G16RevC.01  3-Jul-2019

 -----------------------------------------------------------------
 #P M062X/Def2TZVPP Symm(None) scf(xqc) pop(None) freq opt(CalcFC)
 -----------------------------------------------------------------

 ------------------------------
 Gaussian input prepared by ASE
 ------------------------------
 Symbolic Z-matrix:
 Charge =  0 Multiplicity = 1

 SCF Done:  E(RM062X) =  -764.596437675     A.U. after   13 cycles
 SCF Done:  E(RM062X) =  -764.597742762     A.U. after   14 cycles
 SCF Done:  E(RM062X) =  -764.590380122     A.U. after   14 cycles
 SCF Done:  E(RM062X) =  -764.598005013     A.U. after   12 cycles
 SCF Done:  E(RM062X) =  -764.598027151     A.U. after    9 cycles
 SCF Done:  E(RM062X) =  -764.598030155     A.U. after    9 cycles
 SCF Done:  E(RM062X) =  -764.598037055     A.U. after   11 cycles
 SCF Done:  E(RM062X) =  -764.598066491     A.U. after   12 cycles
 SCF Done:  E(RM062X) =  -764.597738953     A.U. after   13 cycles
 SCF Done:  E(RM062X) =  -764.598098449     A.U. after   11 cycles
 SCF Done:  E(RM062X) =  -764.598215452     A.U. after   11 cycles
 SCF Done:  E(RM062X) =  -764.597495234     A.U. after   14 cycles
 SCF Done:  E(RM062X) =  -764.598252943     A.U. after   11 cycles
 SCF Done:  E(RM062X) =  -764.598259004     A.U. after   11 cycles
 SCF Done:  E(RM062X) =  -764.598259956     A.U. after    7 cycles
 SCF Done:  E(RM062X) =  -764.598260033     A.U. after    7 cycles
 Optimization completed.
    -- Stationary point found.
 Normal termination of Gaussian 16 at Sat May 24 04:44:17 2025.

 ---------------------------------------------------------------------
 #P Geom=AllCheck Guess=TCheck SCRF=Check GenChk RM062X/def2TZVPP Freq
 ---------------------------------------------------------------------

 Structure from the checkpoint file:  "1642764945472630600001_r12_insertion_R_2_1_3_IRC_R_prod.chk"
 ------------------------------
 Gaussian input prepared by ASE
 ------------------------------
 Charge =  0 Multiplicity = 1

                          Input orientation:
 ---------------------------------------------------------------------
 Center     Atomic      Atomic             Coordinates (Angstroms)
 Number     Number       Type             X           Y           Z
 ---------------------------------------------------------------------
      1          6           0        1.257328    1.175796   -1.210889
      2          8           0        1.215644   -0.015841   -0.558944
      3          6           0       -0.024611   -0.594180   -0.365321
      4          6           0       -0.779057    0.029831    0.833031
      5          9           0       -1.050280    1.302669    0.605957
      6          9           0       -1.912190   -0.627175    1.030122
      7          9           0       -0.029697   -0.064805    1.923973
      8          9           0       -0.783378   -0.514515   -1.448823
      9          9           0        0.200533   -1.874884   -0.088109
     10          8           0        2.504136    1.512168   -1.260500
     11          1           0        3.094565    0.859638   -0.835856
 ---------------------------------------------------------------------

 SCF Done:  E(RM062X) =  -764.598260033     A.U. after    1 cycles

 Isotropic polarizability for W=    0.000000       46.92 Bohr**3.
 End of Minotr F.D. properties file   721 does not exist.

                      1                      2                      3
                      A                      A                      A
 Frequencies --     46.6724                95.2584               120.3033
 Red. masses --     14.9246                15.1773                 4.0481
 Frc consts  --      0.0192                 0.0811                 0.0345
 IR Inten    --      2.3731                 0.8404                26.2878

                      4                      5                      6
                      A                      A                      A
 Frequencies --    208.9352               224.3606               245.7760
 Red. masses --     13.8846                16.9412                14.0422
 Frc consts  --      0.3571                 0.5024                 0.4998
 IR Inten    --      1.8901                 1.6331                 7.5898

                      7                      8                      9
                      A                      A                      A
 Frequencies --    354.3312               375.0972               392.7649
 Red. masses --     17.1621                15.4853                14.8600
 Frc consts  --      1.2695                 1.2837                 1.3506
 IR Inten    --      0.4372                 1.5050                 1.2662

                     10                     11                     12
                      A                      A                      A
 Frequencies --    442.8914               529.3000               558.9551
 Red. masses --      9.8137                12.9538                14.4083
 Frc consts  --      1.1342                 2.1382                 2.6523
 IR Inten    --      7.1318                 1.1339                 2.7614

                     13                     14                     15
                      A                      A                      A
 Frequencies --    623.3424               685.7188               759.9084
 Red. masses --     14.6143                14.9877                10.6258
 Frc consts  --      3.3457                 4.1522                 3.6152
 IR Inten    --      2.0332                11.1480                26.9846

                     16                     17                     18
                      A                      A                      A
 Frequencies --    783.6262               864.9204              1084.8117
 Red. masses --      1.3080                 7.9522                 6.5501
 Frc consts  --      0.4732                 3.5050                 4.5416
 IR Inten    --    121.3170                19.7749                81.3827

                     19                     20                     21
                      A                      A                      A
 Frequencies --   1145.9083              1225.4698              1288.9013
 Red. masses --     12.3301                 5.2049                12.0258
 Frc consts  --      9.5393                 4.6054                11.7707
 IR Inten    --    481.2123               555.1593               137.1927

                     22                     23                     24
                      A                      A                      A
 Frequencies --   1298.0059              1304.7870              1363.8523
 Red. masses --      8.2589                11.5110                 2.3314
 Frc consts  --      8.1983                11.5463                 2.5551
 IR Inten    --    267.3793               416.4434               112.0489

                     25                     26                     27
                      A                      A                      A
 Frequencies --   1422.4130              1439.9492              3621.4195
 Red. masses --      6.1223                12.5406                 1.0625
 Frc consts  --      7.2982                15.3202                 8.2098
 IR Inten    --     68.3175                 1.5239                23.1498

 - Thermochemistry -
 -------------------
 Temperature   298.150 Kelvin.  Pressure   1.00000 Atm.
 Atom     1 has atomic number  6 and mass  12.00000

 Molecular mass:   163.98967 amu.
 Principal axes and moments of inertia in atomic units:
                           1         2         3
     Eigenvalues --   878.071891700.602931910.77583
           X            0.76489   0.01037   0.64408
           Y            0.34998   0.83274  -0.42903
           Z           -0.54080   0.55357   0.63332
 This molecule is an asymmetric top.
 Rotational symmetry number  1.
 Warning -- assumption of classical behavior for rotation
           may cause significant error
 Rotational temperatures (Kelvin)      0.09864     0.05093     0.04533
 Rotational constants (GHZ):           2.05535     1.06124     0.94451
 Zero-point vibrational energy     134625.8 (Joules/Mol)
                                   32.17634 (Kcal/Mol)
 Warning -- explicit consideration of  12 degrees of freedom as
           vibrations may cause significant error
 Vibrational temperatures:     67.15   137.06   173.09   300.61   322.80
          (Kelvin)            353.62   509.80   539.68   565.10   637.22
                              761.54   804.21   896.85   986.60  1093.34
                             1127.46  1244.43  1560.80  1648.71  1763.18
                             1854.44  1867.54  1877.30  1962.28  2046.54
                             2071.77  5210.41

 Zero-point correction=                           0.051276 (Hartree/Particle)
 Thermal correction to Energy=                    0.060238
 Thermal correction to Enthalpy=                  0.061182
 Thermal correction to Gibbs Free Energy=         0.016168
 Sum of electronic and zero-point Energies=           -764.546984
 Sum of electronic and thermal Energies=              -764.538022
 Sum of electronic and thermal Enthalpies=            -764.537078
 Sum of electronic and thermal Free Energies=         -764.582092

                     E (Thermal)             CV                S
                      KCal/Mol        Cal/Mol-Kelvin    Cal/Mol-Kelvin
 Total                   37.800             30.753             94.740
 Electronic               0.000              0.000              0.000
 Translational            0.889              2.981             41.192
 Rotational               0.889              2.981             29.435
 Vibrational             36.023             24.791             24.112
 Vibration     1          0.595              1.979              4.954
 Vibration     2          0.603              1.953              3.549
 Vibration     3          0.609              1.932              3.095
 Vibration     4          0.642              1.827              2.053
 Vibration     5          0.649              1.804              1.924
 Vibration     6          0.660              1.770              1.761
 Vibration     7          0.730              1.566              1.147
 Vibration     8          0.746              1.523              1.059
 Vibration     9          0.760              1.486              0.990
 Vibration    10          0.803              1.377              0.818
 Vibration    11          0.884              1.185              0.589
 Vibration    12          0.915              1.120              0.526

 Optimization completed.
    -- Stationary point found.
 Normal termination of Gaussian 16 at Sat May 24 04:47:36 2025.
