 Gaussian 16, Revision C.01,
 Gaussian 16:  ES64L-G16RevC.01  3-Jul-2019

 ----------------------------------------------------------------------
 #P M062X/Def2TZVPP Symm(None) scf(xqc) pop(None) geom(AllCheck,NoKeepC
 onstants) guess(Read) irc(RCFC,forward,MaxPoints=100,StepSize=2)
 ----------------------------------------------------------------------

 Structure from the checkpoint file:  "1642764945472630600001_r12_insertion_R_5_4_6_IRC_F.chk"
 ------------------------------
 Gaussian input prepared by ASE
 ------------------------------
 Charge =  0 Multiplicity = 1

 SCF Done:  E(RM062X) =  -764.552289009     A.U. after   10 cycles
 SCF Done:  E(RM062X) =  -764.552374942     A.U. after   11 cycles
 SCF Done:  E(RM062X) =  -764.552515706     A.U. after   11 cycles
 SCF Done:  E(RM062X) =  -764.552709267     A.U. after   11 cycles
 SCF Done:  E(RM062X) =  -764.552953759     A.U. after   11 cycles
 SCF Done:  E(RM062X) =  -764.553247385     A.U. after   11 cycles
 SCF Done:  E(RM062X) =  -764.553588422     A.U. after   11 cycles
 SCF Done:  E(RM062X) =  -764.553975183     A.U. after   11 cycles
 SCF Done:  E(RM062X) =  -764.554406002     A.U. after   11 cycles
 SCF Done:  E(RM062X) =  -764.554879198     A.U. after   11 cycles
 SCF Done:  E(RM062X) =  -764.615227990     A.U. after    9 cycles
 SCF Done:  E(RM062X) =  -764.615527010     A.U. after    9 cycles
 SCF Done:  E(RM062X) =  -764.615816387     A.U. after    9 cycles
 SCF Done:  E(RM062X) =  -764.616096479     A.U. after    9 cycles
 SCF Done:  E(RM062X) =  -764.616367637     A.U. after    9 cycles
 SCF Done:  E(RM062X) =  -764.616630208     A.U. after    9 cycles
 SCF Done:  E(RM062X) =  -764.616884539     A.U. after    9 cycles
 SCF Done:  E(RM062X) =  -764.617130975     A.U. after    9 cycles
 SCF Done:  E(RM062X) =  -764.617369858     A.U. after    9 cycles
 SCF Done:  E(RM062X) =  -764.617601531     A.U. after    9 cycles

                          Input orientation:
 ---------------------------------------------------------------------
 Center     Atomic      Atomic             Coordinates (Angstroms)
 Number     Number       Type             X           Y           Z
 ---------------------------------------------------------------------
      1          6           0        1.899645   -0.585039   -0.852806
      2          8           0        1.542863   -1.191302   -1.758174
      3          6           0       -0.863092   -0.145354   -0.614871
      4          6           0       -1.136462    0.364009    0.565591
      5          9           0       -1.428896   -0.377309    1.597935
      6          9           0        0.818021    0.743491    2.065697
      7          9           0       -1.179230    1.649845    0.780521
      8          9           0       -0.559654    0.598265   -1.660681
      9          9           0       -0.886256   -1.437186   -0.859011
     10          8           0        2.278600    0.030345    0.053964
     11          1           0        1.541928    0.598706    1.511010
 ---------------------------------------------------------------------

 Normal termination of Gaussian 16 at Sat May 24 06:52:18 2025.
