 Gaussian 16, Revision C.01,
 Gaussian 16:  ES64L-G16RevC.01  3-Jul-2019

 ----------------------------------------------------------------------
 #P M062X/Def2TZVPP Symm(None) scf(xqc) pop(None) opt(NoFreeze,TS,CalcA
 ll,NoEigentest,MaxCycle=999)
 ----------------------------------------------------------------------

 ------------------------------
 Gaussian input prepared by ASE
 ------------------------------
 Symbolic Z-matrix:
 Charge =  0 Multiplicity = 1

 SCF Done:  E(RM062X) =  -764.528466814     A.U. after   15 cycles
 SCF Done:  E(RM062X) =  -764.569976407     A.U. after   12 cycles
 SCF Done:  E(RM062X) =  -764.602182169     A.U. after   13 cycles
 SCF Done:  E(RM062X) =  -764.626130845     A.U. after   13 cycles
 SCF Done:  E(RM062X) =  -764.642227493     A.U. after   13 cycles
 SCF Done:  E(RM062X) =  -764.652505956     A.U. after   13 cycles
 SCF Done:  E(RM062X) =  -764.658744233     A.U. after   13 cycles
 SCF Done:  E(RM062X) =  -764.662161400     A.U. after   13 cycles
 SCF Done:  E(RM062X) =  -764.663718722     A.U. after   13 cycles
 SCF Done:  E(RM062X) =  -764.664016890     A.U. after   13 cycles
 SCF Done:  E(RM062X) =  -764.664005635     A.U. after   11 cycles

 Isotropic polarizability for W=    0.000000       43.66 Bohr**3.
 End of Minotr F.D. properties file   721 does not exist.

 Optimization completed.
    -- Stationary point found.

                          Input orientation:
 ---------------------------------------------------------------------
 Center     Atomic      Atomic             Coordinates (Angstroms)
 Number     Number       Type             X           Y           Z
 ---------------------------------------------------------------------
      1          6           0       -0.289162    0.431849    0.911755
      2          8           0       -0.632929   -0.583405    0.405309
      3          6           0        1.040756    1.112839    0.509290
      4          6           0        1.303238    1.079366   -1.009449
      5          9           0        0.252530    1.584263   -1.646666
      6          9           0        1.524048   -0.151058   -1.426979
      7          9           0        2.366910    1.823121   -1.285754
      8          9           0        2.055091    0.504077    1.136877
      9          9           0        1.030475    2.409599    0.894372
     10          8           0       -0.964737    1.052653    1.873353
     11          1           0       -0.550301    1.890696    2.113159
 ---------------------------------------------------------------------

                      1                      2                      3
                      A                      A                      A
 Frequencies --     13.1504                71.7354               155.3913
 Red. masses --      9.0038                17.9848                16.1641
 Frc consts  --      0.0009                 0.0545                 0.2300
 IR Inten    --      3.4056                 0.4531                 2.8878

                      4                      5                      6
                      A                      A                      A
 Frequencies --    217.2101               258.7520               297.3803
 Red. masses --     16.9199                17.1253                15.2153
 Frc consts  --      0.4703                 0.6755                 0.7928
 IR Inten    --      4.3221                 4.3189                10.5320

                      7                      8                      9
                      A                      A                      A
 Frequencies --    352.6638               372.8570               403.3267
 Red. masses --     13.1484                 9.8906                16.3747
 Frc consts  --      0.9635                 0.8101                 1.5694
 IR Inten    --      3.7169                 6.7909                 2.6098

                     10                     11                     12
                      A                      A                      A
 Frequencies --    469.9226               534.7317               546.9182
 Red. masses --     13.0696                 1.1847                11.6406
 Frc consts  --      1.7005                 0.1996                 2.0515
 IR Inten    --     14.4433                91.3228                12.1352

                     13                     14                     15
                      A                      A                      A
 Frequencies --    596.6774               658.3883               715.9032
 Red. masses --     12.9662                15.9303                 8.7397
 Frc consts  --      2.7198                 4.0685                 2.6391
 IR Inten    --      2.6202                 6.3327                35.9382

                     16                     17                     18
                      A                      A                      A
 Frequencies --    785.6832               802.9348              1059.7314
 Red. masses --     12.6323                12.2209                13.2964
 Frc consts  --      4.5944                 4.6421                 8.7978
 IR Inten    --      8.8144                12.9047               207.3541

                     19                     20                     21
                      A                      A                      A
 Frequencies --   1181.0198              1231.1164              1263.4367
 Red. masses --      5.1581                13.0350                 1.7980
 Frc consts  --      4.2389                11.6401                 1.6910
 IR Inten    --     97.5766               201.3650               121.8957

                     22                     23                     24
                      A                      A                      A
 Frequencies --   1283.6492              1308.0046              1402.5393
 Red. masses --     10.1851                12.3678                 5.8059
 Frc consts  --      9.8880                12.4670                 6.7290
 IR Inten    --    150.3971               263.8994               347.7429

                     25                     26                     27
                      A                      A                      A
 Frequencies --   1407.0489              1940.7181              3836.1316
 Red. masses --      7.5387                11.4611                 1.0657
 Frc consts  --      8.7936                25.4333                 9.2399
 IR Inten    --     58.1783               284.9556               138.5694

 - Thermochemistry -
 -------------------
 Temperature   298.150 Kelvin.  Pressure   1.00000 Atm.
 Atom     1 has atomic number  6 and mass  12.00000

 Molecular mass:   163.98967 amu.
 Principal axes and moments of inertia in atomic units:
                           1         2         3
     Eigenvalues --   909.687521511.807921701.55338
           X           -0.60751   0.49313  -0.62270
           Y           -0.15358   0.69623   0.70120
           Z            0.77932   0.52162  -0.34724
 This molecule is an asymmetric top.
 Rotational symmetry number  1.
 Warning -- assumption of classical behavior for rotation
           may cause significant error
 Rotational temperatures (Kelvin)      0.09521     0.05729     0.05090
 Rotational constants (GHZ):           1.98391     1.19376     1.06064
 Zero-point vibrational energy     138569.6 (Joules/Mol)
                                   33.11892 (Kcal/Mol)
 Warning -- explicit consideration of  13 degrees of freedom as
           vibrations may cause significant error
 Vibrational temperatures:     18.92   103.21   223.57   312.52   372.29
          (Kelvin)            427.86   507.40   536.46   580.30   676.11
                              769.36   786.89   858.49   947.27  1030.03
                             1130.42  1155.24  1524.72  1699.22  1771.30
                             1817.80  1846.88  1881.93  2017.94  2024.43
                             2792.26  5519.34

 Zero-point correction=                           0.052778 (Hartree/Particle)
 Thermal correction to Energy=                    0.061694
 Thermal correction to Enthalpy=                  0.062638
 Thermal correction to Gibbs Free Energy=         0.016771
 Sum of electronic and zero-point Energies=           -764.611227
 Sum of electronic and thermal Energies=              -764.602312
 Sum of electronic and thermal Enthalpies=            -764.601368
 Sum of electronic and thermal Free Energies=         -764.647235

                     E (Thermal)             CV                S
                      KCal/Mol        Cal/Mol-Kelvin    Cal/Mol-Kelvin
 Total                   38.713             30.730             96.536
 Electronic               0.000              0.000              0.000
 Translational            0.889              2.981             41.192
 Rotational               0.889              2.981             29.238
 Vibrational             36.936             24.768             26.105
 Vibration     1          0.593              1.987              7.467
 Vibration     2          0.598              1.967              4.105
 Vibration     3          0.620              1.897              2.605
 Vibration     4          0.646              1.815              1.982
 Vibration     5          0.668              1.748              1.670
 Vibration     6          0.691              1.679              1.432
 Vibration     7          0.729              1.570              1.154
 Vibration     8          0.744              1.528              1.068
 Vibration     9          0.769              1.463              0.951
 Vibration    10          0.827              1.317              0.738
 Vibration    11          0.890              1.173              0.577
 Vibration    12          0.902              1.146              0.551
 Vibration    13          0.955              1.039              0.455

 Normal termination of Gaussian 16 at Sat May 24 03:56:05 2025.
