 Gaussian 16, Revision C.01,
 Gaussian 16:  ES64L-G16RevC.01  3-Jul-2019

 ----------------------------------------------------------------------
 #P M062X/Def2TZVPP Symm(None) scf(xqc) pop(None) geom(AllCheck,NoKeepC
 onstants) guess(Read) irc(RCFC,forward,MaxPoints=100,StepSize=2)
 ----------------------------------------------------------------------

 Structure from the checkpoint file:  "1642764945472630600001_r12_insertion_R_5_4_7_IRC_F.chk"
 ------------------------------
 Gaussian input prepared by ASE
 ------------------------------
 Charge =  0 Multiplicity = 1

 SCF Done:  E(RM062X) =  -764.552287211     A.U. after   10 cycles
 SCF Done:  E(RM062X) =  -764.552373204     A.U. after   11 cycles
 SCF Done:  E(RM062X) =  -764.552514080     A.U. after   11 cycles
 SCF Done:  E(RM062X) =  -764.552707801     A.U. after   11 cycles
 SCF Done:  E(RM062X) =  -764.552952491     A.U. after   11 cycles
 SCF Done:  E(RM062X) =  -764.553246342     A.U. after   11 cycles
 SCF Done:  E(RM062X) =  -764.553587614     A.U. after   11 cycles
 SCF Done:  E(RM062X) =  -764.553974606     A.U. after   11 cycles
 SCF Done:  E(RM062X) =  -764.554405627     A.U. after   11 cycles
 SCF Done:  E(RM062X) =  -764.554878975     A.U. after   11 cycles
 SCF Done:  E(RM062X) =  -764.615231363     A.U. after    9 cycles
 SCF Done:  E(RM062X) =  -764.615530470     A.U. after    9 cycles
 SCF Done:  E(RM062X) =  -764.615819973     A.U. after    9 cycles
 SCF Done:  E(RM062X) =  -764.616100225     A.U. after    9 cycles
 SCF Done:  E(RM062X) =  -764.616371575     A.U. after    9 cycles
 SCF Done:  E(RM062X) =  -764.616634366     A.U. after    9 cycles
 SCF Done:  E(RM062X) =  -764.616888944     A.U. after    9 cycles
 SCF Done:  E(RM062X) =  -764.617135656     A.U. after    9 cycles
 SCF Done:  E(RM062X) =  -764.617374850     A.U. after    9 cycles
 SCF Done:  E(RM062X) =  -764.617606872     A.U. after    9 cycles

                          Input orientation:
 ---------------------------------------------------------------------
 Center     Atomic      Atomic             Coordinates (Angstroms)
 Number     Number       Type             X           Y           Z
 ---------------------------------------------------------------------
      1          6           0        1.974681   -0.025030   -0.881182
      2          8           0        1.914322   -0.988732   -1.499379
      3          6           0       -0.717455   -0.672865   -0.420004
      4          6           0       -1.187889    0.045885    0.574863
      5          9           0       -1.767957    1.199789    0.391975
      6          9           0       -1.149602   -0.361471    1.813153
      7          9           0        0.416452    1.646073    1.613859
      8          9           0       -0.747605   -0.263690   -1.673191
      9          9           0       -0.194008   -1.867634   -0.254249
     10          8           0        2.051213    0.955937   -0.267688
     11          1           0        1.136670    1.629178    1.036216
 ---------------------------------------------------------------------

 Normal termination of Gaussian 16 at Sat May 24 07:25:27 2025.
