 Gaussian 16, Revision C.01,
 Gaussian 16:  ES64L-G16RevC.01  3-Jul-2019

 -----------------------------------------------------------------
 #P M062X/Def2TZVPP Symm(None) scf(xqc) pop(None) freq opt(CalcFC)
 -----------------------------------------------------------------

 ------------------------------
 Gaussian input prepared by ASE
 ------------------------------
 Symbolic Z-matrix:
 Charge =  0 Multiplicity = 1

 SCF Done:  E(RM062X) =  -764.665691207     A.U. after   13 cycles
 SCF Done:  E(RM062X) =  -764.667976464     A.U. after   12 cycles
 SCF Done:  E(RM062X) =  -764.668175027     A.U. after   14 cycles
 SCF Done:  E(RM062X) =  -764.668237835     A.U. after   12 cycles
 SCF Done:  E(RM062X) =  -764.668262045     A.U. after   13 cycles
 SCF Done:  E(RM062X) =  -764.668263732     A.U. after   11 cycles
 SCF Done:  E(RM062X) =  -764.668263927     A.U. after    9 cycles
 SCF Done:  E(RM062X) =  -764.668263946     A.U. after    7 cycles
 Optimization completed.
    -- Stationary point found.
 Normal termination of Gaussian 16 at Sat May 24 04:36:30 2025.

 ---------------------------------------------------------------------
 #P Geom=AllCheck Guess=TCheck SCRF=Check GenChk RM062X/def2TZVPP Freq
 ---------------------------------------------------------------------

 Structure from the checkpoint file:  "1642764945472630600001_r12_insertion_R_11_10_1_IRC_R_prod.chk"
 ------------------------------
 Gaussian input prepared by ASE
 ------------------------------
 Charge =  0 Multiplicity = 1

                          Input orientation:
 ---------------------------------------------------------------------
 Center     Atomic      Atomic             Coordinates (Angstroms)
 Number     Number       Type             X           Y           Z
 ---------------------------------------------------------------------
      1          6           0        1.417128   -0.090623   -0.648841
      2          8           0        2.133539   -1.038109   -0.651851
      3          6           0       -0.122051   -0.205222   -0.599305
      4          6           0       -0.698261    0.141128    0.790946
      5          9           0       -1.998757   -0.101867    0.812763
      6          9           0       -0.102654   -0.603554    1.715869
      7          9           0       -0.495703    1.419280    1.075735
      8          9           0       -0.680003    0.619777   -1.498052
      9          9           0       -0.469828   -1.460229   -0.883397
     10          8           0        1.790384    1.184650   -0.674281
     11          1           0        2.757075    1.218913   -0.689542
 ---------------------------------------------------------------------

 SCF Done:  E(RM062X) =  -764.668263946     A.U. after    1 cycles

 Isotropic polarizability for W=    0.000000       43.86 Bohr**3.
 End of Minotr F.D. properties file   721 does not exist.

                      1                      2                      3
                      A                      A                      A
 Frequencies --     17.3009                65.7750               144.2884
 Red. masses --     12.9337                16.4478                10.2572
 Frc consts  --      0.0023                 0.0419                 0.1258
 IR Inten    --      1.4711                 0.3933                 0.9835

                      4                      5                      6
                      A                      A                      A
 Frequencies --    215.9641               248.6904               288.0969
 Red. masses --     17.3842                12.1978                14.7657
 Frc consts  --      0.4777                 0.4445                 0.7221
 IR Inten    --      1.5399                 1.1796                 1.4420

                      7                      8                      9
                      A                      A                      A
 Frequencies --    359.9157               380.1008               384.3171
 Red. masses --     16.5200                15.5734                13.6295
 Frc consts  --      1.2608                 1.3257                 1.1861
 IR Inten    --      0.3816                 0.8211                 0.6277

                     10                     11                     12
                      A                      A                      A
 Frequencies --    504.7751               548.6316               553.5158
 Red. masses --      8.1471                 5.3906                 2.9553
 Frc consts  --      1.2231                 0.9560                 0.5335
 IR Inten    --      5.9413                17.0860                17.2985

                     13                     14                     15
                      A                      A                      A
 Frequencies --    617.0931               637.4009               692.8124
 Red. masses --      7.3561                 2.9996                 4.5275
 Frc consts  --      1.6504                 0.7180                 1.2804
 IR Inten    --     15.0659                78.6621               102.4300

                     16                     17                     18
                      A                      A                      A
 Frequencies --    789.5142               797.9816              1062.4926
 Red. masses --     12.1794                 8.6737                11.7555
 Frc consts  --      4.4730                 3.2542                 7.8188
 IR Inten    --      2.5676                21.2836               124.2844

                     19                     20                     21
                      A                      A                      A
 Frequencies --   1188.3982              1229.8359              1277.4178
 Red. masses --      3.1046                 4.2271                10.0753
 Frc consts  --      2.5833                 3.7670                 9.6867
 IR Inten    --    246.5141               185.6710                41.4426

                     22                     23                     24
                      A                      A                      A
 Frequencies --   1290.5273              1297.1919              1382.9897
 Red. masses --     13.3089                 7.6231                 7.8689
 Frc consts  --     13.0595                 7.5577                 8.8675
 IR Inten    --    359.2567               149.6179               127.0282

                     25                     26                     27
                      A                      A                      A
 Frequencies --   1436.0971              1920.5896              3808.6219
 Red. masses --      5.1093                11.7339                 1.0646
 Frc consts  --      6.2084                25.5013                 9.0988
 IR Inten    --     54.6119               330.9137               129.5772

 - Thermochemistry -
 -------------------
 Temperature   298.150 Kelvin.  Pressure   1.00000 Atm.
 Atom     1 has atomic number  6 and mass  12.00000

 Molecular mass:   163.98967 amu.
 Principal axes and moments of inertia in atomic units:
                           1         2         3
     Eigenvalues --   948.638821521.779181601.03746
           X            0.84517   0.39023   0.36526
           Y           -0.06715   0.75547  -0.65173
           Z           -0.53027   0.52629   0.66470
 This molecule is an asymmetric top.
 Rotational symmetry number  1.
 Warning -- assumption of classical behavior for rotation
           may cause significant error
 Rotational temperatures (Kelvin)      0.09130     0.05692     0.05410
 Rotational constants (GHZ):           1.90245     1.18594     1.12723
 Zero-point vibrational energy     138409.9 (Joules/Mol)
                                   33.08077 (Kcal/Mol)
 Warning -- explicit consideration of  13 degrees of freedom as
           vibrations may cause significant error
 Vibrational temperatures:     24.89    94.64   207.60   310.72   357.81
          (Kelvin)            414.51   517.84   546.88   552.95   726.26
                              789.36   796.39   887.86   917.08   996.80
                             1135.93  1148.12  1528.69  1709.84  1769.46
                             1837.92  1856.78  1866.37  1989.81  2066.22
                             2763.30  5479.76

 Zero-point correction=                           0.052718 (Hartree/Particle)
 Thermal correction to Energy=                    0.061653
 Thermal correction to Enthalpy=                  0.062597
 Thermal correction to Gibbs Free Energy=         0.016833
 Sum of electronic and zero-point Energies=           -764.615546
 Sum of electronic and thermal Energies=              -764.606611
 Sum of electronic and thermal Enthalpies=            -764.605667
 Sum of electronic and thermal Free Energies=         -764.651431

                     E (Thermal)             CV                S
                      KCal/Mol        Cal/Mol-Kelvin    Cal/Mol-Kelvin
 Total                   38.688             30.700             96.320
 Electronic               0.000              0.000              0.000
 Translational            0.889              2.981             41.192
 Rotational               0.889              2.981             29.226
 Vibrational             36.910             24.739             25.901
 Vibration     1          0.593              1.986              6.922
 Vibration     2          0.597              1.971              4.276
 Vibration     3          0.616              1.909              2.746
 Vibration     4          0.645              1.817              1.993
 Vibration     5          0.662              1.765              1.740
 Vibration     6          0.685              1.696              1.485
 Vibration     7          0.734              1.555              1.122
 Vibration     8          0.750              1.513              1.039
 Vibration     9          0.753              1.504              1.022
 Vibration    10          0.860              1.239              0.646
 Vibration    11          0.904              1.143              0.547
 Vibration    12          0.909              1.132              0.537
 Vibration    13          0.977              0.996              0.421

 Optimization completed.
    -- Stationary point found.
 Normal termination of Gaussian 16 at Sat May 24 04:40:01 2025.
