 Gaussian 16, Revision C.01,
 Gaussian 16:  ES64L-G16RevC.01  3-Jul-2019

 -----------------------------------------------------------------
 #P M062X/Def2TZVPP Symm(None) scf(xqc) pop(None) freq opt(CalcFC)
 -----------------------------------------------------------------

 ------------------------------
 Gaussian input prepared by ASE
 ------------------------------
 Symbolic Z-matrix:
 Charge =  0 Multiplicity = 1

 SCF Done:  E(RM062X) =  -764.602045283     A.U. after   14 cycles
 SCF Done:  E(RM062X) =  -764.635174444     A.U. after   13 cycles
 SCF Done:  E(RM062X) =  -764.659287935     A.U. after   14 cycles
 SCF Done:  E(RM062X) =  -764.660658178     A.U. after   13 cycles
 SCF Done:  E(RM062X) =  -764.663386535     A.U. after   11 cycles
 SCF Done:  E(RM062X) =  -764.664602180     A.U. after   13 cycles
 SCF Done:  E(RM062X) =  -764.636611957     A.U. after   14 cycles
 SCF Done:  E(RM062X) =  -764.665920629     A.U. after   13 cycles
 SCF Done:  E(RM062X) =  -764.666994767     A.U. after   12 cycles
 SCF Done:  E(RM062X) =  -764.656802988     A.U. after   15 cycles
 SCF Done:  E(RM062X) =  -764.668117240     A.U. after   12 cycles
 SCF Done:  E(RM062X) =  -764.668155582     A.U. after   12 cycles
 SCF Done:  E(RM062X) =  -764.668212581     A.U. after   13 cycles
 SCF Done:  E(RM062X) =  -764.668245064     A.U. after   12 cycles
 SCF Done:  E(RM062X) =  -764.668258109     A.U. after   12 cycles
 SCF Done:  E(RM062X) =  -764.668260936     A.U. after   11 cycles
 SCF Done:  E(RM062X) =  -764.668261371     A.U. after    8 cycles
 SCF Done:  E(RM062X) =  -764.668261485     A.U. after    7 cycles
 SCF Done:  E(RM062X) =  -764.668261489     A.U. after    6 cycles
 Optimization completed.
    -- Stationary point found.
 Normal termination of Gaussian 16 at Sat May 24 03:53:55 2025.

 ---------------------------------------------------------------------
 #P Geom=AllCheck Guess=TCheck SCRF=Check GenChk RM062X/def2TZVPP Freq
 ---------------------------------------------------------------------

 Structure from the checkpoint file:  "1642764945472630600001_r12_insertion_R_1_3_4_IRC_F_prod.chk"
 ------------------------------
 Gaussian input prepared by ASE
 ------------------------------
 Charge =  0 Multiplicity = 1

                          Input orientation:
 ---------------------------------------------------------------------
 Center     Atomic      Atomic             Coordinates (Angstroms)
 Number     Number       Type             X           Y           Z
 ---------------------------------------------------------------------
      1          6           0        1.344734   -0.119304   -0.570695
      2          8           0        1.977105   -1.123795   -0.617260
      3          6           0       -0.199404   -0.101702   -0.569689
      4          6           0       -0.788037    0.197271    0.826330
      5          9           0       -2.104944    0.072172    0.796072
      6          9           0       -0.291273   -0.660730    1.710455
      7          9           0       -0.482610    1.428942    1.208011
      8          9           0       -0.655577    0.829080   -1.421193
      9          9           0       -0.644016   -1.298829   -0.951766
     10          8           0        1.826365    1.117421   -0.501815
     11          1           0        2.792439    1.067967   -0.489763
 ---------------------------------------------------------------------

 SCF Done:  E(RM062X) =  -764.668261489     A.U. after    1 cycles

 Isotropic polarizability for W=    0.000000       43.86 Bohr**3.
 End of Minotr F.D. properties file   721 does not exist.

                      1                      2                      3
                      A                      A                      A
 Frequencies --     17.4733                65.1521               144.4170
 Red. masses --     12.9854                16.3459                10.2648
 Frc consts  --      0.0023                 0.0409                 0.1261
 IR Inten    --      1.4292                 0.4408                 0.9751

                      4                      5                      6
                      A                      A                      A
 Frequencies --    215.7494               248.5427               288.1733
 Red. masses --     17.3828                12.1875                14.7937
 Frc consts  --      0.4767                 0.4436                 0.7238
 IR Inten    --      1.5387                 1.1631                 1.4684

                      7                      8                      9
                      A                      A                      A
 Frequencies --    359.8357               380.1823               384.0777
 Red. masses --     16.4991                15.6860                13.5592
 Frc consts  --      1.2587                 1.3358                 1.1785
 IR Inten    --      0.3937                 0.7875                 0.6622

                     10                     11                     12
                      A                      A                      A
 Frequencies --    505.1546               548.4433               553.8823
 Red. masses --      8.2913                 6.0096                 2.8327
 Frc consts  --      1.2466                 1.0650                 0.5120
 IR Inten    --      6.0984                16.0723                17.2967

                     13                     14                     15
                      A                      A                      A
 Frequencies --    617.1745               637.6257               692.5895
 Red. masses --      7.6338                 2.9052                 4.5041
 Frc consts  --      1.7132                 0.6959                 1.2730
 IR Inten    --     13.8669                80.4900               102.9410

                     16                     17                     18
                      A                      A                      A
 Frequencies --    789.4315               797.9581              1062.0485
 Red. masses --     12.2020                 8.6197                11.7513
 Frc consts  --      4.4803                 3.2337                 7.8095
 IR Inten    --      2.4259                21.5620               124.1429

                     19                     20                     21
                      A                      A                      A
 Frequencies --   1187.4472              1229.6882              1277.3556
 Red. masses --      3.0412                 4.3028                10.1740
 Frc consts  --      2.5265                 3.8335                 9.7806
 IR Inten    --    245.3685               185.9911                39.6799

                     22                     23                     24
                      A                      A                      A
 Frequencies --   1290.0759              1296.9640              1382.3867
 Red. masses --     13.3137                 7.7097                 7.9052
 Frc consts  --     13.0551                 7.6409                 8.9006
 IR Inten    --    360.6583               150.4417               127.3957

                     25                     26                     27
                      A                      A                      A
 Frequencies --   1436.0706              1920.2299              3808.3215
 Red. masses --      5.1209                11.7421                 1.0646
 Frc consts  --      6.2222                25.5096                 9.0974
 IR Inten    --     54.6974               330.5219               129.6718

 - Thermochemistry -
 -------------------
 Temperature   298.150 Kelvin.  Pressure   1.00000 Atm.
 Atom     1 has atomic number  6 and mass  12.00000

 Molecular mass:   163.98967 amu.
 Principal axes and moments of inertia in atomic units:
                           1         2         3
     Eigenvalues --   948.740641522.382621600.31657
           X            0.85299   0.43568  -0.28739
           Y           -0.10371   0.68114   0.72478
           Z           -0.51152   0.58842  -0.62618
 This molecule is an asymmetric top.
 Rotational symmetry number  1.
 Warning -- assumption of classical behavior for rotation
           may cause significant error
 Rotational temperatures (Kelvin)      0.09129     0.05689     0.05412
 Rotational constants (GHZ):           1.90225     1.18547     1.12774
 Zero-point vibrational energy     138386.7 (Joules/Mol)
                                   33.07522 (Kcal/Mol)
 Warning -- explicit consideration of  13 degrees of freedom as
           vibrations may cause significant error
 Vibrational temperatures:     25.14    93.74   207.78   310.42   357.60
          (Kelvin)            414.62   517.72   547.00   552.60   726.80
                              789.09   796.91   887.98   917.40   996.48
                             1135.82  1148.08  1528.05  1708.47  1769.25
                             1837.83  1856.13  1866.04  1988.95  2066.19
                             2762.78  5479.33

 Zero-point correction=                           0.052709 (Hartree/Particle)
 Thermal correction to Energy=                    0.061645
 Thermal correction to Enthalpy=                  0.062589
 Thermal correction to Gibbs Free Energy=         0.016825
 Sum of electronic and zero-point Energies=           -764.615553
 Sum of electronic and thermal Energies=              -764.606616
 Sum of electronic and thermal Enthalpies=            -764.605672
 Sum of electronic and thermal Free Energies=         -764.651437

                     E (Thermal)             CV                S
                      KCal/Mol        Cal/Mol-Kelvin    Cal/Mol-Kelvin
 Total                   38.683             30.702             96.319
 Electronic               0.000              0.000              0.000
 Translational            0.889              2.981             41.192
 Rotational               0.889              2.981             29.226
 Vibrational             36.906             24.740             25.901
 Vibration     1          0.593              1.986              6.902
 Vibration     2          0.597              1.971              4.295
 Vibration     3          0.616              1.909              2.745
 Vibration     4          0.645              1.817              1.994
 Vibration     5          0.662              1.765              1.741
 Vibration     6          0.685              1.696              1.485
 Vibration     7          0.734              1.555              1.123
 Vibration     8          0.750              1.512              1.038
 Vibration     9          0.753              1.504              1.023
 Vibration    10          0.860              1.239              0.645
 Vibration    11          0.904              1.143              0.547
 Vibration    12          0.909              1.131              0.536
 Vibration    13          0.977              0.996              0.421

 Optimization completed.
    -- Stationary point found.
 Normal termination of Gaussian 16 at Sat May 24 03:57:24 2025.
