 Gaussian 16, Revision C.01,
 Gaussian 16:  ES64L-G16RevC.01  3-Jul-2019

 ----------------------------------------------------------------------
 #P mp2/6-31G Symm(None) scf(xqc) pop(None) guess(Mix,Always) opt(NoFre
 eze,TS,CalcAll,NoEigentest,MaxCycle=999)
 ----------------------------------------------------------------------

 ------------------------------
 Gaussian input prepared by ASE
 ------------------------------
 Symbolic Z-matrix:
 Charge =  0 Multiplicity = 1

 SCF Done:  E(RHF) =  -760.521760056     A.U. after   23 cycles
 E2 =    -0.1142718488D+01 EUMP2 =    -0.76166447854414D+03
 E2 =    -0.1142718488D+01 EUMP2 =    -0.76166447854414D+03
 SCF Done:  E(RHF) =  -760.390462133     A.U. after   33 cycles
 SCF Done:  E(RHF) =  -760.528156341     a.u. after   11 cycles
 E2 =    -0.1170956062D+01 EUMP2 =    -0.76169911240308D+03
 E2 =    -0.1170956062D+01 EUMP2 =    -0.76169911240308D+03
 SCF Done:  E(RHF) =  -760.446742903     A.U. after   33 cycles
 SCF Done:  E(RHF) =  -760.529039246     a.u. after    8 cycles
 E2 =    -0.1194808323D+01 EUMP2 =    -0.76172384756860D+03
 E2 =    -0.1194808323D+01 EUMP2 =    -0.76172384756860D+03
 SCF Done:  E(RHF) =  -760.436054459     A.U. after   33 cycles
 SCF Done:  E(RHF) =  -760.529222265     a.u. after   12 cycles
 E2 =    -0.1207379616D+01 EUMP2 =    -0.76173660188110D+03
 E2 =    -0.1207379616D+01 EUMP2 =    -0.76173660188110D+03
 SCF Done:  E(RHF) =  -760.446289352     A.U. after   33 cycles
 SCF Done:  E(RHF) =  -760.530766728     a.u. after   12 cycles
 E2 =    -0.1212474616D+01 EUMP2 =    -0.76174324134371D+03
 E2 =    -0.1212474616D+01 EUMP2 =    -0.76174324134371D+03
 SCF Done:  E(RHF) =  -760.449728000     A.U. after   33 cycles
 E2 =    -0.1214810319D+01 EUMP2 =    -0.76174688021204D+03
 E2 =    -0.1214810319D+01 EUMP2 =    -0.76174688021204D+03
 E2 =    -0.1215402031D+01 EUMP2 =    -0.76174814977902D+03
 E2 =    -0.1215402031D+01 EUMP2 =    -0.76174814977902D+03
 SCF Done:  E(RHF) =  -760.453817125     A.U. after   33 cycles
 SCF Done:  E(RHF) =  -760.532691801     a.u. after   26 cycles
 E2 =    -0.1216373487D+01 EUMP2 =    -0.76174906528811D+03
 E2 =    -0.1216373487D+01 EUMP2 =    -0.76174906528811D+03
 SCF Done:  E(RHF) =  -760.456176294     A.U. after   33 cycles
 SCF Done:  E(RHF) =  -760.533341107     a.u. after   14 cycles
 E2 =    -0.1216412094D+01 EUMP2 =    -0.76174975320154D+03
 E2 =    -0.1216412094D+01 EUMP2 =    -0.76174975320154D+03
 SCF Done:  E(RHF) =  -760.455176758     A.U. after   33 cycles
 SCF Done:  E(RHF) =  -760.533814081     a.u. after   21 cycles
 E2 =    -0.1216198845D+01 EUMP2 =    -0.76175001292613D+03
 E2 =    -0.1216198845D+01 EUMP2 =    -0.76175001292613D+03
 SCF Done:  E(RHF) =  -760.451631651     A.U. after   33 cycles
 SCF Done:  E(RHF) =  -760.534084488     a.u. after   25 cycles
 E2 =    -0.1215969750D+01 EUMP2 =    -0.76175005423748D+03
 E2 =    -0.1215969750D+01 EUMP2 =    -0.76175005423748D+03
 SCF Done:  E(RHF) =  -760.456112545     A.U. after   33 cycles
 SCF Done:  E(RHF) =  -760.534171565     a.u. after   13 cycles
 E2 =    -0.1215883464D+01 EUMP2 =    -0.76175005502953D+03
 E2 =    -0.1215883464D+01 EUMP2 =    -0.76175005502953D+03
 Optimization completed.
    -- Stationary point found.

                          Input orientation:
 ---------------------------------------------------------------------
 Center     Atomic      Atomic             Coordinates (Angstroms)
 Number     Number       Type             X           Y           Z
 ---------------------------------------------------------------------
      1          6           0        1.730899    0.113914   -0.239177
      2          8           0        2.639855   -0.679418    0.079833
      3          6           0        0.291921   -0.226299   -0.187706
      4          6           0       -0.288840    0.482988    2.243421
      5          9           0       -1.099015    1.383466    1.557328
      6          9           0       -0.678457   -0.851927    2.309643
      7          9           0        1.073496    0.777095    2.367956
      8          9           0       -0.628240    0.524592   -0.869126
      9          9           0       -0.048026   -1.551360   -0.121219
     10          8           0        1.896688    1.447803   -0.570005
     11          1           0        2.846505    1.702789   -0.509822
 ---------------------------------------------------------------------

 ******    1 imaginary frequencies (negative Signs) ******

                      1                      2                      3
                      A                      A                      A
 Frequencies --  -1215.8034                28.0455                63.7679
 Red. masses --     12.4755                15.8227                12.4948
 Frc consts  --     10.8652                 0.0073                 0.0299
 IR Inten    --    887.6211                 0.1906                 0.5779

                      4                      5                      6
                      A                      A                      A
 Frequencies --     82.8258               149.1624               166.8051
 Red. masses --     10.1424                18.3339                18.1691
 Frc consts  --      0.0410                 0.2403                 0.2979
 IR Inten    --      1.3991                 0.3141                 0.5912

                      7                      8                      9
                      A                      A                      A
 Frequencies --    174.2523               185.4469               239.8708
 Red. masses --     18.2713                18.2815                11.9798
 Frc consts  --      0.3269                 0.3704                 0.4061
 IR Inten    --      0.4485                 0.0542                 1.1708

                     10                     11                     12
                      A                      A                      A
 Frequencies --    349.9690               414.5061               431.1829
 Red. masses --      8.7190                 9.3858                17.1826
 Frc consts  --      0.6292                 0.9501                 1.8822
 IR Inten    --      2.9940                 5.0808                 7.5043

                     13                     14                     15
                      A                      A                      A
 Frequencies --    437.0646               501.5430               563.1754
 Red. masses --     13.0046                11.3457                 1.7853
 Frc consts  --      1.4636                 1.6815                 0.3336
 IR Inten    --     13.0642                10.3820               145.9562

                     16                     17                     18
                      A                      A                      A
 Frequencies --    578.3098               691.6351               745.0495
 Red. masses --      2.6604                 9.8652                 7.4005
 Frc consts  --      0.5242                 2.7804                 2.4204
 IR Inten    --     83.8461                23.7822                43.1481

                     19                     20                     21
                      A                      A                      A
 Frequencies --    771.9338              1065.2178              1235.5204
 Red. masses --     16.8318                 4.0067                 7.8051
 Frc consts  --      5.9094                 2.6786                 7.0198
 IR Inten    --      2.8187               310.1789               107.5787

                     22                     23                     24
                      A                      A                      A
 Frequencies --   1247.3747              1270.2119              1305.2952
 Red. masses --     13.0499                 3.1571                 6.5822
 Frc consts  --     11.9633                 3.0012                 6.6076
 IR Inten    --     80.4265               258.6773               153.5906

                     25                     26                     27
                      A                      A                      A
 Frequencies --   1449.3989              1673.4936              3602.4114
 Red. masses --      4.7336                10.1076                 1.0644
 Frc consts  --      5.8590                16.6781                 8.1387
 IR Inten    --     44.8186               111.0444                98.6126

 - Thermochemistry -
 -------------------
 Temperature   298.150 Kelvin.  Pressure   1.00000 Atm.
 Atom     1 has atomic number  6 and mass  12.00000

 Molecular mass:   163.98967 amu.
 Principal axes and moments of inertia in atomic units:
                           1         2         3
     Eigenvalues --  1168.806601722.180961826.89904
           X           -0.67810   0.65702  -0.32942
           Y            0.05191   0.48990   0.87023
           Z            0.73314   0.57300  -0.36631
 This molecule is an asymmetric top.
 Rotational symmetry number  1.
 Warning -- assumption of classical behavior for rotation
           may cause significant error
 Rotational temperatures (Kelvin)      0.07410     0.05029     0.04741
 Rotational constants (GHZ):           1.54409     1.04794     0.98787
    1 imaginary frequencies ignored.
 Zero-point vibrational energy     116178.2 (Joules/Mol)
                                   27.76724 (Kcal/Mol)
 Warning -- explicit consideration of  15 degrees of freedom as
           vibrations may cause significant error
 Vibrational temperatures:     40.35    91.75   119.17   214.61   240.00
          (Kelvin)            250.71   266.82   345.12   503.53   596.38
                              620.38   628.84   721.61   810.28   832.06
                              995.11  1071.96  1110.64  1532.61  1777.64
                             1794.69  1827.55  1878.03  2085.36  2407.78
                             5183.07

 Zero-point correction=                           0.044250 (Hartree/Particle)
 Thermal correction to Energy=                    0.054661
 Thermal correction to Enthalpy=                  0.055606
 Thermal correction to Gibbs Free Energy=         0.006632
 Sum of electronic and zero-point Energies=           -761.705805
 Sum of electronic and thermal Energies=              -761.695394
 Sum of electronic and thermal Enthalpies=            -761.694449
 Sum of electronic and thermal Free Energies=         -761.743423

                     E (Thermal)             CV                S
                      KCal/Mol        Cal/Mol-Kelvin    Cal/Mol-Kelvin
 Total                   34.301             33.817            103.075
 Electronic               0.000              0.000              0.000
 Translational            0.889              2.981             41.192
 Rotational               0.889              2.981             29.687
 Vibrational             32.523             27.856             32.195
 Vibration     1          0.593              1.984              5.963
 Vibration     2          0.597              1.972              4.337
 Vibration     3          0.600              1.961              3.823
 Vibration     4          0.618              1.904              2.683
 Vibration     5          0.624              1.883              2.471
 Vibration     6          0.627              1.874              2.389
 Vibration     7          0.632              1.860              2.273
 Vibration     8          0.657              1.779              1.804
 Vibration     9          0.727              1.575              1.166
 Vibration    10          0.778              1.439              0.911
 Vibration    11          0.792              1.402              0.855
 Vibration    12          0.797              1.389              0.836
 Vibration    13          0.857              1.247              0.654
 Vibration    14          0.919              1.111              0.518
 Vibration    15          0.935              1.078              0.489

 Normal termination of Gaussian 16 at Sat May 24 02:33:06 2025.
