 Gaussian 16, Revision C.01,
 Gaussian 16:  ES64L-G16RevC.01  3-Jul-2019

 -----------------------------------------------------------------
 #P M062X/Def2TZVPP Symm(None) scf(xqc) pop(None) freq opt(CalcFC)
 -----------------------------------------------------------------

 ------------------------------
 Gaussian input prepared by ASE
 ------------------------------
 Symbolic Z-matrix:
 Charge =  0 Multiplicity = 1

 SCF Done:  E(RM062X) =  -764.640617815     A.U. after   13 cycles
 SCF Done:  E(RM062X) =  -764.659664650     A.U. after   11 cycles
 SCF Done:  E(RM062X) =  -764.670115093     A.U. after   11 cycles
 SCF Done:  E(RM062X) =  -764.682164742     A.U. after   12 cycles
 SCF Done:  E(RM062X) =  -764.684453204     A.U. after   11 cycles
 SCF Done:  E(RM062X) =  -764.686575505     A.U. after   11 cycles
 SCF Done:  E(RM062X) =  -764.689238368     A.U. after   12 cycles
 SCF Done:  E(RM062X) =  -764.690939991     A.U. after   12 cycles
 SCF Done:  E(RM062X) =  -764.671272602     A.U. after   14 cycles
 SCF Done:  E(RM062X) =  -764.691363073     A.U. after   11 cycles
 SCF Done:  E(RM062X) =  -764.692763424     A.U. after   11 cycles
 SCF Done:  E(RM062X) =  -764.692759596     A.U. after   10 cycles
 SCF Done:  E(RM062X) =  -764.692782535     A.U. after   10 cycles
 SCF Done:  E(RM062X) =  -764.692783860     A.U. after    9 cycles
 SCF Done:  E(RM062X) =  -764.692784184     A.U. after    8 cycles
 SCF Done:  E(RM062X) =  -764.692783703     A.U. after    7 cycles
 SCF Done:  E(RM062X) =  -764.692785034     A.U. after    9 cycles
 SCF Done:  E(RM062X) =  -764.692784459     A.U. after    9 cycles
 SCF Done:  E(RM062X) =  -764.692785371     A.U. after    8 cycles
 Optimization completed.
    -- Stationary point found.
 Normal termination of Gaussian 16 at Sat May 24 07:08:48 2025.

 ---------------------------------------------------------------------
 #P Geom=AllCheck Guess=TCheck SCRF=Check GenChk RM062X/def2TZVPP Freq
 ---------------------------------------------------------------------

 Structure from the checkpoint file:  "1642764945472630600001_r13_insertion_CO2_3_11_IRC_F_prod.chk"
 ------------------------------
 Gaussian input prepared by ASE
 ------------------------------
 Charge =  0 Multiplicity = 1

                          Input orientation:
 ---------------------------------------------------------------------
 Center     Atomic      Atomic             Coordinates (Angstroms)
 Number     Number       Type             X           Y           Z
 ---------------------------------------------------------------------
      1          6           0        2.539678   -0.791738   -0.642854
      2          8           0        2.560350   -1.942595   -0.687374
      3          6           0       -0.589458    0.670557   -0.562894
      4          6           0       -0.853070    0.105531    0.835273
      5          9           0       -1.835305   -0.780984    0.819010
      6          9           0        0.250073   -0.488339    1.290971
      7          9           0       -1.174941    1.090952    1.665670
      8          9           0       -1.725800    1.204386   -1.031336
      9          9           0       -0.226520   -0.348984   -1.364368
     10          8           0        2.525057    0.364541   -0.595280
     11          1           0        0.201397    1.420116   -0.540490
 ---------------------------------------------------------------------

 SCF Done:  E(RM062X) =  -764.692785371     A.U. after    1 cycles

 Isotropic polarizability for W=    0.000000       42.57 Bohr**3.
 End of Minotr F.D. properties file   721 does not exist.

                      1                      2                      3
                      A                      A                      A
 Frequencies --     29.9949                36.0164                52.8966
 Red. masses --     16.5468                16.4477                15.9493
 Frc consts  --      0.0088                 0.0126                 0.0263
 IR Inten    --      0.0022                 0.5520                 0.1469

                      4                      5                      6
                      A                      A                      A
 Frequencies --     68.2991               101.1634               106.4806
 Red. masses --     14.5997                15.4586                11.3300
 Frc consts  --      0.0401                 0.0932                 0.0757
 IR Inten    --      0.1230                 0.0880                 2.3370

                      7                      8                      9
                      A                      A                      A
 Frequencies --    217.9025               248.0173               368.7012
 Red. masses --     18.6076                14.1406                17.8187
 Frc consts  --      0.5206                 0.5125                 1.4272
 IR Inten    --      3.2369                 3.8594                 0.2063

                     10                     11                     12
                      A                      A                      A
 Frequencies --    424.6887               527.4569               588.9895
 Red. masses --     15.3458                14.9153                 9.8108
 Frc consts  --      1.6307                 2.4449                 2.0053
 IR Inten    --      1.2664                 8.5620                14.6966

                     13                     14                     15
                      A                      A                      A
 Frequencies --    595.7694               693.7003               695.3731
 Red. masses --     16.2586                12.8834                12.8784
 Frc consts  --      3.4001                 3.6528                 3.6690
 IR Inten    --      0.7073                34.2968                52.9936

                     16                     17                     18
                      A                      A                      A
 Frequencies --    738.9179               893.9637              1176.3286
 Red. masses --     11.8894                 6.0247                 6.8177
 Frc consts  --      3.8248                 2.8368                 5.5584
 IR Inten    --     38.3437                37.9314               121.2466

                     19                     20                     21
                      A                      A                      A
 Frequencies --   1203.1376              1241.0942              1275.1505
 Red. masses --      4.9992                 3.9305                11.3438
 Frc consts  --      4.2637                 3.5670                10.8676
 IR Inten    --    123.0563               199.4098               397.5301

                     22                     23                     24
                      A                      A                      A
 Frequencies --   1352.2898              1398.1893              1413.1250
 Red. masses --      3.4920                 1.2446                15.7235
 Frc consts  --      3.7624                 1.4336                18.4995
 IR Inten    --    182.7914                 3.8032                 0.5942

                     25                     26                     27
                      A                      A                      A
 Frequencies --   1483.1947              2448.6691              3146.2356
 Red. masses --      2.6946                12.8618                 1.0885
 Frc consts  --      3.4925                45.4371                 6.3482
 IR Inten    --      2.5603               736.5837                 7.5248

 - Thermochemistry -
 -------------------
 Temperature   298.150 Kelvin.  Pressure   1.00000 Atm.
 Atom     1 has atomic number  6 and mass  12.00000

 Molecular mass:   163.98967 amu.
 Principal axes and moments of inertia in atomic units:
                           1         2         3
     Eigenvalues --   900.638062189.717042442.91715
           X            0.90495   0.15262   0.39722
           Y           -0.32702  -0.34785   0.87867
           Z           -0.27228   0.92504   0.26487
 This molecule is an asymmetric top.
 Rotational symmetry number  1.
 Warning -- assumption of classical behavior for rotation
           may cause significant error
 Rotational temperatures (Kelvin)      0.09617     0.03955     0.03546
 Rotational constants (GHZ):           2.00385     0.82419     0.73876
 Zero-point vibrational energy     134733.9 (Joules/Mol)
                                   32.20217 (Kcal/Mol)
 Warning -- explicit consideration of  13 degrees of freedom as
           vibrations may cause significant error
 Vibrational temperatures:     43.16    51.82    76.11    98.27   145.55
          (Kelvin)            153.20   313.51   356.84   530.48   611.03
                              758.89   847.42   857.18   998.08  1000.49
                             1063.14  1286.21  1692.47  1731.05  1785.66
                             1834.66  1945.64  2011.68  2033.17  2133.99
                             3523.09  4526.73

 Zero-point correction=                           0.051317 (Hartree/Particle)
 Thermal correction to Energy=                    0.061629
 Thermal correction to Enthalpy=                  0.062573
 Thermal correction to Gibbs Free Energy=         0.011938
 Sum of electronic and zero-point Energies=           -764.641468
 Sum of electronic and thermal Energies=              -764.631157
 Sum of electronic and thermal Enthalpies=            -764.630213
 Sum of electronic and thermal Free Energies=         -764.680848

                     E (Thermal)             CV                S
                      KCal/Mol        Cal/Mol-Kelvin    Cal/Mol-Kelvin
 Total                   38.673             31.706            106.571
 Electronic               0.000              0.000              0.000
 Translational            0.889              2.981             41.192
 Rotational               0.889              2.981             29.956
 Vibrational             36.895             25.744             35.423
 Vibration     1          0.594              1.984              5.830
 Vibration     2          0.594              1.982              5.467
 Vibration     3          0.596              1.976              4.706
 Vibration     4          0.598              1.969              4.202
 Vibration     5          0.604              1.948              3.432
 Vibration     6          0.605              1.944              3.332
 Vibration     7          0.646              1.814              1.976
 Vibration     8          0.662              1.766              1.745
 Vibration     9          0.741              1.537              1.085
 Vibration    10          0.787              1.417              0.876
 Vibration    11          0.882              1.189              0.593
 Vibration    12          0.946              1.055              0.469
 Vibration    13          0.954              1.041              0.457

 Optimization completed.
    -- Stationary point found.
 Normal termination of Gaussian 16 at Sat May 24 07:11:44 2025.
