 Gaussian 16, Revision C.01,
 Gaussian 16:  ES64L-G16RevC.01  3-Jul-2019

 -----------------------------------------------------------------
 #P M062X/Def2TZVPP Symm(None) scf(xqc) pop(None) freq opt(CalcFC)
 -----------------------------------------------------------------

 ------------------------------
 Gaussian input prepared by ASE
 ------------------------------
 Symbolic Z-matrix:
 Charge =  0 Multiplicity = 1

 SCF Done:  E(RM062X) =  -764.667495067     A.U. after   13 cycles
 SCF Done:  E(RM062X) =  -764.668139620     A.U. after   12 cycles
 SCF Done:  E(RM062X) =  -764.668207885     A.U. after   12 cycles
 SCF Done:  E(RM062X) =  -764.668241805     A.U. after   12 cycles
 SCF Done:  E(RM062X) =  -764.668261135     A.U. after   12 cycles
 SCF Done:  E(RM062X) =  -764.668263540     A.U. after   11 cycles
 SCF Done:  E(RM062X) =  -764.668263753     A.U. after    9 cycles
 SCF Done:  E(RM062X) =  -764.668263764     A.U. after    7 cycles
 Optimization completed.
    -- Stationary point found.
 Normal termination of Gaussian 16 at Sat May 24 04:25:28 2025.

 ---------------------------------------------------------------------
 #P Geom=AllCheck Guess=TCheck SCRF=Check GenChk RM062X/def2TZVPP Freq
 ---------------------------------------------------------------------

 Structure from the checkpoint file:  "1642764945472630600001_r12_insertion_R_3_1_10_IRC_F_prod.chk"
 ------------------------------
 Gaussian input prepared by ASE
 ------------------------------
 Charge =  0 Multiplicity = 1

                          Input orientation:
 ---------------------------------------------------------------------
 Center     Atomic      Atomic             Coordinates (Angstroms)
 Number     Number       Type             X           Y           Z
 ---------------------------------------------------------------------
      1          6           0        1.413024   -0.247558   -0.532884
      2          8           0        2.021859   -1.267313   -0.512016
      3          6           0       -0.130075   -0.194041   -0.558301
      4          6           0       -0.732313    0.208370    0.805598
      5          9           0       -2.050942    0.107185    0.763296
      6          9           0       -0.265680   -0.599117    1.751730
      7          9           0       -0.407362    1.456272    1.110354
      8          9           0       -0.550402    0.689913   -1.475724
      9          9           0       -0.597822   -1.402675   -0.869745
     10          8           0        1.922984    0.979711   -0.526738
     11          1           0        2.887323    0.908867   -0.496464
 ---------------------------------------------------------------------

 SCF Done:  E(RM062X) =  -764.668263764     A.U. after    1 cycles

 Isotropic polarizability for W=    0.000000       43.86 Bohr**3.
 End of Minotr F.D. properties file   721 does not exist.

                      1                      2                      3
                      A                      A                      A
 Frequencies --     18.6401                65.5050               144.7711
 Red. masses --     12.9633                16.4224                10.1945
 Frc consts  --      0.0027                 0.0415                 0.1259
 IR Inten    --      1.4265                 0.4159                 0.9743

                      4                      5                      6
                      A                      A                      A
 Frequencies --    216.4395               248.3160               287.8221
 Red. masses --     17.3390                12.1777                14.6779
 Frc consts  --      0.4786                 0.4424                 0.7164
 IR Inten    --      1.5536                 1.1491                 1.4380

                      7                      8                      9
                      A                      A                      A
 Frequencies --    359.9237               380.1976               384.2408
 Red. masses --     16.4831                15.4854                13.6718
 Frc consts  --      1.2581                 1.3188                 1.1893
 IR Inten    --      0.3904                 0.8387                 0.6071

                     10                     11                     12
                      A                      A                      A
 Frequencies --    504.2384               547.5873               551.9655
 Red. masses --      7.6423                 3.5398                 3.9133
 Frc consts  --      1.1449                 0.6254                 0.7025
 IR Inten    --      6.0155                21.5728                15.5163

                     13                     14                     15
                      A                      A                      A
 Frequencies --    616.5342               635.9689               692.5349
 Red. masses --      7.0964                 3.2396                 4.5717
 Frc consts  --      1.5893                 0.7720                 1.2919
 IR Inten    --     17.2536                75.2213               101.2814

                     16                     17                     18
                      A                      A                      A
 Frequencies --    789.5043               797.9071              1062.2817
 Red. masses --     12.3024                 8.7074                11.7564
 Frc consts  --      4.5180                 3.2662                 7.8164
 IR Inten    --      2.5080                20.9734               124.2801

                     19                     20                     21
                      A                      A                      A
 Frequencies --   1187.4361              1229.7177              1277.3160
 Red. masses --      3.0565                 4.2866                10.2790
 Frc consts  --      2.5392                 3.8192                 9.8809
 IR Inten    --    245.4341               186.5588                40.7619

                     22                     23                     24
                      A                      A                      A
 Frequencies --   1289.8891              1297.0787              1383.0280
 Red. masses --     13.3134                 7.6166                 7.8374
 Frc consts  --     13.0510                 7.5500                 8.8325
 IR Inten    --    360.4582               148.7472               127.9973

                     25                     26                     27
                      A                      A                      A
 Frequencies --   1435.9749              1920.3613              3808.8009
 Red. masses --      5.1350                11.7396                 1.0646
 Frc consts  --      6.2386                25.5076                 9.0996
 IR Inten    --     53.9741               330.4479               129.7927

 - Thermochemistry -
 -------------------
 Temperature   298.150 Kelvin.  Pressure   1.00000 Atm.
 Atom     1 has atomic number  6 and mass  12.00000

 Molecular mass:   163.98967 amu.
 Principal axes and moments of inertia in atomic units:
                           1         2         3
     Eigenvalues --   948.581991521.535471601.31566
           X            0.85758   0.44425  -0.25923
           Y           -0.15731   0.70637   0.69014
           Z           -0.48971   0.55107  -0.67565
 This molecule is an asymmetric top.
 Rotational symmetry number  1.
 Warning -- assumption of classical behavior for rotation
           may cause significant error
 Rotational temperatures (Kelvin)      0.09131     0.05693     0.05409
 Rotational constants (GHZ):           1.90257     1.18613     1.12704
 Zero-point vibrational energy     138371.9 (Joules/Mol)
                                   33.07169 (Kcal/Mol)
 Warning -- explicit consideration of  13 degrees of freedom as
           vibrations may cause significant error
 Vibrational temperatures:     26.82    94.25   208.29   311.41   357.27
          (Kelvin)            414.11   517.85   547.02   552.84   725.49
                              787.86   794.16   887.06   915.02   996.40
                             1135.92  1148.01  1528.39  1708.46  1769.29
                             1837.77  1855.86  1866.21  1989.87  2066.05
                             2762.97  5480.01

 Zero-point correction=                           0.052703 (Hartree/Particle)
 Thermal correction to Energy=                    0.061639
 Thermal correction to Enthalpy=                  0.062583
 Thermal correction to Gibbs Free Energy=         0.016883
 Sum of electronic and zero-point Energies=           -764.615561
 Sum of electronic and thermal Energies=              -764.606625
 Sum of electronic and thermal Enthalpies=            -764.605681
 Sum of electronic and thermal Free Energies=         -764.651381

                     E (Thermal)             CV                S
                      KCal/Mol        Cal/Mol-Kelvin    Cal/Mol-Kelvin
 Total                   38.679             30.713             96.184
 Electronic               0.000              0.000              0.000
 Translational            0.889              2.981             41.192
 Rotational               0.889              2.981             29.226
 Vibrational             36.901             24.751             25.766
 Vibration     1          0.593              1.986              6.774
 Vibration     2          0.597              1.971              4.284
 Vibration     3          0.616              1.908              2.740
 Vibration     4          0.645              1.816              1.989
 Vibration     5          0.662              1.766              1.743
 Vibration     6          0.685              1.696              1.487
 Vibration     7          0.734              1.555              1.122
 Vibration     8          0.750              1.512              1.038
 Vibration     9          0.753              1.504              1.022
 Vibration    10          0.860              1.241              0.648
 Vibration    11          0.903              1.145              0.549
 Vibration    12          0.907              1.135              0.540
 Vibration    13          0.976              0.997              0.422

 Optimization completed.
    -- Stationary point found.
 Normal termination of Gaussian 16 at Sat May 24 04:29:00 2025.
