 Gaussian 16, Revision C.01,
 Gaussian 16:  ES64L-G16RevC.01  3-Jul-2019

 ----------------------------------------------------------------------
 #P M062X/Def2TZVPP Symm(None) scf(xqc) pop(None) geom(AllCheck,NoKeepC
 onstants) guess(Read) irc(RCFC,forward,MaxPoints=100,StepSize=2)
 ----------------------------------------------------------------------

 Structure from the checkpoint file:  "1642764945472630600001_r12_insertion_R_8_3_4_IRC_F.chk"
 ------------------------------
 Gaussian input prepared by ASE
 ------------------------------
 Charge =  0 Multiplicity = 1

 SCF Done:  E(RM062X) =  -764.469673786     A.U. after   11 cycles
 SCF Done:  E(RM062X) =  -764.469821500     A.U. after   11 cycles
 SCF Done:  E(RM062X) =  -764.470069815     A.U. after   11 cycles
 SCF Done:  E(RM062X) =  -764.470420095     A.U. after   11 cycles
 SCF Done:  E(RM062X) =  -764.470873277     A.U. after   11 cycles
 SCF Done:  E(RM062X) =  -764.471429867     A.U. after   11 cycles
 SCF Done:  E(RM062X) =  -764.472089951     A.U. after   11 cycles
 SCF Done:  E(RM062X) =  -764.472853212     A.U. after   11 cycles
 SCF Done:  E(RM062X) =  -764.473718944     A.U. after   11 cycles
 SCF Done:  E(RM062X) =  -764.474686076     A.U. after   11 cycles
 SCF Done:  E(RM062X) =  -764.629549177     A.U. after    9 cycles
 SCF Done:  E(RM062X) =  -764.630686566     A.U. after    9 cycles
 SCF Done:  E(RM062X) =  -764.631799224     A.U. after    9 cycles
 SCF Done:  E(RM062X) =  -764.632887243     A.U. after    9 cycles
 SCF Done:  E(RM062X) =  -764.633950714     A.U. after    9 cycles
 SCF Done:  E(RM062X) =  -764.634989726     A.U. after    9 cycles
 SCF Done:  E(RM062X) =  -764.636004370     A.U. after    9 cycles
 SCF Done:  E(RM062X) =  -764.636994733     A.U. after    9 cycles
 SCF Done:  E(RM062X) =  -764.637960906     A.U. after    9 cycles
 SCF Done:  E(RM062X) =  -764.638902982     A.U. after    9 cycles

                          Input orientation:
 ---------------------------------------------------------------------
 Center     Atomic      Atomic             Coordinates (Angstroms)
 Number     Number       Type             X           Y           Z
 ---------------------------------------------------------------------
      1          6           0        1.572248   -0.118554   -0.708986
      2          8           0        2.376705   -0.962168   -0.956789
      3          6           0        0.015958   -0.354145   -0.402156
      4          6           0       -0.841579    0.230075    0.877803
      5          9           0       -1.772625    1.126997    0.540210
      6          9           0       -1.517182   -0.759442    1.442093
      7          9           0       -0.049051    0.874661    1.724617
      8          9           0       -0.632140    0.322601   -1.358574
      9          9           0       -0.134151   -1.667722   -0.623010
     10          8           0        1.770585    1.182776   -0.844707
     11          1           0        2.675224    1.327525   -1.154739
 ---------------------------------------------------------------------

 Normal termination of Gaussian 16 at Sat May 24 04:12:09 2025.
