 Gaussian 16, Revision C.01,
 Gaussian 16:  ES64L-G16RevC.01  3-Jul-2019

 -----------------------------------------------------------------
 #P M062X/Def2TZVPP Symm(None) scf(xqc) pop(None) freq opt(CalcFC)
 -----------------------------------------------------------------

 ------------------------------
 Gaussian input prepared by ASE
 ------------------------------
 Symbolic Z-matrix:
 Charge =  0 Multiplicity = 1

 SCF Done:  E(RM062X) =  -764.667486812     A.U. after   13 cycles
 SCF Done:  E(RM062X) =  -764.668134355     A.U. after   12 cycles
 SCF Done:  E(RM062X) =  -764.668213565     A.U. after   12 cycles
 SCF Done:  E(RM062X) =  -764.668243270     A.U. after   12 cycles
 SCF Done:  E(RM062X) =  -764.668262789     A.U. after   12 cycles
 SCF Done:  E(RM062X) =  -764.668267162     A.U. after   12 cycles
 SCF Done:  E(RM062X) =  -764.668268006     A.U. after   11 cycles
 SCF Done:  E(RM062X) =  -764.668268010     A.U. after    7 cycles
 Optimization completed.
    -- Stationary point found.
 Normal termination of Gaussian 16 at Sat May 24 06:37:35 2025.

 ---------------------------------------------------------------------
 #P Geom=AllCheck Guess=TCheck SCRF=Check GenChk RM062X/def2TZVPP Freq
 ---------------------------------------------------------------------

 Structure from the checkpoint file:  "1642764945472630600001_r12_insertion_R_2_1_10_IRC_R_prod.chk"
 ------------------------------
 Gaussian input prepared by ASE
 ------------------------------
 Charge =  0 Multiplicity = 1

                          Input orientation:
 ---------------------------------------------------------------------
 Center     Atomic      Atomic             Coordinates (Angstroms)
 Number     Number       Type             X           Y           Z
 ---------------------------------------------------------------------
      1          6           0        1.390010   -0.271512   -0.579184
      2          8           0        2.006835   -1.285121   -0.523180
      3          6           0       -0.153095   -0.227399   -0.538914
      4          6           0       -0.697798    0.252207    0.824240
      5          9           0       -2.016267    0.142611    0.846259
      6          9           0       -0.184415   -0.495820    1.794684
      7          9           0       -0.368900    1.517449    1.040463
      8          9           0       -0.620733    0.597958   -1.487456
      9          9           0       -0.624604   -1.454979   -0.756777
     10          8           0        1.890545    0.956226   -0.670714
     11          1           0        2.855798    0.891958   -0.678348
 ---------------------------------------------------------------------

 SCF Done:  E(RM062X) =  -764.668268010     A.U. after    1 cycles

 Isotropic polarizability for W=    0.000000       43.87 Bohr**3.
 End of Minotr F.D. properties file   721 does not exist.

                      1                      2                      3
                      A                      A                      A
 Frequencies --     19.3427                66.0467               145.4702
 Red. masses --     12.9862                16.4395                10.2398
 Frc consts  --      0.0029                 0.0423                 0.1277
 IR Inten    --      1.4254                 0.4313                 0.9646

                      4                      5                      6
                      A                      A                      A
 Frequencies --    216.5241               249.1984               287.8639
 Red. masses --     17.3516                12.2078                14.7177
 Frc consts  --      0.4793                 0.4467                 0.7186
 IR Inten    --      1.5421                 1.1485                 1.4064

                      7                      8                      9
                      A                      A                      A
 Frequencies --    360.0350               380.2237               384.2946
 Red. masses --     16.5199                15.6244                13.6080
 Frc consts  --      1.2617                 1.3309                 1.1841
 IR Inten    --      0.3809                 0.8165                 0.6424

                     10                     11                     12
                      A                      A                      A
 Frequencies --    504.6304               548.7155               554.2028
 Red. masses --      8.1627                 6.5149                 2.7423
 Frc consts  --      1.2247                 1.1557                 0.4963
 IR Inten    --      6.0207                15.6792                17.8379

                     13                     14                     15
                      A                      A                      A
 Frequencies --    617.3078               637.5815               693.0345
 Red. masses --      7.5007                 2.9384                 4.4883
 Frc consts  --      1.6841                 0.7038                 1.2701
 IR Inten    --     14.0683                79.5061               103.3530

                     16                     17                     18
                      A                      A                      A
 Frequencies --    789.6784               797.8758              1062.5835
 Red. masses --     12.1426                 8.6581                11.7479
 Frc consts  --      4.4613                 3.2474                 7.8151
 IR Inten    --      2.5921                21.3262               123.8787

                     19                     20                     21
                      A                      A                      A
 Frequencies --   1187.6227              1229.6750              1277.0115
 Red. masses --      3.0650                 4.2561                10.3573
 Frc consts  --      2.5470                 3.7917                 9.9515
 IR Inten    --    245.5353               187.2932                40.3231

                     22                     23                     24
                      A                      A                      A
 Frequencies --   1290.3743              1297.0496              1382.1897
 Red. masses --     13.2777                 7.6191                 7.9484
 Frc consts  --     13.0258                 7.5520                 8.9467
 IR Inten    --    361.6369               145.9924               127.8824

                     25                     26                     27
                      A                      A                      A
 Frequencies --   1435.9801              1920.5168              3808.1452
 Red. masses --      5.0997                11.7408                 1.0646
 Frc consts  --      6.1957                25.5143                 9.0965
 IR Inten    --     55.3887               330.5375               129.7904

 - Thermochemistry -
 -------------------
 Temperature   298.150 Kelvin.  Pressure   1.00000 Atm.
 Atom     1 has atomic number  6 and mass  12.00000

 Molecular mass:   163.98967 amu.
 Principal axes and moments of inertia in atomic units:
                           1         2         3
     Eigenvalues --   948.578321521.948521601.24526
           X            0.83639   0.46228   0.29453
           Y           -0.18152   0.74061  -0.64696
           Z           -0.51721   0.48764   0.70335
 This molecule is an asymmetric top.
 Rotational symmetry number  1.
 Warning -- assumption of classical behavior for rotation
           may cause significant error
 Rotational temperatures (Kelvin)      0.09131     0.05691     0.05409
 Rotational constants (GHZ):           1.90257     1.18581     1.12709
 Zero-point vibrational energy     138426.9 (Joules/Mol)
                                   33.08483 (Kcal/Mol)
 Warning -- explicit consideration of  13 degrees of freedom as
           vibrations may cause significant error
 Vibrational temperatures:     27.83    95.03   209.30   311.53   358.54
          (Kelvin)            414.17   518.01   547.06   552.91   726.05
                              789.48   797.37   888.17   917.34   997.12
                             1136.17  1147.97  1528.82  1708.72  1769.23
                             1837.33  1856.56  1866.17  1988.66  2066.06
                             2763.20  5479.07

 Zero-point correction=                           0.052724 (Hartree/Particle)
 Thermal correction to Energy=                    0.061650
 Thermal correction to Enthalpy=                  0.062594
 Thermal correction to Gibbs Free Energy=         0.016951
 Sum of electronic and zero-point Energies=           -764.615544
 Sum of electronic and thermal Energies=              -764.606618
 Sum of electronic and thermal Enthalpies=            -764.605674
 Sum of electronic and thermal Free Energies=         -764.651317

                     E (Thermal)             CV                S
                      KCal/Mol        Cal/Mol-Kelvin    Cal/Mol-Kelvin
 Total                   38.686             30.695             96.065
 Electronic               0.000              0.000              0.000
 Translational            0.889              2.981             41.192
 Rotational               0.889              2.981             29.226
 Vibrational             36.909             24.734             25.646
 Vibration     1          0.593              1.986              6.701
 Vibration     2          0.597              1.970              4.268
 Vibration     3          0.617              1.908              2.731
 Vibration     4          0.645              1.816              1.988
 Vibration     5          0.662              1.764              1.736
 Vibration     6          0.685              1.696              1.486
 Vibration     7          0.735              1.555              1.122
 Vibration     8          0.750              1.512              1.038
 Vibration     9          0.753              1.504              1.022
 Vibration    10          0.860              1.240              0.647
 Vibration    11          0.904              1.142              0.547
 Vibration    12          0.910              1.130              0.536
 Vibration    13          0.977              0.995              0.421

 Optimization completed.
    -- Stationary point found.
 Normal termination of Gaussian 16 at Sat May 24 06:41:09 2025.
