 Gaussian 16, Revision C.01,
 Gaussian 16:  ES64L-G16RevC.01  3-Jul-2019

 ----------------------------------------------------------------------
 #P M062X/Def2TZVPP Symm(None) scf(xqc) pop(None) geom(AllCheck,NoKeepC
 onstants) guess(Read) irc(RCFC,reverse,MaxPoints=100,StepSize=2)
 ----------------------------------------------------------------------

 Structure from the checkpoint file:  "1642764945472630600001_r13_insertion_ROR_8_3_1_2_IRC_R.chk"
 ------------------------------
 Gaussian input prepared by ASE
 ------------------------------
 Charge =  0 Multiplicity = 1

 SCF Done:  E(RM062X) =  -764.454995466     A.U. after   15 cycles
 SCF Done:  E(RM062X) =  -764.455093301     A.U. after   17 cycles
 SCF Done:  E(RM062X) =  -764.455257859     A.U. after   17 cycles
 SCF Done:  E(RM062X) =  -764.455490245     A.U. after   17 cycles
 SCF Done:  E(RM062X) =  -764.455791457     A.U. after   17 cycles
 SCF Done:  E(RM062X) =  -764.456162311     A.U. after   17 cycles
 SCF Done:  E(RM062X) =  -764.456603364     A.U. after   17 cycles
 SCF Done:  E(RM062X) =  -764.457114820     A.U. after   17 cycles
 SCF Done:  E(RM062X) =  -764.457696446     A.U. after   17 cycles
 SCF Done:  E(RM062X) =  -764.458347499     A.U. after   17 cycles
 SCF Done:  E(RM062X) =  -764.577344769     A.U. after   10 cycles
 SCF Done:  E(RM062X) =  -764.579257796     A.U. after   11 cycles
 SCF Done:  E(RM062X) =  -764.581176994     A.U. after   11 cycles
 SCF Done:  E(RM062X) =  -764.583101388     A.U. after   11 cycles
 SCF Done:  E(RM062X) =  -764.585029932     A.U. after   11 cycles
 SCF Done:  E(RM062X) =  -764.586961494     A.U. after   11 cycles
 SCF Done:  E(RM062X) =  -764.588894837     A.U. after   11 cycles
 SCF Done:  E(RM062X) =  -764.590828608     A.U. after   10 cycles
 SCF Done:  E(RM062X) =  -764.592761335     A.U. after   10 cycles
 SCF Done:  E(RM062X) =  -764.594691442     A.U. after   10 cycles

                          Input orientation:
 ---------------------------------------------------------------------
 Center     Atomic      Atomic             Coordinates (Angstroms)
 Number     Number       Type             X           Y           Z
 ---------------------------------------------------------------------
      1          6           0        0.794095    1.245574   -0.595930
      2          8           0        1.167792    1.836298    0.359275
      3          6           0       -0.114324    0.061545   -0.458444
      4          6           0       -0.189458   -0.943812    0.711189
      5          9           0        0.556920   -2.040944    0.548157
      6          9           0        0.163716   -0.371489    1.831708
      7          9           0       -1.455405   -1.334683    0.732620
      8          9           0       -1.213227    1.203610    0.044190
      9          9           0       -0.182175   -0.690787   -1.557824
     10          8           0        0.911312    1.578182   -1.879635
     11          1           0        1.320793    2.453303   -1.924341
 ---------------------------------------------------------------------

 Normal termination of Gaussian 16 at Sat May 24 07:10:59 2025.
