 Gaussian 16, Revision C.01,
 Gaussian 16:  ES64L-G16RevC.01  3-Jul-2019

 ----------------------------------------------------------------------
 #P M062X/Def2TZVPP Symm(None) scf(xqc) pop(None) opt(CalcAll,Cartesian
 )
 ----------------------------------------------------------------------

 ------------------------------
 Gaussian input prepared by ASE
 ------------------------------
 Symbolic Z-matrix:
 Charge =  0 Multiplicity = 1

 SCF Done:  E(RM062X) =  -764.579381225     A.U. after   13 cycles
 SCF Done:  E(RM062X) =  -764.579412450     A.U. after   12 cycles
 SCF Done:  E(RM062X) =  -764.579434153     A.U. after   11 cycles
 SCF Done:  E(RM062X) =  -764.579397827     A.U. after   13 cycles
 SCF Done:  E(RM062X) =  -764.579427573     A.U. after   11 cycles
 SCF Done:  E(RM062X) =  -764.579434594     A.U. after    9 cycles
 SCF Done:  E(RM062X) =  -764.579439760     A.U. after   11 cycles
 SCF Done:  E(RM062X) =  -764.579440686     A.U. after   10 cycles
 SCF Done:  E(RM062X) =  -764.579441054     A.U. after    9 cycles
 SCF Done:  E(RM062X) =  -764.579441072     A.U. after    8 cycles

 Isotropic polarizability for W=    0.000000       46.65 Bohr**3.
 End of Minotr F.D. properties file   721 does not exist.

 Optimization completed.
    -- Stationary point found.

                          Input orientation:
 ---------------------------------------------------------------------
 Center     Atomic      Atomic             Coordinates (Angstroms)
 Number     Number       Type             X           Y           Z
 ---------------------------------------------------------------------
      1          6           0        1.101673    0.450061    0.111163
      2          8           0        1.127774   -0.516749   -0.582359
      3          6           0       -1.240618   -1.873953   -1.527463
      4          6           0       -0.010570    0.720693    1.147744
      5          9           0       -0.752246    1.750679    0.747131
      6          9           0       -0.784677   -0.339621    1.274205
      7          9           0        0.513107    1.015244    2.332859
      8          9           0       -1.646877   -0.642363   -1.604601
      9          9           0       -0.501676   -2.034314   -2.576061
     10          8           0        1.977259    1.445521    0.110005
     11          1           0        2.649625    1.263559   -0.561326
 ---------------------------------------------------------------------

                      1                      2                      3
                      A                      A                      A
 Frequencies --     16.0867                26.5526                35.2384
 Red. masses --     17.5693                14.7019                12.7769
 Frc consts  --      0.0027                 0.0061                 0.0093
 IR Inten    --      0.0732                 0.5840                 1.0458

                      4                      5                      6
                      A                      A                      A
 Frequencies --     58.1762                78.8555               103.6707
 Red. masses --     17.4045                17.0103                14.8479
 Frc consts  --      0.0347                 0.0623                 0.0940
 IR Inten    --      0.1800                 0.4854                 0.3739

                      7                      8                      9
                      A                      A                      A
 Frequencies --    148.2655               241.9284               248.3695
 Red. masses --     13.3117                10.6185                 9.8202
 Frc consts  --      0.1724                 0.3662                 0.3569
 IR Inten    --      0.3803                 0.8844                 0.4270

                     10                     11                     12
                      A                      A                      A
 Frequencies --    396.8275               433.0537               513.4425
 Red. masses --     12.1879                15.5108                 4.5019
 Frc consts  --      1.1308                 1.7138                 0.6992
 IR Inten    --      3.1461                 0.1156                 4.5425

                     13                     14                     15
                      A                      A                      A
 Frequencies --    594.6379               601.5814               683.7017
 Red. masses --      1.4436                13.6898                 4.9415
 Frc consts  --      0.3007                 2.9190                 1.3609
 IR Inten    --    100.8335                10.1966                73.0874

                     16                     17                     18
                      A                      A                      A
 Frequencies --    689.3861               808.5156               826.5191
 Red. masses --     17.1486                 9.9565                 8.5675
 Frc consts  --      4.8018                 3.8347                 3.4484
 IR Inten    --      7.2247                34.9153                 3.8374

                     19                     20                     21
                      A                      A                      A
 Frequencies --   1165.5214              1184.2611              1244.6651
 Red. masses --     13.0605                 3.9757                 2.8473
 Frc consts  --     10.4532                 3.2852                 2.5989
 IR Inten    --    330.0832               323.8504               216.2758

                     22                     23                     24
                      A                      A                      A
 Frequencies --   1252.0237              1280.8922              1315.7249
 Red. masses --      9.0585                13.5181                 7.6983
 Frc consts  --      8.3662                13.0675                 7.8519
 IR Inten    --    256.0202               122.3482               218.3421

                     25                     26                     27
                      A                      A                      A
 Frequencies --   1463.4203              1916.5499              3810.6249
 Red. masses --      5.5335                11.6656                 1.0647
 Frc consts  --      6.9822                25.2462                 9.1087
 IR Inten    --     67.0014               368.7355               129.8765

 - Thermochemistry -
 -------------------
 Temperature   298.150 Kelvin.  Pressure   1.00000 Atm.
 Atom     1 has atomic number  6 and mass  12.00000

 Molecular mass:   163.98967 amu.
 Principal axes and moments of inertia in atomic units:
                           1         2         3
     Eigenvalues --   846.337322358.404582737.63019
           X            0.31585   0.90995  -0.26874
           Y            0.60059   0.02753   0.79909
           Z            0.73453  -0.41380  -0.53781
 This molecule is an asymmetric top.
 Rotational symmetry number  1.
 Warning -- assumption of classical behavior for rotation
           may cause significant error
 Rotational temperatures (Kelvin)      0.10234     0.03673     0.03164
 Rotational constants (GHZ):           2.13241     0.76524     0.65923
 Zero-point vibrational energy     126436.3 (Joules/Mol)
                                   30.21899 (Kcal/Mol)
 Warning -- explicit consideration of  14 degrees of freedom as
           vibrations may cause significant error
 Vibrational temperatures:     23.15    38.20    50.70    83.70   113.46
          (Kelvin)            149.16   213.32   348.08   357.35   570.95
                              623.07   738.73   855.55   865.54   983.69
                              991.87  1163.27  1189.18  1676.93  1703.89
                             1790.80  1801.38  1842.92  1893.03  2105.54
                             2757.49  5482.64

 Zero-point correction=                           0.048157 (Hartree/Particle)
 Thermal correction to Energy=                    0.059208
 Thermal correction to Enthalpy=                  0.060152
 Thermal correction to Gibbs Free Energy=         0.006659
 Sum of electronic and zero-point Energies=           -764.531284
 Sum of electronic and thermal Energies=              -764.520233
 Sum of electronic and thermal Enthalpies=            -764.519289
 Sum of electronic and thermal Free Energies=         -764.572782

                     E (Thermal)             CV                S
                      KCal/Mol        Cal/Mol-Kelvin    Cal/Mol-Kelvin
 Total                   37.153             33.561            112.585
 Electronic               0.000              0.000              0.000
 Translational            0.889              2.981             41.192
 Rotational               0.889              2.981             30.081
 Vibrational             35.376             27.600             41.312
 Vibration     1          0.593              1.986              7.067
 Vibration     2          0.593              1.984              6.072
 Vibration     3          0.594              1.982              5.510
 Vibration     4          0.596              1.974              4.518
 Vibration     5          0.600              1.963              3.919
 Vibration     6          0.605              1.946              3.384
 Vibration     7          0.618              1.905              2.694
 Vibration     8          0.658              1.776              1.789
 Vibration     9          0.662              1.765              1.742
 Vibration    10          0.763              1.477              0.974
 Vibration    11          0.794              1.398              0.849
 Vibration    12          0.869              1.220              0.625
 Vibration    13          0.952              1.043              0.459
 Vibration    14          0.960              1.028              0.447

 Normal termination of Gaussian 16 at Sat May 24 05:24:08 2025.
