 Gaussian 16, Revision C.01,
 Gaussian 16:  ES64L-G16RevC.01  3-Jul-2019

 ----------------------------------------------------------------------
 #P M062X/Def2TZVPP Symm(None) scf(xqc) pop(None) geom(AllCheck,NoKeepC
 onstants) guess(Read) irc(RCFC,forward,MaxPoints=100,StepSize=2)
 ----------------------------------------------------------------------

 Structure from the checkpoint file:  "1642764945472630600001_r12_insertion_R_1_3_4_IRC_F.chk"
 ------------------------------
 Gaussian input prepared by ASE
 ------------------------------
 Charge =  0 Multiplicity = 1

 SCF Done:  E(RM062X) =  -764.529112686     A.U. after   11 cycles
 SCF Done:  E(RM062X) =  -764.529130957     A.U. after   11 cycles
 SCF Done:  E(RM062X) =  -764.529161906     A.U. after   11 cycles
 SCF Done:  E(RM062X) =  -764.529205880     A.U. after   11 cycles
 SCF Done:  E(RM062X) =  -764.529263238     A.U. after   11 cycles
 SCF Done:  E(RM062X) =  -764.529334333     A.U. after   11 cycles
 SCF Done:  E(RM062X) =  -764.529419514     A.U. after   11 cycles
 SCF Done:  E(RM062X) =  -764.529519124     A.U. after   11 cycles
 SCF Done:  E(RM062X) =  -764.529633502     A.U. after   11 cycles
 SCF Done:  E(RM062X) =  -764.529762988     A.U. after   11 cycles
 SCF Done:  E(RM062X) =  -764.593025160     A.U. after   10 cycles
 SCF Done:  E(RM062X) =  -764.594052673     A.U. after   10 cycles
 SCF Done:  E(RM062X) =  -764.595074134     A.U. after   10 cycles
 SCF Done:  E(RM062X) =  -764.596089409     A.U. after   10 cycles
 SCF Done:  E(RM062X) =  -764.597098381     A.U. after   10 cycles
 SCF Done:  E(RM062X) =  -764.598100944     A.U. after   10 cycles
 SCF Done:  E(RM062X) =  -764.599097000     A.U. after   10 cycles
 SCF Done:  E(RM062X) =  -764.600086459     A.U. after   10 cycles
 SCF Done:  E(RM062X) =  -764.601069239     A.U. after   10 cycles
 SCF Done:  E(RM062X) =  -764.602045261     A.U. after   10 cycles

                          Input orientation:
 ---------------------------------------------------------------------
 Center     Atomic      Atomic             Coordinates (Angstroms)
 Number     Number       Type             X           Y           Z
 ---------------------------------------------------------------------
      1          6           0        1.224789   -0.076323   -0.591170
      2          8           0        1.888411   -0.821934    0.059805
      3          6           0       -0.199645   -0.382819   -0.851199
      4          6           0       -0.486101    0.215948    0.831611
      5          9           0       -1.359592    1.179083    0.666056
      6          9           0       -0.910189   -0.850849    1.461610
      7          9           0        0.448758    0.752076    1.673420
      8          9           0       -0.882126    0.303682   -1.767737
      9          9           0       -0.514089   -1.659873   -1.045086
     10          8           0        1.391606    1.236798   -0.759001
     11          1           0        2.172960    1.512703   -0.259622
 ---------------------------------------------------------------------

 Normal termination of Gaussian 16 at Sat May 24 03:36:34 2025.
