 Gaussian 16, Revision C.01,
 Gaussian 16:  ES64L-G16RevC.01  3-Jul-2019

 ----------------------------------------------------------------------
 #P M062X/Def2TZVPP Symm(None) scf(xqc) pop(None) geom(AllCheck,NoKeepC
 onstants) guess(Read) irc(RCFC,reverse,MaxPoints=100,StepSize=2)
 ----------------------------------------------------------------------

 Structure from the checkpoint file:  "1642764945472630600001_intra_H_migration_1_11_IRC_R.chk"
 ------------------------------
 Gaussian input prepared by ASE
 ------------------------------
 Charge =  0 Multiplicity = 1

 SCF Done:  E(RM062X) =  -764.605151738     A.U. after    9 cycles
 SCF Done:  E(RM062X) =  -764.605250437     A.U. after   10 cycles
 SCF Done:  E(RM062X) =  -764.605414525     A.U. after   10 cycles
 SCF Done:  E(RM062X) =  -764.605643214     A.U. after   10 cycles
 SCF Done:  E(RM062X) =  -764.605935296     A.U. after   10 cycles
 SCF Done:  E(RM062X) =  -764.606289148     A.U. after   10 cycles
 SCF Done:  E(RM062X) =  -764.606702827     A.U. after   10 cycles
 SCF Done:  E(RM062X) =  -764.607174217     A.U. after   10 cycles
 SCF Done:  E(RM062X) =  -764.607701154     A.U. after   10 cycles
 SCF Done:  E(RM062X) =  -764.608281498     A.U. after   10 cycles
 SCF Done:  E(RM062X) =  -764.664249321     A.U. after    8 cycles
 SCF Done:  E(RM062X) =  -764.664437783     A.U. after    8 cycles
 SCF Done:  E(RM062X) =  -764.664618760     A.U. after    8 cycles
 SCF Done:  E(RM062X) =  -764.664792401     A.U. after    8 cycles
 SCF Done:  E(RM062X) =  -764.664958852     A.U. after    8 cycles
 SCF Done:  E(RM062X) =  -764.665118264     A.U. after    8 cycles
 SCF Done:  E(RM062X) =  -764.665270788     A.U. after    8 cycles
 SCF Done:  E(RM062X) =  -764.665416581     A.U. after    8 cycles
 SCF Done:  E(RM062X) =  -764.665555805     A.U. after    8 cycles
 SCF Done:  E(RM062X) =  -764.665688626     A.U. after    8 cycles

                          Input orientation:
 ---------------------------------------------------------------------
 Center     Atomic      Atomic             Coordinates (Angstroms)
 Number     Number       Type             X           Y           Z
 ---------------------------------------------------------------------
      1          6           0        1.418702    0.023241   -0.577850
      2          8           0        2.135437   -0.811823   -0.126669
      3          6           0       -0.132438   -0.150124   -0.591399
      4          6           0       -0.736149    0.062329    0.818075
      5          9           0       -2.054896   -0.048116    0.771198
      6          9           0       -0.258608   -0.833072    1.665435
      7          9           0       -0.420423    1.279289    1.251034
      8          9           0       -0.739808    0.699015   -1.427875
      9          9           0       -0.412281   -1.403707   -0.970480
     10          8           0        1.888015    1.155169   -1.079748
     11          1           0        2.849668    1.099013   -0.976612
 ---------------------------------------------------------------------

 Normal termination of Gaussian 16 at Sat May 24 03:29:33 2025.
