 Gaussian 16, Revision C.01,
 Gaussian 16:  ES64L-G16RevC.01  3-Jul-2019

 -----------------------------------------------------------------
 #P M062X/Def2TZVPP Symm(None) scf(xqc) pop(None) freq opt(CalcFC)
 -----------------------------------------------------------------

 ------------------------------
 Gaussian input prepared by ASE
 ------------------------------
 Symbolic Z-matrix:
 Charge =  0 Multiplicity = 1

 SCF Done:  E(RM062X) =  -764.594398976     A.U. after   15 cycles
 SCF Done:  E(RM062X) =  -764.626706650     A.U. after   13 cycles
 SCF Done:  E(RM062X) =  -764.649136574     A.U. after   14 cycles
 SCF Done:  E(RM062X) =  -764.613985707     A.U. after   14 cycles
 SCF Done:  E(RM062X) =  -764.661927875     A.U. after   14 cycles
 SCF Done:  E(RM062X) =  -764.665852862     A.U. after   13 cycles
 SCF Done:  E(RM062X) =  -764.667244259     A.U. after   13 cycles
 SCF Done:  E(RM062X) =  -764.667430490     A.U. after   11 cycles
 SCF Done:  E(RM062X) =  -764.667448100     A.U. after   10 cycles
 SCF Done:  E(RM062X) =  -764.667453407     A.U. after    8 cycles
 SCF Done:  E(RM062X) =  -764.667646848     A.U. after   12 cycles
 SCF Done:  E(RM062X) =  -764.667726038     A.U. after   12 cycles
 SCF Done:  E(RM062X) =  -764.667820234     A.U. after   12 cycles
 SCF Done:  E(RM062X) =  -764.667884845     A.U. after   11 cycles
 SCF Done:  E(RM062X) =  -764.667933777     A.U. after   12 cycles
 SCF Done:  E(RM062X) =  -764.667947566     A.U. after   11 cycles
 SCF Done:  E(RM062X) =  -764.667952739     A.U. after   11 cycles
 SCF Done:  E(RM062X) =  -764.667953921     A.U. after   10 cycles
 SCF Done:  E(RM062X) =  -764.667953970     A.U. after    7 cycles
 Optimization completed.
    -- Stationary point found.
 Normal termination of Gaussian 16 at Sat May 24 06:15:08 2025.

 ---------------------------------------------------------------------
 #P Geom=AllCheck Guess=TCheck SCRF=Check GenChk RM062X/def2TZVPP Freq
 ---------------------------------------------------------------------

 Structure from the checkpoint file:  "1642764945472630600001_ketoenol_2_1_3_8_IRC_F_prod.chk"
 ------------------------------
 Gaussian input prepared by ASE
 ------------------------------
 Charge =  0 Multiplicity = 1

                          Input orientation:
 ---------------------------------------------------------------------
 Center     Atomic      Atomic             Coordinates (Angstroms)
 Number     Number       Type             X           Y           Z
 ---------------------------------------------------------------------
      1          6           0       -0.460837   -0.917365    1.136014
      2          8           0       -1.641646   -0.774295    1.096435
      3          6           0        0.522404   -0.202015    0.190170
      4          6           0       -0.179396    0.723892   -0.823310
      5          9           0       -0.853268    1.673688   -0.193662
      6          9           0        0.739204    1.294576   -1.593441
      7          9           0       -1.003751    0.029035   -1.591685
      8          9           0        1.224704   -1.114662   -0.497162
      9          9           0        1.375222    0.540426    0.911211
     10          8           0        0.211441   -1.695566    1.976058
     11          1           0       -0.422417   -2.134155    2.560553
 ---------------------------------------------------------------------

 SCF Done:  E(RM062X) =  -764.667953970     A.U. after    1 cycles

 Isotropic polarizability for W=    0.000000       43.69 Bohr**3.
 End of Minotr F.D. properties file   721 does not exist.

                      1                      2                      3
                      A                      A                      A
 Frequencies --     29.9461                88.9666               157.3391
 Red. masses --     12.2102                17.8740                12.5268
 Frc consts  --      0.0065                 0.0834                 0.1827
 IR Inten    --      1.7413                 0.0000                 0.1341

                      4                      5                      6
                      A                      A                      A
 Frequencies --    215.9802               249.5830               280.6954
 Red. masses --     15.0124                10.7685                14.1449
 Frc consts  --      0.4126                 0.3952                 0.6566
 IR Inten    --      1.6884                 0.1278                 5.8228

                      7                      8                      9
                      A                      A                      A
 Frequencies --    340.6404               363.2521               423.0887
 Red. masses --     13.3263                14.1162                11.5984
 Frc consts  --      0.9111                 1.0975                 1.2232
 IR Inten    --      0.2289                 0.4498                 0.0230

                     10                     11                     12
                      A                      A                      A
 Frequencies --    423.8329               544.3956               572.3284
 Red. masses --     16.5984                15.5190                 1.6711
 Frc consts  --      1.7567                 2.7098                 0.3225
 IR Inten    --      0.8109                11.6024                77.4477

                     13                     14                     15
                      A                      A                      A
 Frequencies --    607.9088               671.9259               697.0274
 Red. masses --      3.4156                 9.3008                 5.4666
 Frc consts  --      0.7437                 2.4741                 1.5648
 IR Inten    --     26.6271                16.0922               117.0354

                     16                     17                     18
                      A                      A                      A
 Frequencies --    793.6693               805.1183              1062.7620
 Red. masses --     11.2017                 9.8262                13.5928
 Frc consts  --      4.1573                 3.7528                 9.0455
 IR Inten    --      1.8135                32.3770               271.1997

                     19                     20                     21
                      A                      A                      A
 Frequencies --   1201.0409              1233.5216              1235.3114
 Red. masses --      3.6974                12.0549                 2.5496
 Frc consts  --      3.1424                10.8071                 2.2923
 IR Inten    --     45.4665               153.1855               206.1786

                     22                     23                     24
                      A                      A                      A
 Frequencies --   1285.0195              1301.3161              1418.5746
 Red. masses --     12.9265                13.1472                11.6798
 Frc consts  --     12.5762                13.1174                13.8482
 IR Inten    --    168.8194               306.1383                57.1632

                     25                     26                     27
                      A                      A                      A
 Frequencies --   1440.4370              1912.0089              3808.8921
 Red. masses --      4.7835                11.6842                 1.0646
 Frc consts  --      5.8477                25.1670                 9.1001
 IR Inten    --    105.5170               309.2680               132.4095

 - Thermochemistry -
 -------------------
 Temperature   298.150 Kelvin.  Pressure   1.00000 Atm.
 Atom     1 has atomic number  6 and mass  12.00000

 Molecular mass:   163.98967 amu.
 Principal axes and moments of inertia in atomic units:
                           1         2         3
     Eigenvalues --   884.933511502.784151748.11422
           X           -0.00072   0.99757   0.06972
           Y           -0.64807  -0.05356   0.75970
           Z            0.76158  -0.04464   0.64653
 This molecule is an asymmetric top.
 Rotational symmetry number  1.
 Warning -- assumption of classical behavior for rotation
           may cause significant error
 Rotational temperatures (Kelvin)      0.09788     0.05764     0.04955
 Rotational constants (GHZ):           2.03941     1.20093     1.03239
 Zero-point vibrational energy     138555.0 (Joules/Mol)
                                   33.11543 (Kcal/Mol)
 Warning -- explicit consideration of  13 degrees of freedom as
           vibrations may cause significant error
 Vibrational temperatures:     43.09   128.00   226.38   310.75   359.09
          (Kelvin)            403.86   490.11   522.64   608.73   609.80
                              783.26   823.45   874.65   966.75  1002.87
                             1141.91  1158.39  1529.08  1728.03  1774.76
                             1777.34  1848.86  1872.30  2041.01  2072.47
                             2750.95  5480.15

 Zero-point correction=                           0.052773 (Hartree/Particle)
 Thermal correction to Energy=                    0.061663
 Thermal correction to Enthalpy=                  0.062607
 Thermal correction to Gibbs Free Energy=         0.017617
 Sum of electronic and zero-point Energies=           -764.615181
 Sum of electronic and thermal Energies=              -764.606291
 Sum of electronic and thermal Enthalpies=            -764.605347
 Sum of electronic and thermal Free Energies=         -764.650337

                     E (Thermal)             CV                S
                      KCal/Mol        Cal/Mol-Kelvin    Cal/Mol-Kelvin
 Total                   38.694             30.743             94.689
 Electronic               0.000              0.000              0.000
 Translational            0.889              2.981             41.192
 Rotational               0.889              2.981             29.232
 Vibrational             36.917             24.781             24.264
 Vibration     1          0.594              1.984              5.833
 Vibration     2          0.602              1.957              3.683
 Vibration     3          0.621              1.894              2.582
 Vibration     4          0.645              1.817              1.993
 Vibration     5          0.662              1.763              1.734
 Vibration     6          0.680              1.709              1.529
 Vibration     7          0.720              1.594              1.209
 Vibration     8          0.737              1.548              1.108
 Vibration     9          0.785              1.420              0.882
 Vibration    10          0.786              1.418              0.879
 Vibration    11          0.900              1.152              0.556
 Vibration    12          0.929              1.091              0.500
 Vibration    13          0.967              1.015              0.436

 Optimization completed.
    -- Stationary point found.
 Normal termination of Gaussian 16 at Sat May 24 06:18:45 2025.
