 Gaussian 16, Revision C.01,
 Gaussian 16:  ES64L-G16RevC.01  3-Jul-2019

 ----------------------------------------------------------------------
 #P M062X/Def2TZVPP Symm(None) scf(xqc) pop(None) geom(AllCheck,NoKeepC
 onstants) guess(Read) irc(RCFC,forward,MaxPoints=100,StepSize=2)
 ----------------------------------------------------------------------

 Structure from the checkpoint file:  "1642764945472630600001_r12_insertion_R_2_1_3_IRC_F.chk"
 ------------------------------
 Gaussian input prepared by ASE
 ------------------------------
 Charge =  0 Multiplicity = 1

 SCF Done:  E(RM062X) =  -764.512612726     A.U. after   10 cycles
 SCF Done:  E(RM062X) =  -764.512780173     A.U. after   11 cycles
 SCF Done:  E(RM062X) =  -764.513059658     A.U. after   11 cycles
 SCF Done:  E(RM062X) =  -764.513450767     A.U. after   11 cycles
 SCF Done:  E(RM062X) =  -764.513952505     A.U. after   11 cycles
 SCF Done:  E(RM062X) =  -764.514563357     A.U. after   11 cycles
 SCF Done:  E(RM062X) =  -764.515281359     A.U. after   11 cycles
 SCF Done:  E(RM062X) =  -764.516104172     A.U. after   11 cycles
 SCF Done:  E(RM062X) =  -764.517029142     A.U. after   11 cycles
 SCF Done:  E(RM062X) =  -764.518053348     A.U. after   11 cycles
 SCF Done:  E(RM062X) =  -764.647126892     A.U. after    9 cycles
 SCF Done:  E(RM062X) =  -764.647949115     A.U. after    9 cycles
 SCF Done:  E(RM062X) =  -764.648749144     A.U. after    9 cycles
 SCF Done:  E(RM062X) =  -764.649527083     A.U. after    9 cycles
 SCF Done:  E(RM062X) =  -764.650283038     A.U. after    9 cycles
 SCF Done:  E(RM062X) =  -764.651017121     A.U. after    9 cycles
 SCF Done:  E(RM062X) =  -764.651729450     A.U. after    9 cycles
 SCF Done:  E(RM062X) =  -764.652420156     A.U. after    9 cycles
 SCF Done:  E(RM062X) =  -764.653089378     A.U. after    9 cycles
 SCF Done:  E(RM062X) =  -764.653737274     A.U. after    9 cycles

                          Input orientation:
 ---------------------------------------------------------------------
 Center     Atomic      Atomic             Coordinates (Angstroms)
 Number     Number       Type             X           Y           Z
 ---------------------------------------------------------------------
      1          6           0        1.333676    0.269136   -0.842610
      2          8           0        1.923154   -0.485200   -1.543985
      3          6           0       -0.042286   -0.366454   -0.380011
      4          6           0       -0.786422    0.184600    0.831330
      5          9           0       -1.271040    1.382227    0.549474
      6          9           0       -1.780339   -0.612949    1.201543
      7          9           0        0.086781    0.263208    1.829740
      8          9           0       -0.851389   -0.374328   -1.449303
      9          9           0        0.228529   -1.642077   -0.079293
     10          8           0        1.792435    1.490144   -0.537307
     11          1           0        2.644780    1.559532   -0.994435
 ---------------------------------------------------------------------

 Normal termination of Gaussian 16 at Sat May 24 04:39:18 2025.
