 Gaussian 16, Revision C.01,
 Gaussian 16:  ES64L-G16RevC.01  3-Jul-2019

 -----------------------------------------------------------------
 #P M062X/Def2TZVPP Symm(None) scf(xqc) pop(None) freq opt(CalcFC)
 -----------------------------------------------------------------

 ------------------------------
 Gaussian input prepared by ASE
 ------------------------------
 Symbolic Z-matrix:
 Charge =  0 Multiplicity = 1

 SCF Done:  E(RM062X) =  -764.413770621     A.U. after   15 cycles
 Optimization completed.
    -- Stationary point found.
 Normal termination of Gaussian 16 at Sat May 24 06:06:05 2025.

 ---------------------------------------------------------------------
 #P Geom=AllCheck Guess=TCheck SCRF=Check GenChk RM062X/def2TZVPP Freq
 ---------------------------------------------------------------------

 Structure from the checkpoint file:  "1643085676164723230601_well.chk"
 ------------------------------
 Gaussian input prepared by ASE
 ------------------------------
 Charge =  0 Multiplicity = 1

                          Input orientation:
 ---------------------------------------------------------------------
 Center     Atomic      Atomic             Coordinates (Angstroms)
 Number     Number       Type             X           Y           Z
 ---------------------------------------------------------------------
      1          6           0        1.196862   -0.842033   -0.483683
      2          8           0        2.210594    0.141686   -0.296010
      3          6           0       -0.147554   -0.090103   -0.488249
      4          6           0       -0.730631    0.010694    0.932189
      5          9           0       -1.848381    0.723224    0.921098
      6          9           0       -0.996573   -1.193910    1.408694
      7          9           0        0.148944    0.607510    1.731977
      8          9           0       -0.071509    1.188689   -0.978930
      9          9           0       -1.016626   -0.748268   -1.267317
     10          8           0        1.960912   -0.169303   -1.687648
     11          1           0        1.480513    0.635953   -1.974111
 ---------------------------------------------------------------------

 SCF Done:  E(RM062X) =  -764.413770621     A.U. after    1 cycles

 Isotropic polarizability for W=    0.000000       46.40 Bohr**3.
 End of Minotr F.D. properties file   721 does not exist.

                      1                      2                      3
                      A                      A                      A
 Frequencies --     56.5803                80.6404               173.5882
 Red. masses --     17.2373                11.5959                11.0926
 Frc consts  --      0.0325                 0.0444                 0.1969
 IR Inten    --      0.9208                 2.3345                 6.5268

                      4                      5                      6
                      A                      A                      A
 Frequencies --    216.4484               271.1142               324.5440
 Red. masses --     17.6752                13.9336                10.4592
 Frc consts  --      0.4879                 0.6034                 0.6491
 IR Inten    --      3.3732                 6.0583                18.8516

                      7                      8                      9
                      A                      A                      A
 Frequencies --    332.9884               361.1132               409.9459
 Red. masses --     12.7733                18.0936                13.3259
 Frc consts  --      0.8345                 1.3902                 1.3195
 IR Inten    --      0.5562                 0.1455                 3.2450

                     10                     11                     12
                      A                      A                      A
 Frequencies --    493.8550               533.1134               558.7440
 Red. masses --     13.5611                15.0527                14.7726
 Frc consts  --      1.9487                 2.5206                 2.7173
 IR Inten    --      2.2648                20.8850                20.6905

                     13                     14                     15
                      A                      A                      A
 Frequencies --    594.2913               650.9767               715.1115
 Red. masses --     15.8797                13.8279                 6.6408
 Frc consts  --      3.3044                 3.4525                 2.0009
 IR Inten    --      1.7449                 2.6257                28.5018

                     16                     17                     18
                      A                      A                      A
 Frequencies --    785.3069               877.8315               993.5883
 Red. masses --      8.4371                 7.9558                 1.5055
 Frc consts  --      3.0657                 3.6121                 0.8756
 IR Inten    --     35.9509                33.1936                79.2318

                     19                     20                     21
                      A                      A                      A
 Frequencies --   1064.1573              1130.0250              1193.1238
 Red. masses --      9.7187                 8.9242                12.7170
 Frc consts  --      6.4844                 6.7142                10.6661
 IR Inten    --    135.7917                59.8980               114.9500

                     22                     23                     24
                      A                      A                      A
 Frequencies --   1245.6234              1283.4551              1297.2534
 Red. masses --      8.3066                10.0306                 8.8895
 Frc consts  --      7.5936                 9.7351                 8.8141
 IR Inten    --    201.2372               178.2829               234.3026

                     25                     26                     27
                      A                      A                      A
 Frequencies --   1338.2871              1400.9983              3611.3153
 Red. masses --      1.3074                11.1057                 1.0654
 Frc consts  --      1.3797                12.8432                 8.1861
 IR Inten    --    140.4467                74.3798               157.2354

 - Thermochemistry -
 -------------------
 Temperature   298.150 Kelvin.  Pressure   1.00000 Atm.
 Atom     1 has atomic number  6 and mass  12.00000

 Molecular mass:   163.98967 amu.
 Principal axes and moments of inertia in atomic units:
                           1         2         3
     Eigenvalues --   815.410931607.271161773.15853
           X            0.77261   0.63320  -0.04606
           Y           -0.01020   0.08492   0.99634
           Z           -0.63480   0.76931  -0.07207
 This molecule is an asymmetric top.
 Rotational symmetry number  1.
 Warning -- assumption of classical behavior for rotation
           may cause significant error
 Rotational temperatures (Kelvin)      0.10622     0.05389     0.04885
 Rotational constants (GHZ):           2.21329     1.12286     1.01781
 Zero-point vibrational energy     131553.5 (Joules/Mol)
                                   31.44203 (Kcal/Mol)
 Warning -- explicit consideration of  13 degrees of freedom as
           vibrations may cause significant error
 Vibrational temperatures:     81.41   116.02   249.75   311.42   390.07
          (Kelvin)            466.95   479.10   519.56   589.82   710.55
                              767.03   803.91   855.05   936.61  1028.89
                             1129.88  1263.00  1429.55  1531.09  1625.85
                             1716.64  1792.17  1846.61  1866.46  1925.50
                             2015.72  5195.88

 Zero-point correction=                           0.050106 (Hartree/Particle)
 Thermal correction to Energy=                    0.058867
 Thermal correction to Enthalpy=                  0.059811
 Thermal correction to Gibbs Free Energy=         0.015581
 Sum of electronic and zero-point Energies=           -764.363665
 Sum of electronic and thermal Energies=              -764.354904
 Sum of electronic and thermal Enthalpies=            -764.353959
 Sum of electronic and thermal Free Energies=         -764.398190

                     E (Thermal)             CV                S
                      KCal/Mol        Cal/Mol-Kelvin    Cal/Mol-Kelvin
 Total                   36.940             30.970             93.091
 Electronic               0.000              0.000              0.000
 Translational            0.889              2.981             41.192
 Rotational               0.889              2.981             29.231
 Vibrational             35.162             25.009             22.668
 Vibration     1          0.596              1.975              4.573
 Vibration     2          0.600              1.962              3.875
 Vibration     3          0.627              1.875              2.396
 Vibration     4          0.645              1.816              1.989
 Vibration     5          0.675              1.726              1.589
 Vibration     6          0.709              1.626              1.287
 Vibration     7          0.715              1.610              1.246
 Vibration     8          0.735              1.552              1.117
 Vibration     9          0.774              1.449              0.927
 Vibration    10          0.850              1.264              0.674
 Vibration    11          0.888              1.177              0.580
 Vibration    12          0.914              1.121              0.526
 Vibration    13          0.952              1.044              0.460

 Optimization completed.
    -- Stationary point found.
 Normal termination of Gaussian 16 at Sat May 24 06:09:58 2025.
