 Gaussian 16, Revision C.01,
 Gaussian 16:  ES64L-G16RevC.01  3-Jul-2019

 ------------------------------------------------------
 #P M062X/Def2TZVPP scf(xqc) pop(None) freq opt(CalcFC)
 ------------------------------------------------------

 ------------------------------
 Gaussian input prepared by ASE
 ------------------------------
 Symbolic Z-matrix:
 Charge =  0 Multiplicity = 2

 SCF Done:  E(UM062X) =  -75.7334769306     A.U. after   13 cycles
 SCF Done:  E(UM062X) =  -75.7334899983     A.U. after    8 cycles
 Optimization completed.
    -- Stationary point found.
 Normal termination of Gaussian 16 at Fri May 23 23:57:59 2025.

 ---------------------------------------------------------------------
 #P Geom=AllCheck Guess=TCheck SCRF=Check GenChk UM062X/def2TZVPP Freq
 ---------------------------------------------------------------------

 Structure from the checkpoint file:  "170170000000000000002_well.chk"
 ------------------------------
 Gaussian input prepared by ASE
 ------------------------------
 Charge =  0 Multiplicity = 2

                         Standard orientation:
 ---------------------------------------------------------------------
 Center     Atomic      Atomic             Coordinates (Angstroms)
 Number     Number       Type             X           Y           Z
 ---------------------------------------------------------------------
      1          8           0       -0.000000    0.000000    0.107904
      2          1           0        0.000000   -0.000000   -0.863228
 ---------------------------------------------------------------------

 SCF Done:  E(UM062X) =  -75.7334899983     A.U. after    1 cycles

 Isotropic polarizability for W=    0.000000        5.29 Bohr**3.
 End of Minotr F.D. properties file   721 does not exist.

                      1
                     SG
 Frequencies --   3780.6150
 Red. masses --      1.0671
 Frc consts  --      8.9862
 IR Inten    --     20.2031

 - Thermochemistry -
 -------------------
 Temperature   298.150 Kelvin.  Pressure   1.00000 Atm.
 Atom     1 has atomic number  8 and mass  15.99491

 Molecular mass:    17.00274 amu.
 Principal axes and moments of inertia in atomic units:
                           1         2         3
     Eigenvalues --     0.00000   3.19302   3.19302
           X            0.00000   0.00027   1.00000
           Y            0.00000   1.00000  -0.00027
           Z            1.00000  -0.00000   0.00000
 This molecule is a prolate symmetric top.
 Rotational symmetry number  1.
 Rotational temperature (Kelvin)     27.12599
 Rotational constant (GHZ):         565.213858
 Zero-point vibrational energy      22613.1 (Joules/Mol)
                                    5.40466 (Kcal/Mol)
 Vibrational temperatures:   5439.46
          (Kelvin)

 Zero-point correction=                           0.008613 (Hartree/Particle)
 Thermal correction to Energy=                    0.010973
 Thermal correction to Enthalpy=                  0.011918
 Thermal correction to Gibbs Free Energy=        -0.008306
 Sum of electronic and zero-point Energies=            -75.724877
 Sum of electronic and thermal Energies=               -75.722517
 Sum of electronic and thermal Enthalpies=             -75.721572
 Sum of electronic and thermal Free Energies=          -75.741796

                     E (Thermal)             CV                S
                      KCal/Mol        Cal/Mol-Kelvin    Cal/Mol-Kelvin
 Total                    6.886              4.968             42.565
 Electronic               0.000              0.000              1.377
 Translational            0.889              2.981             34.437
 Rotational               0.592              1.987              6.751
 Vibrational              5.405              0.000              0.000

 Optimization completed.
    -- Stationary point found.
 Normal termination of Gaussian 16 at Fri May 23 23:58:01 2025.
