 Gaussian 16, Revision C.01,
 Gaussian 16:  ES64L-G16RevC.01  3-Jul-2019

 ------------------------------------------------------
 #P M062X/Def2TZVPP scf(xqc) pop(None) freq opt(CalcFC)
 ------------------------------------------------------

 ------------------------------
 Gaussian input prepared by ASE
 ------------------------------
 Symbolic Z-matrix:
 Charge =  0 Multiplicity = 1

 SCF Done:  E(RM062X) =  -113.322284195     A.U. after   10 cycles
 SCF Done:  E(RM062X) =  -113.322295436     A.U. after    7 cycles
 Optimization completed.
    -- Stationary point found.
 Normal termination of Gaussian 16 at Sat May 24 06:07:48 2025.

 ---------------------------------------------------------------------
 #P Geom=AllCheck Guess=TCheck SCRF=Check GenChk RM062X/def2TZVPP Freq
 ---------------------------------------------------------------------

 Structure from the checkpoint file:  "280280000000000000001_well.chk"
 ------------------------------
 Gaussian input prepared by ASE
 ------------------------------
 Charge =  0 Multiplicity = 1

                         Standard orientation:
 ---------------------------------------------------------------------
 Center     Atomic      Atomic             Coordinates (Angstroms)
 Number     Number       Type             X           Y           Z
 ---------------------------------------------------------------------
      1          6           0       -0.000000   -0.000000   -0.640083
      2          8           0        0.000000    0.000000    0.480062
 ---------------------------------------------------------------------

 SCF Done:  E(RM062X) =  -113.322295436     A.U. after    1 cycles

 Isotropic polarizability for W=    0.000000       11.76 Bohr**3.
 End of Minotr F.D. properties file   721 does not exist.

                      1
                     SG
 Frequencies --   2280.9323
 Red. masses --     13.4388
 Frc consts  --     41.1940
 IR Inten    --     94.7262

 - Thermochemistry -
 -------------------
 Temperature   298.150 Kelvin.  Pressure   1.00000 Atm.
 Atom     1 has atomic number  6 and mass  12.00000

 Molecular mass:    27.99491 amu.
 Principal axes and moments of inertia in atomic units:
                           1         2         3
     Eigenvalues --    -0.00000  30.72065  30.72065
           X            0.00000  -0.23533   0.97192
           Y           -0.00000   0.97192   0.23533
           Z            1.00000   0.00000  -0.00000
 This molecule is a prolate symmetric top.
 Rotational symmetry number  1.
 Rotational temperature (Kelvin)      2.81940
 Rotational constant (GHZ):          58.746839
 Zero-point vibrational energy      13643.0 (Joules/Mol)
                                    3.26076 (Kcal/Mol)
 Vibrational temperatures:   3281.75
          (Kelvin)

 Zero-point correction=                           0.005196 (Hartree/Particle)
 Thermal correction to Energy=                    0.007557
 Thermal correction to Enthalpy=                  0.008501
 Thermal correction to Gibbs Free Energy=        -0.013912
 Sum of electronic and zero-point Energies=           -113.317099
 Sum of electronic and thermal Energies=              -113.314738
 Sum of electronic and thermal Enthalpies=            -113.313794
 Sum of electronic and thermal Free Energies=         -113.336208

                     E (Thermal)             CV                S
                      KCal/Mol        Cal/Mol-Kelvin    Cal/Mol-Kelvin
 Total                    4.742              4.972             47.173
 Electronic               0.000              0.000              0.000
 Translational            0.889              2.981             35.923
 Rotational               0.592              1.987             11.250
 Vibrational              3.261              0.004              0.000

 Optimization completed.
    -- Stationary point found.
 Normal termination of Gaussian 16 at Sat May 24 06:07:51 2025.
