 Gaussian 16, Revision C.01,
 Gaussian 16:  ES64L-G16RevC.01  3-Jul-2019

 -----------------------------------------------------------------
 #P M062X/Def2TZVPP Symm(None) scf(xqc) pop(None) freq opt(CalcFC)
 -----------------------------------------------------------------

 ------------------------------
 Gaussian input prepared by ASE
 ------------------------------
 Symbolic Z-matrix:
 Charge =  0 Multiplicity = 1

 SCF Done:  E(RM062X) =  -237.723216844     A.U. after   12 cycles
 SCF Done:  E(RM062X) =  -237.723265001     A.U. after    8 cycles
 Optimization completed.
    -- Stationary point found.
 Normal termination of Gaussian 16 at Sat May 24 04:24:58 2025.

 ---------------------------------------------------------------------
 #P Geom=AllCheck Guess=TCheck SCRF=Check GenChk RM062X/def2TZVPP Freq
 ---------------------------------------------------------------------

 Structure from the checkpoint file:  "500620380000000000001_well.chk"
 ------------------------------
 Gaussian input prepared by ASE
 ------------------------------
 Charge =  0 Multiplicity = 1

                          Input orientation:
 ---------------------------------------------------------------------
 Center     Atomic      Atomic             Coordinates (Angstroms)
 Number     Number       Type             X           Y           Z
 ---------------------------------------------------------------------
      1          6           0       -0.788666   -0.679146   -1.744449
      2          9           0       -1.811198   -0.428311   -2.496146
      3          9           0       -0.684706   -1.968435   -1.758582
 ---------------------------------------------------------------------

 SCF Done:  E(RM062X) =  -237.723265001     A.U. after    1 cycles

 Isotropic polarizability for W=    0.000000       14.28 Bohr**3.
 End of Minotr F.D. properties file   721 does not exist.

                      1                      2                      3
                      A                      A                      A
 Frequencies --    692.4182              1183.0681              1287.1777
 Red. masses --     17.7049                13.6928                13.8658
 Frc consts  --      5.0013                11.2918                13.5354
 IR Inten    --      4.4244               395.3108               129.4355

 - Thermochemistry -
 -------------------
 Temperature   298.150 Kelvin.  Pressure   1.00000 Atm.
 Atom     1 has atomic number  6 and mass  12.00000

 Molecular mass:    49.99681 amu.
 Principal axes and moments of inertia in atomic units:
                           1         2         3
     Eigenvalues --    20.42515 141.96350 162.38865
           X           -0.55067   0.57990  -0.60040
           Y            0.75284   0.65571  -0.05716
           Z           -0.36055   0.48348   0.79765
 This molecule is an asymmetric top.
 Rotational symmetry number  1.
 Rotational temperatures (Kelvin)      4.24055     0.61011     0.53337
 Rotational constants (GHZ):          88.35876    12.71271    11.11371
 Zero-point vibrational energy      18916.9 (Joules/Mol)
                                    4.52126 (Kcal/Mol)
 Vibrational temperatures:    996.24  1702.17  1851.96
          (Kelvin)

 Zero-point correction=                           0.007205 (Hartree/Particle)
 Thermal correction to Energy=                    0.010183
 Thermal correction to Enthalpy=                  0.011127
 Thermal correction to Gibbs Free Energy=        -0.016821
 Sum of electronic and zero-point Energies=           -237.716060
 Sum of electronic and thermal Energies=              -237.713082
 Sum of electronic and thermal Enthalpies=            -237.712138
 Sum of electronic and thermal Free Energies=         -237.740086

                     E (Thermal)             CV                S
                      KCal/Mol        Cal/Mol-Kelvin    Cal/Mol-Kelvin
 Total                    6.390              7.176             58.822
 Electronic               0.000              0.000              0.000
 Translational            0.889              2.981             37.652
 Rotational               0.889              2.981             20.782
 Vibrational              4.613              1.214              0.388

 Optimization completed.
    -- Stationary point found.
 Normal termination of Gaussian 16 at Sat May 24 04:25:03 2025.
