 Gaussian 16, Revision C.01,
 Gaussian 16:  ES64L-G16RevC.01  3-Jul-2019

 -----------------------------------------------------------------
 #P M062X/Def2TZVPP Symm(None) scf(xqc) pop(None) freq opt(CalcFC)
 -----------------------------------------------------------------

 ------------------------------
 Gaussian input prepared by ASE
 ------------------------------
 Symbolic Z-matrix:
 Charge =  0 Multiplicity = 1

 SCF Done:  E(RM062X) =  -289.036021779     A.U. after   13 cycles
 SCF Done:  E(RM062X) =  -289.037419751     A.U. after   11 cycles
 SCF Done:  E(RM062X) =  -289.037431883     A.U. after    8 cycles
 Optimization completed.
    -- Stationary point found.
 Normal termination of Gaussian 16 at Sat May 24 05:01:52 2025.

 ---------------------------------------------------------------------
 #P Geom=AllCheck Guess=TCheck SCRF=Check GenChk RM062X/def2TZVPP Freq
 ---------------------------------------------------------------------

 Structure from the checkpoint file:  "641041150370000000001_well.chk"
 ------------------------------
 Gaussian input prepared by ASE
 ------------------------------
 Charge =  0 Multiplicity = 1

                          Input orientation:
 ---------------------------------------------------------------------
 Center     Atomic      Atomic             Coordinates (Angstroms)
 Number     Number       Type             X           Y           Z
 ---------------------------------------------------------------------
      1          6           0        1.771047    0.325456   -1.592714
      2          8           0        2.262894    0.764506   -2.562195
      3          9           0        0.453910    0.091864   -1.484887
      4          8           0        2.386443   -0.009072   -0.471026
      5          1           0        1.753025   -0.345879    0.172558
 ---------------------------------------------------------------------

 SCF Done:  E(RM062X) =  -289.037431883     A.U. after    1 cycles

 Isotropic polarizability for W=    0.000000       19.43 Bohr**3.
 End of Minotr F.D. properties file   721 does not exist.

                      1                      2                      3
                      A                      A                      A
 Frequencies --    487.7131               567.2498               628.4938
 Red. masses --      1.1032                 5.2117                14.8706
 Frc consts  --      0.1546                 0.9881                 3.4608
 IR Inten    --    132.3251                17.0821                 3.8505

                      4                      5                      6
                      A                      A                      A
 Frequencies --    796.0649               967.4466              1211.3806
 Red. masses --     12.3132                11.3935                 1.9139
 Frc consts  --      4.5975                 6.2829                 1.6547
 IR Inten    --     31.1755                89.1248                27.7302

                      7                      8                      9
                      A                      A                      A
 Frequencies --   1356.7742              2006.9127              3861.2863
 Red. masses --      2.7847                11.1536                 1.0659
 Frc consts  --      3.0203                26.4680                 9.3629
 IR Inten    --    510.1110               532.0993               138.2585

 - Thermochemistry -
 -------------------
 Temperature   298.150 Kelvin.  Pressure   1.00000 Atm.
 Atom     1 has atomic number  6 and mass  12.00000

 Molecular mass:    63.99606 amu.
 Principal axes and moments of inertia in atomic units:
                           1         2         3
     Eigenvalues --   151.20211 156.38198 307.58410
           X           -0.57806   0.80465  -0.13563
           Y           -0.36156  -0.10356   0.92658
           Z            0.73152   0.58465   0.35080
 This molecule is an asymmetric top.
 Rotational symmetry number  1.
 Rotational temperatures (Kelvin)      0.57284     0.55386     0.28159
 Rotational constants (GHZ):          11.93595    11.54060     5.86747
 Zero-point vibrational energy      71078.0 (Joules/Mol)
                                   16.98806 (Kcal/Mol)
 Warning -- explicit consideration of   2 degrees of freedom as
           vibrations may cause significant error
 Vibrational temperatures:    701.71   816.15   904.26  1145.36  1391.94
          (Kelvin)           1742.91  1952.10  2887.50  5555.53

 Zero-point correction=                           0.027072 (Hartree/Particle)
 Thermal correction to Energy=                    0.030609
 Thermal correction to Enthalpy=                  0.031553
 Thermal correction to Gibbs Free Energy=         0.001206
 Sum of electronic and zero-point Energies=           -289.010360
 Sum of electronic and thermal Energies=              -289.006823
 Sum of electronic and thermal Enthalpies=            -289.005879
 Sum of electronic and thermal Free Energies=         -289.036226

                     E (Thermal)             CV                S
                      KCal/Mol        Cal/Mol-Kelvin    Cal/Mol-Kelvin
 Total                   19.207             10.716             63.871
 Electronic               0.000              0.000              0.000
 Translational            0.889              2.981             38.388
 Rotational               0.889              2.981             23.501
 Vibrational             17.430              4.755              1.982
 Vibration     1          0.844              1.277              0.690
 Vibration     2          0.923              1.102              0.510

 Optimization completed.
    -- Stationary point found.
 Normal termination of Gaussian 16 at Sat May 24 05:02:08 2025.
