 Gaussian 16, Revision C.01,
 Gaussian 16:  ES64L-G16RevC.01  3-Jul-2019

 -----------------------------------------------------------------
 #P M062X/Def2TZVPP Symm(None) scf(xqc) pop(None) freq opt(CalcFC)
 -----------------------------------------------------------------

 ------------------------------
 Gaussian input prepared by ASE
 ------------------------------
 Symbolic Z-matrix:
 Charge =  0 Multiplicity = 2

 SCF Done:  E(UM062X) =  -337.597928708     A.U. after   15 cycles
 SCF Done:  E(UM062X) =  -337.599895960     A.U. after   12 cycles
 SCF Done:  E(UM062X) =  -337.599904139     A.U. after    8 cycles
 Optimization completed.
    -- Stationary point found.
 Normal termination of Gaussian 16 at Fri May 23 23:58:47 2025.

 ---------------------------------------------------------------------
 #P Geom=AllCheck Guess=TCheck SCRF=Check GenChk UM062X/def2TZVPP Freq
 ---------------------------------------------------------------------

 Structure from the checkpoint file:  "690931140000000000002_well.chk"
 ------------------------------
 Gaussian input prepared by ASE
 ------------------------------
 Charge =  0 Multiplicity = 2

                          Input orientation:
 ---------------------------------------------------------------------
 Center     Atomic      Atomic             Coordinates (Angstroms)
 Number     Number       Type             X           Y           Z
 ---------------------------------------------------------------------
      1          6           0       -0.609088    0.398273    1.410283
      2          9           0       -1.908067    0.232057    1.338294
      3          9           0       -0.075640   -0.401767    2.302348
      4          9           0       -0.302462    1.650571    1.650999
 ---------------------------------------------------------------------

 SCF Done:  E(UM062X) =  -337.599904139     A.U. after    1 cycles

 Isotropic polarizability for W=    0.000000       14.84 Bohr**3.
 End of Minotr F.D. properties file   721 does not exist.

                      1                      2                      3
                      A                      A                      A
 Frequencies --    518.4761               518.7085               712.6224
 Red. masses --     18.2263                18.2276                16.1426
 Frc consts  --      2.8867                 2.8895                 4.8300
 IR Inten    --      2.2841                 2.2616                16.4658

                      4                      5                      6
                      A                      A                      A
 Frequencies --   1126.5762              1317.4916              1317.7215
 Red. masses --     14.5598                13.3502                13.3495
 Frc consts  --     10.8874                13.6531                13.6572
 IR Inten    --     47.6216               366.5867               366.8972

 - Thermochemistry -
 -------------------
 Temperature   298.150 Kelvin.  Pressure   1.00000 Atm.
 Atom     1 has atomic number  6 and mass  12.00000

 Molecular mass:    68.99521 amu.
 Principal axes and moments of inertia in atomic units:
                           1         2         3
     Eigenvalues --   164.58720 164.63525 318.07001
           X            0.86551   0.31965  -0.38564
           Y           -0.24037   0.94052   0.24011
           Z            0.43945  -0.11512   0.89086
 This molecule is an asymmetric top.
 Rotational symmetry number  1.
 Rotational temperatures (Kelvin)      0.52625     0.52610     0.27231
 Rotational constants (GHZ):          10.96526    10.96206     5.67404
 Zero-point vibrational energy      32966.7 (Joules/Mol)
                                    7.87922 (Kcal/Mol)
 Warning -- explicit consideration of   2 degrees of freedom as
           vibrations may cause significant error
 Vibrational temperatures:    745.97   746.31  1025.30  1620.89  1895.58
          (Kelvin)           1895.91

 Zero-point correction=                           0.012556 (Hartree/Particle)
 Thermal correction to Energy=                    0.015961
 Thermal correction to Enthalpy=                  0.016905
 Thermal correction to Gibbs Free Energy=        -0.014113
 Sum of electronic and zero-point Energies=           -337.587348
 Sum of electronic and thermal Energies=              -337.583943
 Sum of electronic and thermal Enthalpies=            -337.582999
 Sum of electronic and thermal Free Energies=         -337.614017

                     E (Thermal)             CV                S
                      KCal/Mol        Cal/Mol-Kelvin    Cal/Mol-Kelvin
 Total                   10.016              9.722             65.284
 Electronic               0.000              0.000              1.377
 Translational            0.889              2.981             38.612
 Rotational               0.889              2.981             23.670
 Vibrational              8.238              3.760              1.625
 Vibration     1          0.873              1.209              0.614
 Vibration     2          0.874              1.209              0.613

 Optimization completed.
    -- Stationary point found.
 Normal termination of Gaussian 16 at Fri May 23 23:59:03 2025.
