 Gaussian 16, Revision C.01,
 Gaussian 16:  ES64L-G16RevC.01  3-Jul-2019

 -----------------------------------------------------------------
 #P M062X/Def2TZVPP Symm(None) scf(xqc) pop(None) freq opt(CalcFC)
 -----------------------------------------------------------------

 ------------------------------
 Gaussian input prepared by ASE
 ------------------------------
 Symbolic Z-matrix:
 Charge =  0 Multiplicity = 1

 SCF Done:  E(RM062X) =  -327.002317784     A.U. after   16 cycles
 SCF Done:  E(RM062X) =  -327.002322742     A.U. after   12 cycles
 Optimization completed.
    -- Stationary point found.
 Normal termination of Gaussian 16 at Sat May 24 05:02:21 2025.

 ---------------------------------------------------------------------
 #P Geom=AllCheck Guess=TCheck SCRF=Check GenChk RM062X/def2TZVPP Freq
 ---------------------------------------------------------------------

 Structure from the checkpoint file:  "761281321000200000001_well.chk"
 ------------------------------
 Gaussian input prepared by ASE
 ------------------------------
 Charge =  0 Multiplicity = 1

                          Input orientation:
 ---------------------------------------------------------------------
 Center     Atomic      Atomic             Coordinates (Angstroms)
 Number     Number       Type             X           Y           Z
 ---------------------------------------------------------------------
      1          6           0        2.072212   -0.474417   -0.887152
      2          8           0        3.171883   -0.944839   -0.897625
      3          6           0        0.905079   -1.323933   -0.427108
      4          9           0        0.449435   -1.926580   -1.478261
      5          8           0        1.747429    0.788997   -1.140960
      6          1           0        2.556880    1.282831   -1.339171
 ---------------------------------------------------------------------

 SCF Done:  E(RM062X) =  -327.002322742     A.U. after    1 cycles

 Isotropic polarizability for W=    0.000000       30.92 Bohr**3.
 End of Minotr F.D. properties file   721 does not exist.

                      1                      2                      3
                      A                      A                      A
 Frequencies --     78.5118               272.7041               314.6035
 Red. masses --     12.5739                 6.9406                10.5729
 Frc consts  --      0.0457                 0.3041                 0.6166
 IR Inten    --      1.7603                 6.7333                 9.7047

                      4                      5                      6
                      A                      A                      A
 Frequencies --    517.7631               599.1986               787.9967
 Red. masses --      2.7613                 1.5791                 5.0846
 Frc consts  --      0.4361                 0.3340                 1.8602
 IR Inten    --     41.0962               117.2962                39.3850

                      7                      8                      9
                      A                      A                      A
 Frequencies --    913.1107              1166.7693              1284.4388
 Red. masses --      8.5577                 2.1927                 7.1137
 Frc consts  --      4.2039                 1.7588                 6.9147
 IR Inten    --     10.0640               275.3447               174.9438

                     10                     11                     12
                      A                      A                      A
 Frequencies --   1417.5076              1863.7771              3785.2687
 Red. masses --      3.9903                11.3875                 1.0642
 Frc consts  --      4.7240                23.3059                 8.9839
 IR Inten    --     82.5076               349.8480               114.8763

 - Thermochemistry -
 -------------------
 Temperature   298.150 Kelvin.  Pressure   1.00000 Atm.
 Atom     1 has atomic number  6 and mass  12.00000

 Molecular mass:    75.99606 amu.
 Principal axes and moments of inertia in atomic units:
                           1         2         3
     Eigenvalues --   176.70697 411.98232 532.25853
           X            0.71076  -0.68944  -0.13962
           Y            0.69906   0.71440   0.03098
           Z            0.07839  -0.11962   0.98972
 This molecule is an asymmetric top.
 Rotational symmetry number  1.
 Rotational temperatures (Kelvin)      0.49016     0.21024     0.16273
 Rotational constants (GHZ):          10.21319     4.38063     3.39072
 Zero-point vibrational energy      77767.1 (Joules/Mol)
                                   18.58679 (Kcal/Mol)
 Warning -- explicit consideration of   5 degrees of freedom as
           vibrations may cause significant error
 Vibrational temperatures:    112.96   392.36   452.64   744.95   862.11
          (Kelvin)           1133.75  1313.76  1678.72  1848.02  2039.48
                             2681.56  5446.16

 Zero-point correction=                           0.029620 (Hartree/Particle)
 Thermal correction to Energy=                    0.034631
 Thermal correction to Enthalpy=                  0.035575
 Thermal correction to Gibbs Free Energy=         0.001166
 Sum of electronic and zero-point Energies=           -326.972703
 Sum of electronic and thermal Energies=              -326.967692
 Sum of electronic and thermal Enthalpies=            -326.966748
 Sum of electronic and thermal Free Energies=         -327.001157

                     E (Thermal)             CV                S
                      KCal/Mol        Cal/Mol-Kelvin    Cal/Mol-Kelvin
 Total                   21.731             15.195             72.420
 Electronic               0.000              0.000              0.000
 Translational            0.889              2.981             38.900
 Rotational               0.889              2.981             25.164
 Vibrational             19.954              9.233              8.356
 Vibration     1          0.600              1.964              3.928
 Vibration     2          0.676              1.724              1.579
 Vibration     3          0.702              1.646              1.338
 Vibration     4          0.873              1.211              0.615
 Vibration     5          0.957              1.033              0.451

 Optimization completed.
    -- Stationary point found.
 Normal termination of Gaussian 16 at Sat May 24 05:02:47 2025.
