 Gaussian 16, Revision C.01,
 Gaussian 16:  ES64L-G16RevC.01  3-Jul-2019

 -----------------------------------------------------------------
 #P M062X/Def2TZVPP Symm(None) scf(xqc) pop(None) freq opt(CalcFC)
 -----------------------------------------------------------------

 ------------------------------
 Gaussian input prepared by ASE
 ------------------------------
 Symbolic Z-matrix:
 Charge =  0 Multiplicity = 1

 SCF Done:  E(RM062X) =  -437.544607527     A.U. after   11 cycles
 SCF Done:  E(RM062X) =  -437.544645661     A.U. after    8 cycles
 Optimization completed.
    -- Stationary point found.
 Normal termination of Gaussian 16 at Sat May 24 05:02:11 2025.

 ---------------------------------------------------------------------
 #P Geom=AllCheck Guess=TCheck SCRF=Check GenChk RM062X/def2TZVPP Freq
 ---------------------------------------------------------------------

 Structure from the checkpoint file:  "881242280000000000001_well.chk"
 ------------------------------
 Gaussian input prepared by ASE
 ------------------------------
 Charge =  0 Multiplicity = 1

                          Input orientation:
 ---------------------------------------------------------------------
 Center     Atomic      Atomic             Coordinates (Angstroms)
 Number     Number       Type             X           Y           Z
 ---------------------------------------------------------------------
      1          6           0       -1.457026    0.705798    0.916127
      2          9           0       -2.344202    1.651824    1.141551
      3          9           0       -1.860384   -0.416114    1.474007
      4          9           0       -0.298128    1.059554    1.430476
      5          9           0       -1.325291    0.527940   -0.381413
 ---------------------------------------------------------------------

 SCF Done:  E(RM062X) =  -437.544645661     A.U. after    1 cycles

 Isotropic polarizability for W=    0.000000       16.06 Bohr**3.
 End of Minotr F.D. properties file   721 does not exist.

                      1                      2                      3
                      A                      A                      A
 Frequencies --    439.4294               439.6629               638.8710
 Red. masses --     18.9984                18.9984                18.1162
 Frc consts  --      2.1615                 2.1637                 4.3566
 IR Inten    --      0.0000                 0.0000                 5.7900

                      4                      5                      6
                      A                      A                      A
 Frequencies --    639.0129               639.1724               944.2420
 Red. masses --     18.1151                18.1162                18.9984
 Frc consts  --      4.3582                 4.3607                 9.9801
 IR Inten    --      5.8133                 5.7886                 0.0001

                      7                      8                      9
                      A                      A                      A
 Frequencies --   1329.1088              1329.5559              1330.1604
 Red. masses --     13.0581                13.0578                13.0575
 Frc consts  --     13.5910                13.5999                13.6118
 IR Inten    --    426.2773               426.2376               426.3981

 - Thermochemistry -
 -------------------
 Temperature   298.150 Kelvin.  Pressure   1.00000 Atm.
 Atom     1 has atomic number  6 and mass  12.00000

 Molecular mass:    87.99361 amu.
 Principal axes and moments of inertia in atomic units:
                           1         2         3
     Eigenvalues --   313.45906 313.47617 313.50064
           X           -0.48807   0.48396   0.72634
           Y            0.87068   0.21191   0.44386
           Z            0.06089   0.84905  -0.52480
 This molecule is an asymmetric top.
 Rotational symmetry number  1.
 Rotational temperatures (Kelvin)      0.27632     0.27630     0.27628
 Rotational constants (GHZ):           5.75750     5.75719     5.75674
 Zero-point vibrational energy      46231.0 (Joules/Mol)
                                   11.04947 (Kcal/Mol)
 Warning -- explicit consideration of   2 degrees of freedom as
           vibrations may cause significant error
 Vibrational temperatures:    632.24   632.58   919.19   919.40   919.63
          (Kelvin)           1358.55  1912.29  1912.93  1913.80

 Zero-point correction=                           0.017608 (Hartree/Particle)
 Thermal correction to Energy=                    0.021481
 Thermal correction to Enthalpy=                  0.022425
 Thermal correction to Gibbs Free Energy=        -0.009541
 Sum of electronic and zero-point Energies=           -437.527037
 Sum of electronic and thermal Energies=              -437.523164
 Sum of electronic and thermal Enthalpies=            -437.522220
 Sum of electronic and thermal Free Energies=         -437.554187

                     E (Thermal)             CV                S
                      KCal/Mol        Cal/Mol-Kelvin    Cal/Mol-Kelvin
 Total                   13.480             12.425             67.280
 Electronic               0.000              0.000              0.000
 Translational            0.889              2.981             39.337
 Rotational               0.889              2.981             24.936
 Vibrational             11.702              6.464              3.007
 Vibration     1          0.799              1.384              0.828
 Vibration     2          0.800              1.384              0.828

 Optimization completed.
    -- Stationary point found.
 Normal termination of Gaussian 16 at Sat May 24 05:02:30 2025.
