 Gaussian 16, Revision C.01,
 Gaussian 16:  ES64L-G16RevC.01  3-Jul-2019

 -----------------------------------------------------------------
 #P M062X/Def2TZVPP Symm(None) scf(xqc) pop(None) freq opt(CalcFC)
 -----------------------------------------------------------------

 ------------------------------
 Gaussian input prepared by ASE
 ------------------------------
 Symbolic Z-matrix:
 Charge =  0 Multiplicity = 2

 SCF Done:  E(UM062X) =  -426.916896969     A.U. after   17 cycles
 SCF Done:  E(UM062X) =  -426.924819163     A.U. after   16 cycles
 SCF Done:  E(UM062X) =  -426.926379643     A.U. after   18 cycles
 SCF Done:  E(UM062X) =  -426.927360271     A.U. after   15 cycles
 SCF Done:  E(UM062X) =  -426.927648102     A.U. after   15 cycles
 SCF Done:  E(UM062X) =  -426.927799822     A.U. after   15 cycles
 SCF Done:  E(UM062X) =  -426.927843753     A.U. after   14 cycles
 SCF Done:  E(UM062X) =  -426.927882688     A.U. after   14 cycles
 SCF Done:  E(UM062X) =  -426.927894570     A.U. after   14 cycles
 SCF Done:  E(UM062X) =  -426.927895319     A.U. after   11 cycles
 SCF Done:  E(UM062X) =  -426.927895637     A.U. after   10 cycles
 Optimization completed.
    -- Stationary point found.
 Normal termination of Gaussian 16 at Sat May 24 00:01:48 2025.

 ---------------------------------------------------------------------
 #P Geom=AllCheck Guess=TCheck SCRF=Check GenChk UM062X/def2TZVPP Freq
 ---------------------------------------------------------------------

 Structure from the checkpoint file:  "951592011700400000002_well.chk"
 ------------------------------
 Gaussian input prepared by ASE
 ------------------------------
 Charge =  0 Multiplicity = 2

                          Input orientation:
 ---------------------------------------------------------------------
 Center     Atomic      Atomic             Coordinates (Angstroms)
 Number     Number       Type             X           Y           Z
 ---------------------------------------------------------------------
      1          6           0        1.555263   -0.018442   -0.052710
      2          8           0        2.218524   -0.985339    0.229783
      3          6           0        0.151575   -0.086501   -0.340326
      4          9           0       -0.584848    0.941441   -0.642125
      5          9           0       -0.497681   -1.208051   -0.308699
      6          8           0        2.019521    1.241970   -0.140254
      7          1           0        2.962401    1.207193    0.064507
 ---------------------------------------------------------------------

 SCF Done:  E(UM062X) =  -426.927895637     A.U. after    1 cycles

 Isotropic polarizability for W=    0.000000       31.83 Bohr**3.
 End of Minotr F.D. properties file   721 does not exist.

                      1                      2                      3
                      A                      A                      A
 Frequencies --     93.4948               132.2414               230.1501
 Red. masses --     13.0048                14.4563                11.9208
 Frc consts  --      0.0670                 0.1490                 0.3720
 IR Inten    --      0.9705                 0.0818                 1.8791

                      4                      5                      6
                      A                      A                      A
 Frequencies --    415.8278               486.2500               537.7329
 Red. masses --     12.3719                 1.1438                12.1145
 Frc consts  --      1.2604                 0.1593                 2.0639
 IR Inten    --      3.3232                87.4346                 8.1364

                      7                      8                      9
                      A                      A                      A
 Frequencies --    606.3127               686.5744               806.1184
 Red. masses --      7.6925                 7.5396                 5.7102
 Frc consts  --      1.6661                 2.0940                 2.1863
 IR Inten    --     24.1420                49.3209                53.5064

                     10                     11                     12
                      A                      A                      A
 Frequencies --   1153.1271              1311.0498              1440.1498
 Red. masses --      3.4509                 2.0589                11.4939
 Frc consts  --      2.7035                 2.0851                14.0454
 IR Inten    --    381.2870                96.6885               239.0359

                     13                     14                     15
                      A                      A                      A
 Frequencies --   1586.0595              1793.6139              3836.1742
 Red. masses --     10.3227                10.4805                 1.0648
 Frc consts  --     15.2997                19.8650                 9.2323
 IR Inten    --     84.6594               271.8129               136.7625

 - Thermochemistry -
 -------------------
 Temperature   298.150 Kelvin.  Pressure   1.00000 Atm.
 Atom     1 has atomic number  6 and mass  12.00000

 Molecular mass:    94.99446 amu.
 Principal axes and moments of inertia in atomic units:
                           1         2         3
     Eigenvalues --   311.09302 526.27845 837.37054
           X            0.97432  -0.09627  -0.20356
           Y            0.12673   0.98167   0.14233
           Z            0.18612  -0.16447   0.96866
 This molecule is an asymmetric top.
 Rotational symmetry number  1.
 Rotational temperatures (Kelvin)      0.27842     0.16458     0.10344
 Rotational constants (GHZ):           5.80129     3.42925     2.15525
 Zero-point vibrational energy      90407.0 (Joules/Mol)
                                   21.60780 (Kcal/Mol)
 Warning -- explicit consideration of   7 degrees of freedom as
           vibrations may cause significant error
 Vibrational temperatures:    134.52   190.27   331.13   598.28   699.61
          (Kelvin)            773.68   872.35   987.83  1159.82  1659.09
                             1886.31  2072.05  2281.99  2580.61  5519.40

 Zero-point correction=                           0.034434 (Hartree/Particle)
 Thermal correction to Energy=                    0.040323
 Thermal correction to Enthalpy=                  0.041268
 Thermal correction to Gibbs Free Energy=         0.003744
 Sum of electronic and zero-point Energies=           -426.893461
 Sum of electronic and thermal Energies=              -426.887572
 Sum of electronic and thermal Enthalpies=            -426.886628
 Sum of electronic and thermal Free Energies=         -426.924151

                     E (Thermal)             CV                S
                      KCal/Mol        Cal/Mol-Kelvin    Cal/Mol-Kelvin
 Total                   25.303             18.582             78.975
 Electronic               0.000              0.000              1.377
 Translational            0.889              2.981             39.565
 Rotational               0.889              2.981             26.419
 Vibrational             23.526             12.621             11.613
 Vibration     1          0.603              1.954              3.586
 Vibration     2          0.612              1.921              2.913
 Vibration     3          0.652              1.795              1.878
 Vibration     4          0.779              1.436              0.906
 Vibration     5          0.842              1.281              0.693
 Vibration     6          0.893              1.167              0.570
 Vibration     7          0.965              1.018              0.439

 Optimization completed.
    -- Stationary point found.
 Normal termination of Gaussian 16 at Sat May 24 00:02:53 2025.
