 Gaussian 16, Revision C.01,
 Gaussian 16:  ES64L-G16RevC.01  3-Jul-2019

 ----------------------------------------------------------------------
 #P iop(7/33=1) opt=calcfc freq M062X/6-31G(2df,p) scf=tight nosym scfc
 yc=6000
 ----------------------------------------------------------------------

 -------------------------------------------------------
 C2F2O2 - optimisation + frequencies (final coordinates)
 -------------------------------------------------------
 Symbolic Z-matrix:
 Charge =  0 Multiplicity = 1

 SCF Done:  E(RM062X) =  -426.194800147     A.U. after   13 cycles
 SCF Done:  E(RM062X) =  -426.211166141     A.U. after   12 cycles
 SCF Done:  E(RM062X) =  -426.211257409     A.U. after    9 cycles
 SCF Done:  E(RM062X) =  -426.211259269     A.U. after    1 cycles
 Optimization completed.
    -- Stationary point found.
 Normal termination of Gaussian 16 at Fri May 16 01:44:08 2025.

 ----------------------------------------------------------------------
 #P Geom=AllCheck Guess=TCheck SCRF=Check Test GenChk RM062X/6-31G(2df,
 p) Freq
 ----------------------------------------------------------------------

 Structure from the checkpoint file:  "gaussian_jobs/C2F2O2.chk"
 -------------------------------------------------------
 C2F2O2 - optimisation + frequencies (final coordinates)
 -------------------------------------------------------
 Charge =  0 Multiplicity = 1

                          Input orientation:
 ---------------------------------------------------------------------
 Center     Atomic      Atomic             Coordinates (Angstroms)
 Number     Number       Type             X           Y           Z
 ---------------------------------------------------------------------
      1          6           0       -0.759026   -0.102250   -0.014431
      2          8           0       -1.307090   -1.132100   -0.156341
      3          6           0        0.759027    0.102250    0.014431
      4          8           0        1.307090    1.132101    0.156337
      5          9           0        1.368039   -1.048886   -0.143654
      6          9           0       -1.368038    1.048885    0.143658
 ---------------------------------------------------------------------

 SCF Done:  E(RM062X) =  -426.211259269     A.U. after    1 cycles

 Alpha  occ. eigenvalues --  -25.31442 -25.31442 -19.69365 -19.69365 -10.75609
 Alpha  occ. eigenvalues --  -10.75577  -1.44399  -1.43513  -1.24136  -1.24099
 Alpha  occ. eigenvalues --   -0.84637  -0.74754  -0.70154  -0.65234  -0.62925
 Alpha  occ. eigenvalues --   -0.61497  -0.60779  -0.57504  -0.51288  -0.49547
 Alpha  occ. eigenvalues --   -0.48142  -0.47002  -0.40109
 Alpha virt. eigenvalues --   -0.06050   0.10005   0.18013   0.21404   0.25989
 Alpha virt. eigenvalues --    0.35476   0.39126   0.43137   0.44701   0.53561
 Alpha virt. eigenvalues --    0.55028   0.55364   0.57818   0.63316   0.65494

 Mulliken charges:
               1
     1  C    0.350307
     2  O   -0.283367
     3  C    0.350307
     4  O   -0.283367
     5  F   -0.066940
     6  F   -0.066940
 Sum of Mulliken charges =  -0.00000

 Dipole moment (field-independent basis, Debye):
    X=             -0.0000    Y=             -0.0000    Z=              0.0000  Tot=              0.0000
 Quadrupole moment (field-independent basis, Debye-Ang):
   XX=            -33.6827   YY=            -34.3186   ZZ=            -27.9083
   XY=             -2.4576   XZ=             -0.3407   YZ=             -0.9001

  Exact polarizability:      28.387       3.746      32.018       0.519       2.064      17.317
 Approx polarizability:      31.355       6.400      46.364       0.884       3.328      22.646

                      1                      2                      3
                      A                      A                      A
 Frequencies --     62.1570               247.7413               426.1807
 Red. masses --     17.3144                16.9409                17.2420
 Frc consts  --      0.0394                 0.6126                 1.8451
 IR Inten    --      1.6049                 5.0619                 0.0000

                      4                      5                      6
                      A                      A                      A
 Frequencies --    460.8554               538.2955               696.3438
 Red. masses --     13.0048                16.0118                15.5952
 Frc consts  --      1.6274                 2.7336                 4.4554
 IR Inten    --     38.9919                 0.0000                61.0137

                      7                      8                      9
                      A                      A                      A
 Frequencies --    838.8020               851.7608              1214.6931
 Red. masses --     12.3733                15.8114                14.0679
 Frc consts  --      5.1292                 6.7586                12.2296
 IR Inten    --      0.0000                 0.0000               401.9858

                     10                     11                     12
                      A                      A                      A
 Frequencies --   1372.8330              1997.6910              1999.6183
 Red. masses --     12.7332                13.3216                13.1694
 Frc consts  --     14.1391                31.3231                31.0249
 IR Inten    --      0.0000               461.6366                 0.0000

 - Thermochemistry -
 -------------------
 Temperature   298.150 Kelvin.  Pressure   1.00000 Atm.
 Atom     1 has atomic number  6 and mass  12.00000

 Molecular mass:    93.98664 amu.
 Principal axes and moments of inertia in atomic units:
                           1         2         3
     Eigenvalues --   300.34735 500.34793 800.69528
           X            0.99536   0.09622  -0.00046
           Y           -0.09538   0.98607  -0.13628
           Z           -0.01266   0.13569   0.99067
 This molecule is an asymmetric top.
 Rotational symmetry number  1.
 Rotational temperatures (Kelvin)      0.28838     0.17311     0.10817
 Rotational constants (GHZ):           6.00885     3.60697     2.25397
 Zero-point vibrational energy      64041.9 (Joules/Mol)
                                   15.30638 (Kcal/Mol)
 Warning -- explicit consideration of   5 degrees of freedom as
           vibrations may cause significant error
 Vibrational temperatures:     89.43   356.44   613.18   663.07   774.49
          (Kelvin)           1001.88  1206.85  1225.49  1747.67  1975.20
                             2874.23  2877.00

 Zero-point correction=                           0.024392 (Hartree/Particle)
 Thermal correction to Energy=                    0.029533
 Thermal correction to Enthalpy=                  0.030477
 Thermal correction to Gibbs Free Energy=        -0.005101
 Sum of electronic and zero-point Energies=           -426.186867
 Sum of electronic and thermal Energies=              -426.181726
 Sum of electronic and thermal Enthalpies=            -426.180782
 Sum of electronic and thermal Free Energies=         -426.216360

                     E (Thermal)             CV                S
                      KCal/Mol        Cal/Mol-Kelvin    Cal/Mol-Kelvin
 Total                   18.532             15.946             74.880
 Electronic               0.000              0.000              0.000
 Translational            0.889              2.981             39.533
 Rotational               0.889              2.981             26.290
 Vibrational             16.755              9.984              9.057
 Vibration     1          0.597              1.972              4.388
 Vibration     2          0.661              1.767              1.747
 Vibration     3          0.788              1.413              0.871
 Vibration     4          0.819              1.337              0.764
 Vibration     5          0.893              1.165              0.569

 Optimization completed.
    -- Stationary point found.
 Normal termination of Gaussian 16 at Fri May 16 01:46:03 2025.
 Normal termination of Gaussian 16 at Fri May 16 01:45:51 2025.
