 Gaussian 16, Revision C.01,
 Gaussian 16:  ES64L-G16RevC.01  3-Jul-2019

 ----------------------------------------------------------------------
 # opt=(maxcyc=999,noeigen) M062X/6-31G(2df,p) NOSYM int=ultrafine scf=
 (tight,xqc)
 ----------------------------------------------------------------------

 -------------------------------------------------
 C2F2O2 - M062X/6-31G(2df,p) Geometry Optimization
 -------------------------------------------------
 Symbolic Z-matrix:
 Charge =  0 Multiplicity = 1

 SCF Done:  E(RM062X) =  -426.194800147     A.U. after   13 cycles
 SCF Done:  E(RM062X) =  -426.210146669     A.U. after   12 cycles
 SCF Done:  E(RM062X) =  -426.211209982     A.U. after   11 cycles
 SCF Done:  E(RM062X) =  -426.211248427     A.U. after    9 cycles
 SCF Done:  E(RM062X) =  -426.210254206     A.U. after   12 cycles
 SCF Done:  E(RM062X) =  -426.211259057     A.U. after   10 cycles
 SCF Done:  E(RM062X) =  -426.211255735     A.U. after    9 cycles
 SCF Done:  E(RM062X) =  -426.211259132     A.U. after    9 cycles
 Optimization completed.
    -- Stationary point found.

                          Input orientation:
 ---------------------------------------------------------------------
 Center     Atomic      Atomic             Coordinates (Angstroms)
 Number     Number       Type             X           Y           Z
 ---------------------------------------------------------------------
      1          6           0       -0.758958   -0.102592   -0.014337
      2          8           0       -1.306926   -1.132502   -0.156457
      3          6           0        0.758959    0.102610    0.014212
      4          8           0        1.306927    1.132498    0.156484
      5          9           0        1.368205   -1.048554   -0.143500
      6          9           0       -1.368206    1.048539    0.143598
 ---------------------------------------------------------------------

 Alpha  occ. eigenvalues --  -25.31440 -25.31439 -19.69369 -19.69368 -10.75611
 Alpha  occ. eigenvalues --  -10.75579  -1.44394  -1.43508  -1.24136  -1.24099
 Alpha  occ. eigenvalues --   -0.84641  -0.74751  -0.70150  -0.65232  -0.62926
 Alpha  occ. eigenvalues --   -0.61494  -0.60778  -0.57502  -0.51288  -0.49547
 Alpha  occ. eigenvalues --   -0.48143  -0.47003  -0.40112
 Alpha virt. eigenvalues --   -0.06055   0.10003   0.18013   0.21402   0.25977
 Alpha virt. eigenvalues --    0.35476   0.39118   0.43136   0.44702   0.53562
 Alpha virt. eigenvalues --    0.55027   0.55366   0.57818   0.63317   0.65490

 Mulliken charges:
               1
     1  C    0.350413
     2  O   -0.283366
     3  C    0.350413
     4  O   -0.283366
     5  F   -0.067047
     6  F   -0.067047
 Sum of Mulliken charges =  -0.00000

 Dipole moment (field-independent basis, Debye):
    X=              0.0000    Y=              0.0001    Z=             -0.0003  Tot=              0.0003
 Quadrupole moment (field-independent basis, Debye-Ang):
   XX=            -33.6826   YY=            -34.3203   ZZ=            -27.9086
   XY=             -2.4559   XZ=             -0.3416   YZ=             -0.9004

 Normal termination of Gaussian 16 at Fri May 16 01:41:17 2025.
 Normal termination of Gaussian 16 at Fri May 16 01:41:14 2025.
