 Gaussian 16, Revision C.01,
 Gaussian 16:  ES64L-G16RevC.01  3-Jul-2019

 ----------------------------------------------------------------------
 #P iop(7/33=1) opt=calcfc freq M062X/6-31G(2df,p) scf=tight nosym scfc
 yc=6000
 ----------------------------------------------------------------------

 ---------------------------------------------------------
 C2F5COOH - optimisation + frequencies (final coordinates)
 ---------------------------------------------------------
 Symbolic Z-matrix:
 Charge =  0 Multiplicity = 1

 SCF Done:  E(RM062X) =  -764.354479751     A.U. after   14 cycles
 SCF Done:  E(RM062X) =  -764.370497207     A.U. after   15 cycles
 SCF Done:  E(RM062X) =  -764.370527949     A.U. after   15 cycles
 SCF Done:  E(RM062X) =  -764.370807562     A.U. after   13 cycles
 SCF Done:  E(RM062X) =  -764.370840840     A.U. after   12 cycles
 SCF Done:  E(RM062X) =  -764.370863809     A.U. after   11 cycles
 SCF Done:  E(RM062X) =  -764.370872476     A.U. after    9 cycles
 SCF Done:  E(RM062X) =  -764.370875187     A.U. after   11 cycles
 SCF Done:  E(RM062X) =  -764.370875325     A.U. after    8 cycles
 Optimization completed.
    -- Stationary point found.
 Normal termination of Gaussian 16 at Fri May 16 02:45:02 2025.

 ----------------------------------------------------------------------
 #P Geom=AllCheck Guess=TCheck SCRF=Check Test GenChk RM062X/6-31G(2df,
 p) Freq
 ----------------------------------------------------------------------

 Structure from the checkpoint file:  "gaussian_jobs/C2F5COOH.chk"
 ---------------------------------------------------------
 C2F5COOH - optimisation + frequencies (final coordinates)
 ---------------------------------------------------------
 Charge =  0 Multiplicity = 1

                          Input orientation:
 ---------------------------------------------------------------------
 Center     Atomic      Atomic             Coordinates (Angstroms)
 Number     Number       Type             X           Y           Z
 ---------------------------------------------------------------------
      1          6           0        1.205047    0.253589   -0.051965
      2          8           0        1.935773    0.653230   -0.901134
      3          6           0       -0.268815    0.679858    0.066618
      4          6           0       -1.236916   -0.468795   -0.259720
      5          9           0       -2.470195   -0.004342   -0.333058
      6          9           0       -0.901932   -1.003149   -1.425817
      7          9           0       -1.181334   -1.401151    0.673457
      8          9           0       -0.527795    1.096033    1.311420
      9          9           0       -0.501348    1.666588   -0.792132
     10          8           0        1.509894   -0.610642    0.913542
     11          1           0        2.437619   -0.861220    0.798787
 ---------------------------------------------------------------------

 SCF Done:  E(RM062X) =  -764.370875325     A.U. after    1 cycles

 Alpha  occ. eigenvalues --  -25.30211 -25.30027 -25.29970 -25.29295 -25.29134
 Alpha  occ. eigenvalues --  -19.71297 -19.66028 -10.81322 -10.75100 -10.71539
 Alpha  occ. eigenvalues --   -1.49078  -1.44093  -1.39484  -1.39243  -1.37713
 Alpha  occ. eigenvalues --   -1.27216  -1.17982  -0.91477  -0.82052  -0.76111
 Alpha  occ. eigenvalues --   -0.72430  -0.71630  -0.70839  -0.67529  -0.65840
 Alpha  occ. eigenvalues --   -0.60458  -0.59040  -0.58311  -0.58270  -0.57117
 Alpha  occ. eigenvalues --   -0.55984  -0.54970  -0.54104  -0.53759  -0.52549
 Alpha  occ. eigenvalues --   -0.52152  -0.50399  -0.45159  -0.42692  -0.38362
 Alpha virt. eigenvalues --    0.01443   0.09873   0.14888   0.19103   0.23044
 Alpha virt. eigenvalues --    0.27037   0.28461   0.30231   0.32227   0.35208
 Alpha virt. eigenvalues --    0.38120   0.40256   0.41920   0.42986   0.45846

 Mulliken charges:
               1
     1  C    0.390566
     2  O   -0.339287
     3  C    0.199500
     4  C    0.328580
     5  F   -0.093516
     6  F   -0.101954
     7  F   -0.088629
     8  F   -0.119334
     9  F   -0.101625
    10  O   -0.421265
    11  H    0.346966
 Sum of Mulliken charges =  -0.00000

 Dipole moment (field-independent basis, Debye):
    X=              1.2620    Y=             -1.2761    Z=              1.1152  Tot=              2.1130
 Quadrupole moment (field-independent basis, Debye-Ang):
   XX=            -47.9431   YY=            -51.8263   ZZ=            -53.9841
   XY=             -3.3798   XZ=              4.1039   YZ=              1.1033

  Exact polarizability:      45.191      -0.963      37.417      -1.145      -3.988      39.455
 Approx polarizability:      49.986      -0.929      46.129      -4.060      -6.620      53.324

                      1                      2                      3
                      A                      A                      A
 Frequencies --     30.7946                64.3355               146.0442
 Red. masses --     12.9585                16.9267                10.2709
 Frc consts  --      0.0072                 0.0413                 0.1291
 IR Inten    --      1.3230                 0.2368                 1.0329

                      4                      5                      6
                      A                      A                      A
 Frequencies --    211.7227               244.1769               284.5159
 Red. masses --     16.8098                12.2044                14.3747
 Frc consts  --      0.4440                 0.4287                 0.6856
 IR Inten    --      1.5278                 1.2541                 1.2187

                      7                      8                      9
                      A                      A                      A
 Frequencies --    360.9001               381.1163               387.5042
 Red. masses --     16.7221                15.3232                14.0058
 Frc consts  --      1.2833                 1.3113                 1.2391
 IR Inten    --      0.3263                 1.0643                 0.5109

                     10                     11                     12
                      A                      A                      A
 Frequencies --    497.5691               553.0961               558.5428
 Red. masses --      7.8831                14.1507                 2.2741
 Frc consts  --      1.1499                 2.5505                 0.4180
 IR Inten    --      4.9541                13.0742                24.4565

                     13                     14                     15
                      A                      A                      A
 Frequencies --    619.9592               643.7698               694.6069
 Red. masses --      6.1027                 3.1929                 4.5187
 Frc consts  --      1.3820                 0.7797                 1.2845
 IR Inten    --     16.7118                67.3988                99.1499

                     16                     17                     18
                      A                      A                      A
 Frequencies --    794.3330               803.6060              1073.7235
 Red. masses --     11.0964                 9.0101                11.5862
 Frc consts  --      4.1251                 3.4282                 7.8700
 IR Inten    --      5.4245                20.4295               114.6236

                     19                     20                     21
                      A                      A                      A
 Frequencies --   1195.5114              1247.5181              1300.7895
 Red. masses --      2.7687                 4.4204                10.9406
 Frc consts  --      2.3315                 4.0532                10.9070
 IR Inten    --    236.0283               148.9864                37.2438

                     22                     23                     24
                      A                      A                      A
 Frequencies --   1322.8178              1324.3281              1407.7452
 Red. masses --      8.5087                13.0407                 7.3989
 Frc consts  --      8.7723                13.4754                 8.6390
 IR Inten    --    157.1587               294.5472               122.3477

                     25                     26                     27
                      A                      A                      A
 Frequencies --   1452.6859              1947.3138              3814.4609
 Red. masses --      5.7015                11.7441                 1.0645
 Frc consts  --      7.0890                26.2386                 9.1254
 IR Inten    --     42.2266               286.9910               114.9675

 - Thermochemistry -
 -------------------
 Temperature   298.150 Kelvin.  Pressure   1.00000 Atm.
 Atom     1 has atomic number  6 and mass  12.00000

 Molecular mass:   163.98967 amu.
 Principal axes and moments of inertia in atomic units:
                           1         2         3
     Eigenvalues --   942.347641494.306351597.87540
           X            0.96708  -0.21434  -0.13719
           Y            0.24454   0.93190   0.26788
           Z            0.07043  -0.29261   0.95363
 This molecule is an asymmetric top.
 Rotational symmetry number  1.
 Warning -- assumption of classical behavior for rotation
           may cause significant error
 Rotational temperatures (Kelvin)      0.09191     0.05796     0.05421
 Rotational constants (GHZ):           1.91515     1.20775     1.12946
 Zero-point vibrational energy     139744.7 (Joules/Mol)
                                   33.39978 (Kcal/Mol)
 Warning -- explicit consideration of  13 degrees of freedom as
           vibrations may cause significant error
 Vibrational temperatures:     44.31    92.56   210.13   304.62   351.32
          (Kelvin)            409.35   519.25   548.34   557.53   715.89
                              795.78   803.62   891.98   926.24   999.38
                             1142.87  1156.21  1544.85  1720.07  1794.90
                             1871.55  1903.24  1905.41  2025.43  2090.09
                             2801.75  5488.16

 Zero-point correction=                           0.053226 (Hartree/Particle)
 Thermal correction to Energy=                    0.062127
 Thermal correction to Enthalpy=                  0.063071
 Thermal correction to Gibbs Free Energy=         0.017842
 Sum of electronic and zero-point Energies=           -764.317649
 Sum of electronic and thermal Energies=              -764.308748
 Sum of electronic and thermal Enthalpies=            -764.307804
 Sum of electronic and thermal Free Energies=         -764.353033

                     E (Thermal)             CV                S
                      KCal/Mol        Cal/Mol-Kelvin    Cal/Mol-Kelvin
 Total                   38.985             30.580             95.192
 Electronic               0.000              0.000              0.000
 Translational            0.889              2.981             41.192
 Rotational               0.889              2.981             29.199
 Vibrational             37.208             24.618             24.800
 Vibration     1          0.594              1.984              5.778
 Vibration     2          0.597              1.971              4.320
 Vibration     3          0.617              1.907              2.723
 Vibration     4          0.643              1.823              2.029
 Vibration     5          0.660              1.772              1.772
 Vibration     6          0.683              1.702              1.506
 Vibration     7          0.735              1.553              1.118
 Vibration     8          0.751              1.510              1.035
 Vibration     9          0.756              1.497              1.010
 Vibration    10          0.853              1.255              0.664
 Vibration    11          0.908              1.133              0.538
 Vibration    12          0.914              1.121              0.527
 Vibration    13          0.980              0.990              0.417

 Optimization completed.
    -- Stationary point found.
 Normal termination of Gaussian 16 at Fri May 16 02:59:24 2025.
 Normal termination of Gaussian 16 at Fri May 16 02:41:35 2025.
