 Gaussian 16, Revision C.01,
 Gaussian 16:  ES64L-G16RevC.01  3-Jul-2019

 ----------------------------------------------------------------------
 # opt=(maxcyc=999,noeigen) M062X/6-31G(2df,p) NOSYM int=ultrafine scf=
 (tight,xqc)
 ----------------------------------------------------------------------

 ---------------------------------------------------
 C2F5COOH - M062X/6-31G(2df,p) Geometry Optimization
 ---------------------------------------------------
 Symbolic Z-matrix:
 Charge =  0 Multiplicity = 1

 SCF Done:  E(RM062X) =  -764.354479751     A.U. after   14 cycles
 SCF Done:  E(RM062X) =  -764.369659991     A.U. after   14 cycles
 SCF Done:  E(RM062X) =  -764.370206115     A.U. after   13 cycles
 SCF Done:  E(RM062X) =  -764.369921821     A.U. after   12 cycles
 SCF Done:  E(RM062X) =  -764.370524196     A.U. after   13 cycles
 SCF Done:  E(RM062X) =  -764.370558407     A.U. after   11 cycles
 SCF Done:  E(RM062X) =  -764.370608288     A.U. after   12 cycles
 SCF Done:  E(RM062X) =  -764.370627211     A.U. after   13 cycles
 SCF Done:  E(RM062X) =  -764.370652282     A.U. after   12 cycles
 SCF Done:  E(RM062X) =  -764.370787471     A.U. after   14 cycles
 SCF Done:  E(RM062X) =  -764.370782530     A.U. after   13 cycles
 SCF Done:  E(RM062X) =  -764.370853907     A.U. after   13 cycles
 SCF Done:  E(RM062X) =  -764.370771364     A.U. after   14 cycles
 SCF Done:  E(RM062X) =  -764.370836325     A.U. after   14 cycles
 SCF Done:  E(RM062X) =  -764.370872820     A.U. after   12 cycles
 SCF Done:  E(RM062X) =  -764.370874349     A.U. after   11 cycles
 SCF Done:  E(RM062X) =  -764.370873315     A.U. after   11 cycles
 SCF Done:  E(RM062X) =  -764.370875168     A.U. after   11 cycles
 SCF Done:  E(RM062X) =  -764.370875289     A.U. after    8 cycles
 Optimization completed.
    -- Stationary point found.

                          Input orientation:
 ---------------------------------------------------------------------
 Center     Atomic      Atomic             Coordinates (Angstroms)
 Number     Number       Type             X           Y           Z
 ---------------------------------------------------------------------
      1          6           0        1.205318    0.252133   -0.051696
      2          8           0        1.936677    0.649544   -0.901385
      3          6           0       -0.268105    0.680205    0.065806
      4          6           0       -1.237299   -0.467713   -0.259907
      5          9           0       -2.470072   -0.002041   -0.333982
      6          9           0       -0.902523   -1.003317   -1.425470
      7          9           0       -1.182964   -1.399395    0.674036
      8          9           0       -0.527221    1.097809    1.310108
      9          9           0       -0.499262    1.666332   -0.793950
     10          8           0        1.508995   -0.610861    0.915285
     11          1           0        2.436457   -0.862696    0.801154
 ---------------------------------------------------------------------

 Alpha  occ. eigenvalues --  -25.30211 -25.30027 -25.29970 -25.29294 -25.29135
 Alpha  occ. eigenvalues --  -19.71297 -19.66028 -10.81322 -10.75100 -10.71539
 Alpha  occ. eigenvalues --   -1.49078  -1.44094  -1.39484  -1.39243  -1.37713
 Alpha  occ. eigenvalues --   -1.27215  -1.17981  -0.91477  -0.82052  -0.76112
 Alpha  occ. eigenvalues --   -0.72430  -0.71630  -0.70839  -0.67530  -0.65840
 Alpha  occ. eigenvalues --   -0.60458  -0.59040  -0.58310  -0.58270  -0.57117
 Alpha  occ. eigenvalues --   -0.55984  -0.54971  -0.54105  -0.53759  -0.52550
 Alpha  occ. eigenvalues --   -0.52152  -0.50400  -0.45158  -0.42692  -0.38362
 Alpha virt. eigenvalues --    0.01442   0.09873   0.14890   0.19106   0.23041
 Alpha virt. eigenvalues --    0.27037   0.28461   0.30227   0.32228   0.35209
 Alpha virt. eigenvalues --    0.38121   0.40256   0.41920   0.42986   0.45848

 Mulliken charges:
               1
     1  C    0.390515
     2  O   -0.339290
     3  C    0.199522
     4  C    0.328576
     5  F   -0.093517
     6  F   -0.101935
     7  F   -0.088652
     8  F   -0.119335
     9  F   -0.101592
    10  O   -0.421260
    11  H    0.346969
 Sum of Mulliken charges =  -0.00000

 Dipole moment (field-independent basis, Debye):
    X=              1.2604    Y=             -1.2755    Z=              1.1175  Tot=              2.1129
 Quadrupole moment (field-independent basis, Debye-Ang):
   XX=            -47.9528   YY=            -51.8146   ZZ=            -53.9849
   XY=             -3.3778   XZ=              4.1131   YZ=              1.0939

 Normal termination of Gaussian 16 at Fri May 16 02:17:02 2025.
 Normal termination of Gaussian 16 at Fri May 16 02:09:00 2025.
