 Gaussian 16, Revision C.01,
 Gaussian 16:  ES64L-G16RevC.01  3-Jul-2019

 ----------------------------------------------------------------------
 # opt=(maxcyc=999,noeigen) wb97xd/aug-cc-pVTZ NOSYM int=superfine scf=
 (verytight,xqc)
 ----------------------------------------------------------------------

 C2F5SO3H - wb97xd/6-311++G(d,p) Geometry Optimization (verytight, supe
 rfine)
 ----------------------------------------------------------------------
 Symbolic Z-matrix:
 Charge =  0 Multiplicity = 1

 SCF Done:  E(RwB97XD) =  -1199.92709423     A.U. after   13 cycles
 SCF Done:  E(RwB97XD) =  -1199.94551515     A.U. after   12 cycles
 SCF Done:  E(RwB97XD) =  -1199.94746473     A.U. after   11 cycles
 SCF Done:  E(RwB97XD) =  -1199.94783646     A.U. after   10 cycles
 SCF Done:  E(RwB97XD) =  -1199.94814201     A.U. after   10 cycles
 SCF Done:  E(RwB97XD) =  -1199.94850367     A.U. after   10 cycles
 SCF Done:  E(RwB97XD) =  -1199.94865126     A.U. after   10 cycles
 SCF Done:  E(RwB97XD) =  -1199.94866666     A.U. after    8 cycles
 SCF Done:  E(RwB97XD) =  -1199.94867341     A.U. after    9 cycles
 SCF Done:  E(RwB97XD) =  -1199.94867423     A.U. after    8 cycles
 SCF Done:  E(RwB97XD) =  -1199.94867428     A.U. after    6 cycles
 Optimization completed.
    -- Stationary point found.

                          Input orientation:
 ---------------------------------------------------------------------
 Center     Atomic      Atomic             Coordinates (Angstroms)
 Number     Number       Type             X           Y           Z
 ---------------------------------------------------------------------
      1          6           0        1.555052    0.039000    0.267929
      2          6           0        0.293626   -0.511573   -0.459659
      3          9           0        0.243679    0.001773   -1.693467
      4          9           0        0.384623   -1.836271   -0.535754
      5         16           0       -1.342513   -0.129216    0.369621
      6          8           0       -2.329560   -0.850423   -0.374374
      7          8           0       -1.171240   -0.254064    1.777756
      8          8           0       -1.480298    1.420007    0.047254
      9          9           0        1.434566    1.342306    0.482318
     10          9           0        1.738309   -0.581904    1.418841
     11          9           0        2.614677   -0.170498   -0.506645
     12          1           0       -1.940921    1.530864   -0.793818
 ---------------------------------------------------------------------

 Alpha  occ. eigenvalues --  -89.32530 -24.89445 -24.89161 -24.88619 -24.88427
 Alpha  occ. eigenvalues --  -24.88399 -19.35857 -19.29782 -19.29635 -10.58758
 Alpha  occ. eigenvalues --  -10.54041  -8.30449  -6.25496  -6.25253  -6.25167
 Alpha  occ. eigenvalues --   -1.47406  -1.44041  -1.38541  -1.37714  -1.37441
 Alpha  occ. eigenvalues --   -1.30606  -1.19687  -1.16831  -0.92883  -0.84399
 Alpha  occ. eigenvalues --   -0.79667  -0.75626  -0.74416  -0.74004  -0.71875
 Alpha  occ. eigenvalues --   -0.70536  -0.65339  -0.62153  -0.61882  -0.60401
 Alpha  occ. eigenvalues --   -0.60295  -0.59141  -0.58614  -0.57228  -0.56537
 Alpha  occ. eigenvalues --   -0.56276  -0.55308  -0.54105  -0.52008  -0.50343
 Alpha  occ. eigenvalues --   -0.48071  -0.46326  -0.44384  -0.43455
 Alpha virt. eigenvalues --    0.02192   0.05864   0.06251   0.06627   0.07647
 Alpha virt. eigenvalues --    0.08484   0.08964   0.09455   0.09639   0.10339
 Alpha virt. eigenvalues --    0.10537   0.10944   0.12180   0.13246   0.14017

 Mulliken charges:
               1
     1  C    1.124830
     2  C    0.834964
     3  F   -0.443944
     4  F   -0.427008
     5  S    2.090569
     6  O   -0.871434
     7  O   -0.876438
     8  O   -0.475602
     9  F   -0.380280
    10  F   -0.363599
    11  F   -0.361826
    12  H    0.149769
 Sum of Mulliken charges =  -0.00000

 Dipole moment (field-independent basis, Debye):
    X=              0.1889    Y=              1.7806    Z=             -2.0353  Tot=              2.7108
 Quadrupole moment (field-independent basis, Debye-Ang):
   XX=            -66.4536   YY=            -65.0234   ZZ=            -68.3163
   XY=             -5.3454   XZ=              3.1941   YZ=             -2.5497

 Normal termination of Gaussian 16 at Thu May 22 22:35:29 2025.
