 Gaussian 16, Revision C.01,
 Gaussian 16:  ES64L-G16RevC.01  3-Jul-2019

 ----------------------------------------------------------------------
 # opt=(maxcyc=999,noeigen) M062X/6-31G(2df,p) NOSYM int=ultrafine scf=
 (tight,xqc)
 ----------------------------------------------------------------------

 --------------------------------------------------
 CF3SO3H - M062X/6-31G(2df,p) Geometry Optimization
 --------------------------------------------------
 Symbolic Z-matrix:
 Charge =  0 Multiplicity = 1

 SCF Done:  E(RM062X) =  -961.842110155     A.U. after   14 cycles
 SCF Done:  E(RM062X) =  -961.859630984     A.U. after   13 cycles
 SCF Done:  E(RM062X) =  -961.860953427     A.U. after   13 cycles
 SCF Done:  E(RM062X) =  -961.861185015     A.U. after   10 cycles
 SCF Done:  E(RM062X) =  -961.861420183     A.U. after   11 cycles
 SCF Done:  E(RM062X) =  -961.861581307     A.U. after   11 cycles
 SCF Done:  E(RM062X) =  -961.861655659     A.U. after   11 cycles
 SCF Done:  E(RM062X) =  -961.861700697     A.U. after   10 cycles
 SCF Done:  E(RM062X) =  -961.861710508     A.U. after    9 cycles
 SCF Done:  E(RM062X) =  -961.861710832     A.U. after    7 cycles
 Optimization completed.
    -- Stationary point found.

                          Input orientation:
 ---------------------------------------------------------------------
 Center     Atomic      Atomic             Coordinates (Angstroms)
 Number     Number       Type             X           Y           Z
 ---------------------------------------------------------------------
      1          6           0       -1.018960   -0.172486   -0.290986
      2          9           0       -1.091270    0.011598   -1.590161
      3          9           0       -1.527641    0.873165    0.335196
      4          9           0       -1.677933   -1.258639    0.048126
      5         16           0        0.732689   -0.367934    0.212583
      6          8           0        0.750802   -0.446825    1.633729
      7          8           0        1.311929   -1.336688   -0.642486
      8          8           0        1.273242    1.049037   -0.232687
      9          1           0        1.247144    1.648770    0.526687
 ---------------------------------------------------------------------

 Alpha  occ. eigenvalues --  -90.17652 -25.31852 -25.31651 -25.31616 -19.72540
 Alpha  occ. eigenvalues --  -19.66587 -19.66373 -10.83408  -8.48861  -6.41137
 Alpha  occ. eigenvalues --   -6.40918  -6.40859  -1.50493  -1.40983  -1.40922
 Alpha  occ. eigenvalues --   -1.31650  -1.20350  -1.17476  -0.87910  -0.79183
 Alpha  occ. eigenvalues --   -0.73470  -0.72559  -0.72137  -0.64115  -0.60995
 Alpha  occ. eigenvalues --   -0.59773  -0.58891  -0.57970  -0.56180  -0.56109
 Alpha  occ. eigenvalues --   -0.54340  -0.53861  -0.48707  -0.45820  -0.43972
 Alpha  occ. eigenvalues --   -0.41869  -0.40942
 Alpha virt. eigenvalues --    0.07223   0.09173   0.12427   0.13068   0.14884
 Alpha virt. eigenvalues --    0.23653   0.25581   0.27869   0.29464   0.31634
 Alpha virt. eigenvalues --    0.33279   0.36869   0.44022   0.45306   0.46761

 Mulliken charges:
               1
     1  C    0.304196
     2  F   -0.084033
     3  F   -0.102702
     4  F   -0.086838
     5  S    0.550253
     6  O   -0.307047
     7  O   -0.270367
     8  O   -0.373558
     9  H    0.370097
 Sum of Mulliken charges =  -0.00000

 Dipole moment (field-independent basis, Debye):
    X=             -0.6541    Y=              2.7096    Z=              0.3122  Tot=              2.8048
 Quadrupole moment (field-independent basis, Debye-Ang):
   XX=            -48.8393   YY=            -46.7452   ZZ=            -52.1177
   XY=              4.1309   XZ=              1.7444   YZ=              1.8521

 Normal termination of Gaussian 16 at Fri May 16 03:21:56 2025.
 Normal termination of Gaussian 16 at Fri May 16 03:16:10 2025.
