 Gaussian 16, Revision C.01,
 Gaussian 16:  ES64L-G16RevC.01  3-Jul-2019

 ----------------------------------------------------------------------
 #P iop(7/33=1) opt=calcfc freq M062X/6-31G(2df,p) scf=tight nosym scfc
 yc=6000
 ----------------------------------------------------------------------

 --------------------------------------------------------
 CF3SO3H - optimisation + frequencies (final coordinates)
 --------------------------------------------------------
 Symbolic Z-matrix:
 Charge =  0 Multiplicity = 1

 SCF Done:  E(RM062X) =  -961.842110155     A.U. after   14 cycles
 SCF Done:  E(RM062X) =  -961.860777906     A.U. after   13 cycles
 SCF Done:  E(RM062X) =  -961.861638358     A.U. after   14 cycles
 SCF Done:  E(RM062X) =  -961.861705972     A.U. after   11 cycles
 SCF Done:  E(RM062X) =  -961.861710557     A.U. after    8 cycles
 SCF Done:  E(RM062X) =  -961.861710803     A.U. after    8 cycles
 SCF Done:  E(RM062X) =  -961.861710855     A.U. after    7 cycles
 Optimization completed.
    -- Stationary point found.
 Normal termination of Gaussian 16 at Fri May 16 03:32:07 2025.

 ----------------------------------------------------------------------
 #P Geom=AllCheck Guess=TCheck SCRF=Check Test GenChk RM062X/6-31G(2df,
 p) Freq
 ----------------------------------------------------------------------

 Structure from the checkpoint file:  "gaussian_jobs/CF3SO3H.chk"
 --------------------------------------------------------
 CF3SO3H - optimisation + frequencies (final coordinates)
 --------------------------------------------------------
 Charge =  0 Multiplicity = 1

                          Input orientation:
 ---------------------------------------------------------------------
 Center     Atomic      Atomic             Coordinates (Angstroms)
 Number     Number       Type             X           Y           Z
 ---------------------------------------------------------------------
      1          6           0       -1.019161   -0.172190   -0.290784
      2          9           0       -1.091836    0.012473   -1.589885
      3          9           0       -1.527386    0.873224    0.336248
      4          9           0       -1.678039   -1.258453    0.048100
      5         16           0        0.732594   -0.368126    0.212193
      6          8           0        0.751221   -0.447352    1.633303
      7          8           0        1.311509   -1.336591   -0.643352
      8          8           0        1.273216    1.048857   -0.232783
      9          1           0        1.247882    1.648155    0.526961
 ---------------------------------------------------------------------

 SCF Done:  E(RM062X) =  -961.861710855     A.U. after    1 cycles

 Alpha  occ. eigenvalues --  -90.17650 -25.31853 -25.31653 -25.31618 -19.72537
 Alpha  occ. eigenvalues --  -19.66586 -19.66371 -10.83409  -8.48859  -6.41136
 Alpha  occ. eigenvalues --   -6.40916  -6.40857  -1.50492  -1.40984  -1.40924
 Alpha  occ. eigenvalues --   -1.31652  -1.20349  -1.17477  -0.87911  -0.79182
 Alpha  occ. eigenvalues --   -0.73469  -0.72560  -0.72136  -0.64115  -0.60996
 Alpha  occ. eigenvalues --   -0.59773  -0.58891  -0.57970  -0.56182  -0.56110
 Alpha  occ. eigenvalues --   -0.54340  -0.53862  -0.48706  -0.45818  -0.43972
 Alpha  occ. eigenvalues --   -0.41869  -0.40942
 Alpha virt. eigenvalues --    0.07226   0.09171   0.12429   0.13072   0.14890
 Alpha virt. eigenvalues --    0.23648   0.25579   0.27872   0.29464   0.31633
 Alpha virt. eigenvalues --    0.33277   0.36870   0.44022   0.45307   0.46762

 Mulliken charges:
               1
     1  C    0.304299
     2  F   -0.084062
     3  F   -0.102742
     4  F   -0.086830
     5  S    0.550171
     6  O   -0.307065
     7  O   -0.270332
     8  O   -0.373528
     9  H    0.370089
 Sum of Mulliken charges =   0.00000

 Dipole moment (field-independent basis, Debye):
    X=             -0.6539    Y=              2.7088    Z=              0.3132  Tot=              2.8041
 Quadrupole moment (field-independent basis, Debye-Ang):
   XX=            -48.8347   YY=            -46.7488   ZZ=            -52.1171
   XY=              4.1319   XZ=              1.7461   YZ=              1.8521

  Exact polarizability:      39.287       0.038      38.627       0.720       1.371      38.320
 Approx polarizability:      44.997      -0.728      50.283      -1.808       2.693      53.524

                      1                      2                      3
                      A                      A                      A
 Frequencies --     56.8405               182.2884               187.8267
 Red. masses --     13.3882                 6.3557                16.7146
 Frc consts  --      0.0255                 0.1244                 0.3474
 IR Inten    --      1.3478                11.0177                 2.8166

                      4                      5                      6
                      A                      A                      A
 Frequencies --    305.1342               311.4405               340.9236
 Red. masses --      2.1632                12.4346                13.7198
 Frc consts  --      0.1187                 0.7106                 0.9395
 IR Inten    --     37.2098                 8.4808                 2.1717

                      7                      8                      9
                      A                      A                      A
 Frequencies --    362.2905               464.6967               502.4966
 Red. masses --      2.8557                 4.4995                14.6813
 Frc consts  --      0.2208                 0.5725                 2.1841
 IR Inten    --     33.5318                24.4806                25.1727

                     10                     11                     12
                      A                      A                      A
 Frequencies --    572.9302               577.3999               629.0938
 Red. masses --     16.0168                16.3902                19.6669
 Frc consts  --      3.0976                 3.2195                 4.5858
 IR Inten    --      0.7968                 1.5565               146.6010

                     13                     14                     15
                      A                      A                      A
 Frequencies --    801.4885               900.3846              1150.0753
 Red. masses --     17.4360                18.0320                 1.1892
 Frc consts  --      6.5992                 8.6129                 0.9267
 IR Inten    --      6.4462               195.3457                84.8531

                     16                     17                     18
                      A                      A                      A
 Frequencies --   1203.5352              1302.1849              1321.8021
 Red. masses --     14.7220                14.9131                13.5587
 Frc consts  --     12.5642                14.8992                13.9572
 IR Inten    --    245.9572                33.8456               183.2626

                     19                     20                     21
                      A                      A                      A
 Frequencies --   1334.8702              1505.1667              3822.2228
 Red. masses --     13.2088                14.7990                 1.0655
 Frc consts  --     13.8673                19.7538                 9.1714
 IR Inten    --    239.8983               254.5246               172.8547

 - Thermochemistry -
 -------------------
 Temperature   298.150 Kelvin.  Pressure   1.00000 Atm.
 Atom     1 has atomic number  6 and mass  12.00000

 Molecular mass:   149.95985 amu.
 Principal axes and moments of inertia in atomic units:
                           1         2         3
     Eigenvalues --   675.340001123.135111131.20594
           X            0.96545  -0.13566  -0.22251
           Y           -0.04070   0.76488  -0.64288
           Z            0.25741   0.62973   0.73293
 This molecule is an asymmetric top.
 Rotational symmetry number  1.
 Warning -- assumption of classical behavior for rotation
           may cause significant error
 Rotational temperatures (Kelvin)      0.12825     0.07712     0.07657
 Rotational constants (GHZ):           2.67234     1.60688     1.59541
 Zero-point vibrational energy     106677.5 (Joules/Mol)
                                   25.49654 (Kcal/Mol)
 Warning -- explicit consideration of  11 degrees of freedom as
           vibrations may cause significant error
 Vibrational temperatures:     81.78   262.27   270.24   439.02   448.09
          (Kelvin)            490.51   521.26   668.59   722.98   824.32
                              830.75   905.13  1153.16  1295.45  1654.70
                             1731.62  1873.55  1901.78  1920.58  2165.60
                             5499.33

 Zero-point correction=                           0.040631 (Hartree/Particle)
 Thermal correction to Energy=                    0.048164
 Thermal correction to Enthalpy=                  0.049108
 Thermal correction to Gibbs Free Energy=         0.007930
 Sum of electronic and zero-point Energies=           -961.821080
 Sum of electronic and thermal Energies=              -961.813547
 Sum of electronic and thermal Enthalpies=            -961.812602
 Sum of electronic and thermal Free Energies=         -961.853781

                     E (Thermal)             CV                S
                      KCal/Mol        Cal/Mol-Kelvin    Cal/Mol-Kelvin
 Total                   30.224             25.910             86.668
 Electronic               0.000              0.000              0.000
 Translational            0.889              2.981             40.926
 Rotational               0.889              2.981             28.241
 Vibrational             28.446             19.949             17.501
 Vibration     1          0.596              1.975              4.564
 Vibration     2          0.630              1.864              2.305
 Vibration     3          0.633              1.857              2.249
 Vibration     4          0.696              1.664              1.389
 Vibration     5          0.700              1.652              1.355
 Vibration     6          0.720              1.594              1.208
 Vibration     7          0.736              1.550              1.112
 Vibration     8          0.822              1.328              0.753
 Vibration     9          0.858              1.244              0.652
 Vibration    10          0.929              1.090              0.499
 Vibration    11          0.934              1.080              0.490

 Optimization completed.
    -- Stationary point found.
 Normal termination of Gaussian 16 at Fri May 16 03:37:52 2025.
 Normal termination of Gaussian 16 at Fri May 16 03:32:22 2025.
