 Gaussian 16, Revision C.01,
 Gaussian 16:  ES64L-G16RevC.01  3-Jul-2019

 ----------------------------------------------------------------------
 #P iop(7/33=1) opt=calcfc freq M062X/6-31G(2df,p) scf=tight nosym scfc
 yc=6000
 ----------------------------------------------------------------------

 ------------------------------------------------------
 FCOOH - optimisation + frequencies (final coordinates)
 ------------------------------------------------------
 Symbolic Z-matrix:
 Charge =  0 Multiplicity = 1

 SCF Done:  E(RM062X) =  -288.918633790     A.U. after   14 cycles
 SCF Done:  E(RM062X) =  -288.928824916     A.U. after   13 cycles
 SCF Done:  E(RM062X) =  -288.929059872     A.U. after   11 cycles
 SCF Done:  E(RM062X) =  -288.929063571     A.U. after    8 cycles
 Optimization completed.
    -- Stationary point found.
 Normal termination of Gaussian 16 at Fri May 16 01:42:39 2025.

 ----------------------------------------------------------------------
 #P Geom=AllCheck Guess=TCheck SCRF=Check Test GenChk RM062X/6-31G(2df,
 p) Freq
 ----------------------------------------------------------------------

 Structure from the checkpoint file:  "gaussian_jobs/FCOOH.chk"
 ------------------------------------------------------
 FCOOH - optimisation + frequencies (final coordinates)
 ------------------------------------------------------
 Charge =  0 Multiplicity = 1

                          Input orientation:
 ---------------------------------------------------------------------
 Center     Atomic      Atomic             Coordinates (Angstroms)
 Number     Number       Type             X           Y           Z
 ---------------------------------------------------------------------
      1          6           0       -0.365951    0.100877    0.006600
      2          8           0       -0.447276    1.280213   -0.039783
      3          8           0        0.732112   -0.642779    0.004423
      4          9           0       -1.400306   -0.701680    0.070974
      5          1           0        1.481422   -0.036631   -0.042213
 ---------------------------------------------------------------------

 SCF Done:  E(RM062X) =  -288.929063571     A.U. after    1 cycles

 Alpha  occ. eigenvalues --  -25.29108 -19.70891 -19.64509 -10.76210  -1.42479
 Alpha  occ. eigenvalues --   -1.25293  -1.17935  -0.77656  -0.67507  -0.62834
 Alpha  occ. eigenvalues --   -0.60920  -0.54456  -0.51716  -0.50212  -0.42080
 Alpha  occ. eigenvalues --   -0.39921
 Alpha virt. eigenvalues --    0.07428   0.10060   0.21288   0.34542   0.38837
 Alpha virt. eigenvalues --    0.42417   0.47484   0.48423   0.62281   0.68054
 Alpha virt. eigenvalues --    0.75458   0.77550   0.78775   0.84612   0.89002

 Mulliken charges:
               1
     1  C    0.548947
     2  O   -0.392832
     3  O   -0.419726
     4  F   -0.092849
     5  H    0.356461
 Sum of Mulliken charges =  -0.00000

 Dipole moment (field-independent basis, Debye):
    X=              1.9981    Y=             -0.6163    Z=             -0.0329  Tot=              2.0913
 Quadrupole moment (field-independent basis, Debye-Ang):
   XX=            -18.4169   YY=            -24.9619   ZZ=            -19.9336
   XY=              1.4992   XZ=             -0.1046   YZ=              0.1638

  Exact polarizability:      19.927      -0.455      20.770      -0.215      -0.342      12.166
 Approx polarizability:      22.644      -0.385      27.798      -0.215      -0.521      14.917

                      1                      2                      3
                      A                      A                      A
 Frequencies --    570.3864               580.3519               632.6033
 Red. masses --      5.5339                 1.1207                10.9088
 Frc consts  --      1.0608                 0.2224                 2.5721
 IR Inten    --     12.5903               107.0351                19.3986

                      4                      5                      6
                      A                      A                      A
 Frequencies --    820.1040              1019.2860              1235.7128
 Red. masses --     12.1552                 6.6770                 1.8920
 Frc consts  --      4.8167                 4.0872                 1.7022
 IR Inten    --     45.7564                38.2288               280.7522

                      7                      8                      9
                      A                      A                      A
 Frequencies --   1448.1334              1981.6489              3862.0282
 Red. masses --      3.5128                11.9175                 1.0651
 Frc consts  --      4.3403                27.5732                 9.3602
 IR Inten    --    202.0720               486.5681               118.2742

 - Thermochemistry -
 -------------------
 Temperature   298.150 Kelvin.  Pressure   1.00000 Atm.
 Atom     1 has atomic number  6 and mass  12.00000

 Molecular mass:    63.99606 amu.
 Principal axes and moments of inertia in atomic units:
                           1         2         3
     Eigenvalues --   149.47013 155.76530 305.23543
           X            0.85960  -0.51010   0.02998
           Y            0.50882   0.85988   0.04137
           Z           -0.04689  -0.02031   0.99869
 This molecule is an asymmetric top.
 Rotational symmetry number  1.
 Rotational temperatures (Kelvin)      0.57947     0.55605     0.28376
 Rotational constants (GHZ):          12.07426    11.58629     5.91262
 Zero-point vibrational energy      72674.7 (Joules/Mol)
                                   17.36966 (Kcal/Mol)
 Warning -- explicit consideration of   2 degrees of freedom as
           vibrations may cause significant error
 Vibrational temperatures:    820.66   835.00   910.18  1179.95  1466.53
          (Kelvin)           1777.92  2083.54  2851.15  5556.60

 Zero-point correction=                           0.027680 (Hartree/Particle)
 Thermal correction to Energy=                    0.031132
 Thermal correction to Enthalpy=                  0.032076
 Thermal correction to Gibbs Free Energy=         0.001867
 Sum of electronic and zero-point Energies=           -288.901383
 Sum of electronic and thermal Energies=              -288.897931
 Sum of electronic and thermal Enthalpies=            -288.896987
 Sum of electronic and thermal Free Energies=         -288.927197

                     E (Thermal)             CV                S
                      KCal/Mol        Cal/Mol-Kelvin    Cal/Mol-Kelvin
 Total                   19.536             10.354             63.581
 Electronic               0.000              0.000              0.000
 Translational            0.889              2.981             38.388
 Rotational               0.889              2.981             23.478
 Vibrational             17.758              4.393              1.715
 Vibration     1          0.926              1.095              0.503
 Vibration     2          0.937              1.074              0.485

 Optimization completed.
    -- Stationary point found.
 Normal termination of Gaussian 16 at Fri May 16 01:44:27 2025.
