 Gaussian 16, Revision C.01,
 Gaussian 16:  ES64L-G16RevC.01  3-Jul-2019

 ----------------------------------------------------------------------
 # opt=(maxcyc=999,noeigen) M062X/6-31G(2df,p) NOSYM int=ultrafine scf=
 (tight,xqc)
 ----------------------------------------------------------------------

 ------------------------------------------------
 FCOOH - M062X/6-31G(2df,p) Geometry Optimization
 ------------------------------------------------
 Symbolic Z-matrix:
 Charge =  0 Multiplicity = 1

 SCF Done:  E(RM062X) =  -288.918633790     A.U. after   14 cycles
 SCF Done:  E(RM062X) =  -288.928526136     A.U. after   13 cycles
 SCF Done:  E(RM062X) =  -288.929036234     A.U. after   11 cycles
 SCF Done:  E(RM062X) =  -288.929062321     A.U. after    8 cycles
 SCF Done:  E(RM062X) =  -288.929062953     A.U. after    8 cycles
 SCF Done:  E(RM062X) =  -288.929063151     A.U. after    8 cycles
 Optimization completed.
    -- Stationary point found.

                          Input orientation:
 ---------------------------------------------------------------------
 Center     Atomic      Atomic             Coordinates (Angstroms)
 Number     Number       Type             X           Y           Z
 ---------------------------------------------------------------------
      1          6           0       -0.365645    0.101271    0.007122
      2          8           0       -0.446782    1.280317   -0.040011
      3          8           0        0.731973   -0.643132    0.004456
      4          9           0       -1.400700   -0.701533    0.070748
      5          1           0        1.481153   -0.036923   -0.042315
 ---------------------------------------------------------------------

 Alpha  occ. eigenvalues --  -25.29088 -19.70897 -19.64525 -10.76213  -1.42438
 Alpha  occ. eigenvalues --   -1.25301  -1.17957  -0.77642  -0.67484  -0.62815
 Alpha  occ. eigenvalues --   -0.60926  -0.54444  -0.51725  -0.50211  -0.42095
 Alpha  occ. eigenvalues --   -0.39937
 Alpha virt. eigenvalues --    0.07424   0.10058   0.21278   0.34507   0.38830
 Alpha virt. eigenvalues --    0.42417   0.47480   0.48425   0.62303   0.68047
 Alpha virt. eigenvalues --    0.75445   0.77549   0.78784   0.84604   0.89000

 Mulliken charges:
               1
     1  C    0.549167
     2  O   -0.392397
     3  O   -0.419581
     4  F   -0.093584
     5  H    0.356395
 Sum of Mulliken charges =   0.00000

 Dipole moment (field-independent basis, Debye):
    X=              2.0000    Y=             -0.6123    Z=             -0.0314  Tot=              2.0918
 Quadrupole moment (field-independent basis, Debye-Ang):
   XX=            -18.4220   YY=            -24.9605   ZZ=            -19.9334
   XY=              1.4938   XZ=             -0.1059   YZ=              0.1642

 Normal termination of Gaussian 16 at Fri May 16 01:39:51 2025.
