 Gaussian 16, Revision C.01,
 Gaussian 16:  ES64L-G16RevC.01  3-Jul-2019

 ----------------------------------------------------------------------
 #P M062X/Def2TZVPP Symm(None) scf(xqc) pop(None) freq opt(CalcFC, Tigh
 t)
 ----------------------------------------------------------------------

 ------------------------------
 Gaussian input prepared by ASE
 ------------------------------
 Symbolic Z-matrix:
 Charge =  0 Multiplicity = 1

 SCF Done:  E(RM062X) =  -475.501809708     A.U. after   15 cycles
 SCF Done:  E(RM062X) =  -475.501851776     A.U. after   14 cycles
 SCF Done:  E(RM062X) =  -475.501855161     A.U. after   12 cycles
 SCF Done:  E(RM062X) =  -475.501855584     A.U. after   10 cycles
 SCF Done:  E(RM062X) =  -475.501855591     A.U. after    9 cycles
 SCF Done:  E(RM062X) =  -475.501855591     A.U. after    4 cycles
 Optimization completed.
    -- Stationary point found.
 Normal termination of Gaussian 16 at Sat May 24 05:30:12 2025.

 ---------------------------------------------------------------------
 #P Geom=AllCheck Guess=TCheck SCRF=Check GenChk RM062X/def2TZVPP Freq
 ---------------------------------------------------------------------

 Structure from the checkpoint file:  "1001482381140000000001_well.chk"
 ------------------------------
 Gaussian input prepared by ASE
 ------------------------------
 Charge =  0 Multiplicity = 1

                          Input orientation:
 ---------------------------------------------------------------------
 Center     Atomic      Atomic             Coordinates (Angstroms)
 Number     Number       Type             X           Y           Z
 ---------------------------------------------------------------------
      1          6           0       -1.672897   -1.224394    0.211955
      2          6           0       -0.750215   -0.668154    1.339360
      3          9           0       -1.329879    0.403561    1.745083
      4          9           0       -0.931102   -1.776922   -0.735099
      5          9           0       -2.420203   -2.166632    0.789978
      6          9           0       -2.477188   -0.328348   -0.349084
 ---------------------------------------------------------------------

 SCF Done:  E(RM062X) =  -475.501855591     A.U. after    1 cycles

 Isotropic polarizability for W=    0.000000       26.23 Bohr**3.
 End of Minotr F.D. properties file   721 does not exist.

                      1                      2                      3
                      A                      A                      A
 Frequencies --     38.3523               268.3446               340.5201
 Red. masses --     16.7146                18.5680                14.6489
 Frc consts  --      0.0145                 0.7878                 1.0008
 IR Inten    --      0.5006                 2.8862                 8.8273

                      4                      5                      6
                      A                      A                      A
 Frequencies --    419.9764               541.4259               548.4978
 Red. masses --     17.7639                17.8069                16.7594
 Frc consts  --      1.8460                 3.0755                 2.9707
 IR Inten    --      2.9076                 9.0988                 8.8705

                      7                      8                      9
                      A                      A                      A
 Frequencies --    703.1797               853.2642              1226.1511
 Red. masses --     15.6124                15.4719                13.3668
 Frc consts  --      4.5483                 6.6368                11.8403
 IR Inten    --     33.3981                22.0108               309.0048

                     10                     11                     12
                      A                      A                      A
 Frequencies --   1279.9676              1297.4830              1357.7051
 Red. masses --     13.0996                13.1493                13.4338
 Frc consts  --     12.6446                13.0423                14.5902
 IR Inten    --    119.2784               324.7387               129.2333

 - Thermochemistry -
 -------------------
 Temperature   298.150 Kelvin.  Pressure   1.00000 Atm.
 Atom     1 has atomic number  6 and mass  12.00000

 Molecular mass:    99.99361 amu.
 Principal axes and moments of inertia in atomic units:
                           1         2         3
     Eigenvalues --   319.73898 599.87982 608.03020
           X            0.15135  -0.35059   0.92422
           Y            0.70729   0.69158   0.14651
           Z            0.69053  -0.63151  -0.35264
 This molecule is an asymmetric top.
 Rotational symmetry number  1.
 Rotational temperatures (Kelvin)      0.27089     0.14439     0.14245
 Rotational constants (GHZ):           5.64442     3.00850     2.96818
 Zero-point vibrational energy      53083.5 (Joules/Mol)
                                   12.68726 (Kcal/Mol)
 Warning -- explicit consideration of   6 degrees of freedom as
           vibrations may cause significant error
 Vibrational temperatures:     55.18   386.09   489.93   604.25   778.99
          (Kelvin)            789.17  1011.72  1227.66  1764.16  1841.59
                             1866.79  1953.43

 Zero-point correction=                           0.020218 (Hartree/Particle)
 Thermal correction to Energy=                    0.025643
 Thermal correction to Enthalpy=                  0.026587
 Thermal correction to Gibbs Free Energy=        -0.009866
 Sum of electronic and zero-point Energies=           -475.481637
 Sum of electronic and thermal Energies=              -475.476213
 Sum of electronic and thermal Enthalpies=            -475.475268
 Sum of electronic and thermal Free Energies=         -475.511722

                     E (Thermal)             CV                S
                      KCal/Mol        Cal/Mol-Kelvin    Cal/Mol-Kelvin
 Total                   16.091             17.005             76.723
 Electronic               0.000              0.000              0.000
 Translational            0.889              2.981             39.718
 Rotational               0.889              2.981             26.259
 Vibrational             14.314             11.044             10.747
 Vibration     1          0.594              1.982              5.342
 Vibration     2          0.673              1.731              1.607
 Vibration     3          0.720              1.595              1.210
 Vibration     4          0.783              1.427              0.892
 Vibration     5          0.897              1.158              0.562
 Vibration     6          0.904              1.143              0.547

 Optimization completed.
    -- Stationary point found.
 Normal termination of Gaussian 16 at Sat May 24 05:30:48 2025.
