 Gaussian 16, Revision C.01,
 Gaussian 16:  ES64L-G16RevC.01  3-Jul-2019

 ----------------------------------------------------------------------
 #P M062X/Def2TZVPP Symm(None) scf(xqc) pop(None) freq opt(CalcFC, Tigh
 t)
 ----------------------------------------------------------------------

 ------------------------------
 Gaussian input prepared by ASE
 ------------------------------
 Symbolic Z-matrix:
 Charge =  0 Multiplicity = 1

 SCF Done:  E(RM062X) =  -724.323216031     A.U. after   13 cycles
 SCF Done:  E(RM062X) =  -724.323408103     A.U. after   10 cycles
 SCF Done:  E(RM062X) =  -724.323408413     A.U. after    7 cycles
 SCF Done:  E(RM062X) =  -724.323408413     A.U. after    4 cycles
 Optimization completed.
    -- Stationary point found.
 Normal termination of Gaussian 16 at Sat May 24 05:29:46 2025.

 ---------------------------------------------------------------------
 #P Geom=AllCheck Guess=TCheck SCRF=Check GenChk RM062X/def2TZVPP Freq
 ---------------------------------------------------------------------

 Structure from the checkpoint file:  "1002122340540000000001_well.chk"
 ------------------------------
 Gaussian input prepared by ASE
 ------------------------------
 Charge =  0 Multiplicity = 1

                          Input orientation:
 ---------------------------------------------------------------------
 Center     Atomic      Atomic             Coordinates (Angstroms)
 Number     Number       Type             X           Y           Z
 ---------------------------------------------------------------------
      1          9           0        0.296731    0.846604   -0.682579
      2         16           0        1.811072    0.892821   -0.362462
      3          8           0        1.932041    1.537205    0.887036
      4          8           0        2.325843   -0.382003   -0.644018
      5          8           0        2.266936    1.856020   -1.502343
      6          1           0        2.196761    2.775759   -1.210303
 ---------------------------------------------------------------------

 SCF Done:  E(RM062X) =  -724.323408413     A.U. after    1 cycles

 Isotropic polarizability for W=    0.000000       27.38 Bohr**3.
 End of Minotr F.D. properties file   721 does not exist.

                      1                      2                      3
                      A                      A                      A
 Frequencies --    297.2504               385.0879               425.3329
 Red. masses --      1.3413                14.8445                 3.5199
 Frc consts  --      0.0698                 1.2970                 0.3752
 IR Inten    --     80.9427                 0.4614                27.0195

                      4                      5                      6
                      A                      A                      A
 Frequencies --    528.5029               555.0681               567.4124
 Red. masses --      7.5652                18.2312                15.3619
 Frc consts  --      1.2450                 3.3095                 2.9140
 IR Inten    --     31.2285                28.2940                45.6710

                      7                      8                      9
                      A                      A                      A
 Frequencies --    868.5330               942.5560              1161.0953
 Red. masses --     19.8294                18.2247                 1.1897
 Frc consts  --      8.8132                 9.5395                 0.9450
 IR Inten    --    171.2848               261.0443                83.7280

                     10                     11                     12
                      A                      A                      A
 Frequencies --   1287.6542              1529.3922              3816.3402
 Red. masses --     18.5223                14.8865                 1.0657
 Frc consts  --     18.0944                20.5154                 9.1448
 IR Inten    --    202.7554               320.5834               184.1163

 - Thermochemistry -
 -------------------
 Temperature   298.150 Kelvin.  Pressure   1.00000 Atm.
 Atom     1 has atomic number  9 and mass  18.99840

 Molecular mass:    99.96304 amu.
 Principal axes and moments of inertia in atomic units:
                           1         2         3
     Eigenvalues --   352.46065 355.76571 361.40104
           X            0.56964   0.77508   0.27342
           Y            0.82147  -0.52620  -0.21977
           Z            0.02647  -0.34980   0.93645
 This molecule is an asymmetric top.
 Rotational symmetry number  1.
 Rotational temperatures (Kelvin)      0.24574     0.24346     0.23966
 Rotational constants (GHZ):           5.12040     5.07284     4.99374
 Zero-point vibrational energy      73954.5 (Joules/Mol)
                                   17.67555 (Kcal/Mol)
 Warning -- explicit consideration of   6 degrees of freedom as
           vibrations may cause significant error
 Vibrational temperatures:    427.68   554.06   611.96   760.40   798.62
          (Kelvin)            816.38  1249.63  1356.13  1670.56  1852.65
                             2200.45  5490.86

 Zero-point correction=                           0.028168 (Hartree/Particle)
 Thermal correction to Energy=                    0.032745
 Thermal correction to Enthalpy=                  0.033689
 Thermal correction to Gibbs Free Energy=         0.000259
 Sum of electronic and zero-point Energies=           -724.295241
 Sum of electronic and thermal Energies=              -724.290663
 Sum of electronic and thermal Enthalpies=            -724.289719
 Sum of electronic and thermal Free Energies=         -724.323149

                     E (Thermal)             CV                S
                      KCal/Mol        Cal/Mol-Kelvin    Cal/Mol-Kelvin
 Total                   20.548             15.417             70.359
 Electronic               0.000              0.000              0.000
 Translational            0.889              2.981             39.717
 Rotational               0.889              2.981             25.319
 Vibrational             18.770              9.456              5.323
 Vibration     1          0.691              1.679              1.432
 Vibration     2          0.754              1.502              1.019
 Vibration     3          0.787              1.415              0.874
 Vibration     4          0.883              1.187              0.591
 Vibration     5          0.911              1.129              0.534
 Vibration     6          0.923              1.102              0.509

 Optimization completed.
    -- Stationary point found.
 Normal termination of Gaussian 16 at Sat May 24 05:30:16 2025.
