 Gaussian 16, Revision C.01,
 Gaussian 16:  ES64L-G16RevC.01  3-Jul-2019

 ----------------------------------------------------------------------
 #P M062X/Def2TZVPP Symm(None) scf(xqc) pop(None) freq opt(CalcFC, Tigh
 t)
 ----------------------------------------------------------------------

 ------------------------------
 Gaussian input prepared by ASE
 ------------------------------
 Symbolic Z-matrix:
 Charge =  0 Multiplicity = 2

 SCF Done:  E(UM062X) =  -575.415930992     A.U. after   15 cycles
 SCF Done:  E(UM062X) =  -575.419830852     A.U. after   13 cycles
 SCF Done:  E(UM062X) =  -575.420071564     A.U. after   11 cycles
 SCF Done:  E(UM062X) =  -575.420086676     A.U. after   10 cycles
 SCF Done:  E(UM062X) =  -575.420086812     A.U. after    7 cycles
 SCF Done:  E(UM062X) =  -575.420086814     A.U. after    5 cycles
 Optimization completed.
    -- Stationary point found.
 Normal termination of Gaussian 16 at Sat May 24 00:14:20 2025.

 ---------------------------------------------------------------------
 #P Geom=AllCheck Guess=TCheck SCRF=Check GenChk UM062X/def2TZVPP Freq
 ---------------------------------------------------------------------

 Structure from the checkpoint file:  "1191793072280000000002_well.chk"
 ------------------------------
 Gaussian input prepared by ASE
 ------------------------------
 Charge =  0 Multiplicity = 2

                          Input orientation:
 ---------------------------------------------------------------------
 Center     Atomic      Atomic             Coordinates (Angstroms)
 Number     Number       Type             X           Y           Z
 ---------------------------------------------------------------------
      1          6           0       -0.642852   -1.325251    0.188871
      2          6           0       -0.003642    0.043638    0.073956
      3          9           0       -0.227591    0.637278   -1.074362
      4          9           0       -0.251740    0.830820    1.093696
      5          9           0       -0.256541   -2.087956   -0.823999
      6          9           0       -0.283045   -1.894857    1.330351
      7          9           0       -1.974612   -1.241888    0.164926
 ---------------------------------------------------------------------

 SCF Done:  E(UM062X) =  -575.420086814     A.U. after    1 cycles

 Isotropic polarizability for W=    0.000000       26.68 Bohr**3.
 End of Minotr F.D. properties file   721 does not exist.

                      1                      2                      3
                      A                      A                      A
 Frequencies --     63.4776               210.4329               223.9829
 Red. masses --     18.8940                18.5527                18.2047
 Frc consts  --      0.0449                 0.4840                 0.5381
 IR Inten    --      0.0005                 2.8219                 2.8092

                      4                      5                      6
                      A                      A                      A
 Frequencies --    369.8179               426.4294               522.7218
 Red. masses --     18.6697                18.2138                17.4623
 Frc consts  --      1.5044                 1.9514                 2.8112
 IR Inten    --      0.2051                 1.0257                 6.2985

                      7                      8                      9
                      A                      A                      A
 Frequencies --    597.4433               618.9631               719.4740
 Red. masses --     17.8264                17.0888                14.7480
 Frc consts  --      3.7489                 3.8574                 4.4979
 IR Inten    --      1.5386                11.7100                22.3981

                     10                     11                     12
                      A                      A                      A
 Frequencies --    853.7836              1171.3701              1246.2993
 Red. masses --     15.7449                13.7778                13.3095
 Frc consts  --      6.7622                11.1383                12.1802
 IR Inten    --      4.2561               239.7748               332.8119

                     13                     14                     15
                      A                      A                      A
 Frequencies --   1293.2718              1347.4144              1454.8818
 Red. masses --     13.0623                13.4006                12.7241
 Frc consts  --     12.8722                14.3343                15.8683
 IR Inten    --    233.4001               311.8263                21.7735

 - Thermochemistry -
 -------------------
 Temperature   298.150 Kelvin.  Pressure   1.00000 Atm.
 Atom     1 has atomic number  6 and mass  12.00000

 Molecular mass:   118.99202 amu.
 Principal axes and moments of inertia in atomic units:
                           1         2         3
     Eigenvalues --   477.01690 744.27575 906.20043
           X            0.19921  -0.01108   0.97989
           Y            0.97628   0.08878  -0.19747
           Z           -0.08481   0.99599   0.02851
 This molecule is an asymmetric top.
 Rotational symmetry number  1.
 Warning -- assumption of classical behavior for rotation
           may cause significant error
 Rotational temperatures (Kelvin)      0.18157     0.11637     0.09558
 Rotational constants (GHZ):           3.78339     2.42483     1.99155
 Zero-point vibrational energy      66511.0 (Joules/Mol)
                                   15.89650 (Kcal/Mol)
 Warning -- explicit consideration of   8 degrees of freedom as
           vibrations may cause significant error
 Vibrational temperatures:     91.33   302.77   322.26   532.09   613.54
          (Kelvin)            752.08   859.59   890.55  1035.16  1228.40
                             1685.34  1793.15  1860.73  1938.63  2093.25

 Zero-point correction=                           0.025333 (Hartree/Particle)
 Thermal correction to Energy=                    0.031413
 Thermal correction to Enthalpy=                  0.032357
 Thermal correction to Gibbs Free Energy=        -0.006232
 Sum of electronic and zero-point Energies=           -575.394754
 Sum of electronic and thermal Energies=              -575.388674
 Sum of electronic and thermal Enthalpies=            -575.387730
 Sum of electronic and thermal Free Energies=         -575.426319

                     E (Thermal)             CV                S
                      KCal/Mol        Cal/Mol-Kelvin    Cal/Mol-Kelvin
 Total                   19.712             19.863             81.217
 Electronic               0.000              0.000              1.377
 Translational            0.889              2.981             40.236
 Rotational               0.889              2.981             27.267
 Vibrational             17.934             13.902             12.336
 Vibration     1          0.597              1.972              4.346
 Vibration     2          0.643              1.825              2.040
 Vibration     3          0.649              1.805              1.927
 Vibration     4          0.742              1.534              1.081
 Vibration     5          0.788              1.413              0.870
 Vibration     6          0.878              1.200              0.604
 Vibration     7          0.955              1.037              0.454
 Vibration     8          0.979              0.992              0.418

 Optimization completed.
    -- Stationary point found.
 Normal termination of Gaussian 16 at Sat May 24 00:15:32 2025.
