 Gaussian 16, Revision C.01,
 Gaussian 16:  ES64L-G16RevC.01  3-Jul-2019

 ----------------------------------------------------------------------
 #P M062X/Def2TZVPP Symm(None) scf(xqc) pop(None) freq opt(CalcFC, Tigh
 t)
 ----------------------------------------------------------------------

 ------------------------------
 Gaussian input prepared by ASE
 ------------------------------
 Symbolic Z-matrix:
 Charge =  0 Multiplicity = 2

 SCF Done:  E(UM062X) =  -862.188232207     A.U. after   16 cycles
 SCF Done:  E(UM062X) =  -862.193143888     A.U. after   14 cycles
 SCF Done:  E(UM062X) =  -862.193575685     A.U. after   13 cycles
 SCF Done:  E(UM062X) =  -862.193618019     A.U. after   11 cycles
 SCF Done:  E(UM062X) =  -862.193620465     A.U. after    9 cycles
 SCF Done:  E(UM062X) =  -862.193620520     A.U. after    7 cycles
 SCF Done:  E(UM062X) =  -862.193620523     A.U. after    6 cycles
 SCF Done:  E(UM062X) =  -862.193620523     A.U. after    4 cycles
 Optimization completed.
    -- Stationary point found.
 Normal termination of Gaussian 16 at Sat May 24 00:15:45 2025.

 ---------------------------------------------------------------------
 #P Geom=AllCheck Guess=TCheck SCRF=Check GenChk UM062X/def2TZVPP Freq
 ---------------------------------------------------------------------

 Structure from the checkpoint file:  "1312673532570400000002_well.chk"
 ------------------------------
 Gaussian input prepared by ASE
 ------------------------------
 Charge =  0 Multiplicity = 2

                          Input orientation:
 ---------------------------------------------------------------------
 Center     Atomic      Atomic             Coordinates (Angstroms)
 Number     Number       Type             X           Y           Z
 ---------------------------------------------------------------------
      1          6           0        0.109618    0.111851    0.129284
      2          9           0       -0.347928    0.425675   -1.059256
      3          9           0       -0.475327    0.795632    1.075746
      4         16           0        1.890133    0.014403    0.235298
      5          8           0        2.199485   -0.229719    1.590615
      6          8           0        2.310790   -0.815082   -0.836684
      7          8           0        2.325689    1.501407   -0.084835
      8          1           0        2.538310    1.583453   -1.025314
 ---------------------------------------------------------------------

 SCF Done:  E(UM062X) =  -862.193620523     A.U. after    1 cycles

 Isotropic polarizability for W=    0.000000       39.83 Bohr**3.
 End of Minotr F.D. properties file   721 does not exist.

                      1                      2                      3
                      A                      A                      A
 Frequencies --     64.1111               175.3178               193.7644
 Red. masses --     14.5668                 7.6640                13.9965
 Frc consts  --      0.0353                 0.1388                 0.3096
 IR Inten    --      1.0316                 4.3253                 4.4116

                      4                      5                      6
                      A                      A                      A
 Frequencies --    319.5243               342.3007               402.3842
 Red. masses --      1.6919                16.5532                 3.1778
 Frc consts  --      0.1018                 1.1427                 0.3031
 IR Inten    --     60.7204                 0.5729                27.9385

                      7                      8                      9
                      A                      A                      A
 Frequencies --    487.1316               491.2122               582.9076
 Red. masses --      9.8255                 6.2376                17.1712
 Frc consts  --      1.3737                 0.8868                 3.4376
 IR Inten    --     38.2359                11.1035                61.0932

                     10                     11                     12
                      A                      A                      A
 Frequencies --    605.8931               725.7481               886.3010
 Red. masses --     14.2938                16.7601                17.7349
 Frc consts  --      3.0916                 5.2011                 8.2081
 IR Inten    --     39.0293                35.7135               228.1615

                     13                     14                     15
                      A                      A                      A
 Frequencies --   1137.5567              1240.6899              1322.2973
 Red. masses --      1.1854                16.5584                14.1010
 Frc consts  --      0.9038                15.0174                14.5264
 IR Inten    --     74.0284               271.8977                79.3395

                     16                     17                     18
                      A                      A                      A
 Frequencies --   1341.3925              1503.5909              3815.0126
 Red. masses --     13.5160                15.3441                 1.0657
 Frc consts  --     14.3288                20.4385                 9.1386
 IR Inten    --    128.1071               301.5450               182.0515

 - Thermochemistry -
 -------------------
 Temperature   298.150 Kelvin.  Pressure   1.00000 Atm.
 Atom     1 has atomic number  6 and mass  12.00000

 Molecular mass:   130.96145 amu.
 Principal axes and moments of inertia in atomic units:
                           1         2         3
     Eigenvalues --   520.91542 866.756111028.95992
           X            0.97707  -0.04200   0.20875
           Y           -0.20085   0.14368   0.96903
           Z            0.07069   0.98873  -0.13195
 This molecule is an asymmetric top.
 Rotational symmetry number  1.
 Warning -- assumption of classical behavior for rotation
           may cause significant error
 Rotational temperatures (Kelvin)      0.16627     0.09993     0.08418
 Rotational constants (GHZ):           3.46456     2.08218     1.75395
 Zero-point vibrational energy      93530.8 (Joules/Mol)
                                   22.35441 (Kcal/Mol)
 Warning -- explicit consideration of  10 degrees of freedom as
           vibrations may cause significant error
 Vibrational temperatures:     92.24   252.24   278.78   459.72   492.49
          (Kelvin)            578.94   700.87   706.74   838.67   871.74
                             1044.19  1275.19  1636.69  1785.08  1902.49
                             1929.96  2163.33  5488.95

 Zero-point correction=                           0.035624 (Hartree/Particle)
 Thermal correction to Energy=                    0.042517
 Thermal correction to Enthalpy=                  0.043461
 Thermal correction to Gibbs Free Energy=         0.003190
 Sum of electronic and zero-point Energies=           -862.157997
 Sum of electronic and thermal Energies=              -862.151103
 Sum of electronic and thermal Enthalpies=            -862.150159
 Sum of electronic and thermal Free Energies=         -862.190431

                     E (Thermal)             CV                S
                      KCal/Mol        Cal/Mol-Kelvin    Cal/Mol-Kelvin
 Total                   26.680             23.052             84.758
 Electronic               0.000              0.000              1.377
 Translational            0.889              2.981             40.522
 Rotational               0.889              2.981             27.632
 Vibrational             24.902             17.090             15.227
 Vibration     1          0.597              1.971              4.326
 Vibration     2          0.627              1.873              2.378
 Vibration     3          0.635              1.849              2.192
 Vibration     4          0.705              1.636              1.313
 Vibration     5          0.721              1.591              1.201
 Vibration     6          0.768              1.465              0.954
 Vibration     7          0.843              1.279              0.691
 Vibration     8          0.847              1.270              0.680
 Vibration     9          0.940              1.068              0.480
 Vibration    10          0.965              1.019              0.440

 Optimization completed.
    -- Stationary point found.
 Normal termination of Gaussian 16 at Sat May 24 00:17:45 2025.
