 Gaussian 16, Revision C.01,
 Gaussian 16:  ES64L-G16RevC.01  3-Jul-2019

 ----------------------------------------------------------------------
 #P M062X/Def2TZVPP Symm(None) scf(xqc) pop(None) freq opt(CalcFC, Tigh
 t)
 ----------------------------------------------------------------------

 ------------------------------
 Gaussian input prepared by ASE
 ------------------------------
 Symbolic Z-matrix:
 Charge =  0 Multiplicity = 1

 SCF Done:  E(RM062X) =  -962.145507653     A.U. after   14 cycles
 SCF Done:  E(RM062X) =  -962.146007011     A.U. after   15 cycles
 SCF Done:  E(RM062X) =  -962.146107406     A.U. after   12 cycles
 SCF Done:  E(RM062X) =  -962.145760794     A.U. after   14 cycles
 SCF Done:  E(RM062X) =  -962.146128020     A.U. after   11 cycles
 SCF Done:  E(RM062X) =  -962.146128542     A.U. after    8 cycles
 SCF Done:  E(RM062X) =  -962.146128548     A.U. after    5 cycles
 SCF Done:  E(RM062X) =  -962.146128548     A.U. after    4 cycles
 Optimization completed.
    -- Stationary point found.
 Normal termination of Gaussian 16 at Sat May 24 10:21:59 2025.

 ---------------------------------------------------------------------
 #P Geom=AllCheck Guess=TCheck SCRF=Check GenChk RM062X/def2TZVPP Freq
 ---------------------------------------------------------------------

 Structure from the checkpoint file:  "1502823922432230600001_well.chk"
 ------------------------------
 Gaussian input prepared by ASE
 ------------------------------
 Charge =  0 Multiplicity = 1

                          Input orientation:
 ---------------------------------------------------------------------
 Center     Atomic      Atomic             Coordinates (Angstroms)
 Number     Number       Type             X           Y           Z
 ---------------------------------------------------------------------
      1          6           0       -1.406815    0.675349    0.406257
      2         16           0        0.887073    1.119007   -0.786735
      3          8           0       -0.405086    1.570588    0.220616
      4          8           0        1.488357   -0.012756   -0.146639
      5          8           0        1.704847    2.422373   -0.410103
      6          9           0       -2.493464    1.331311    0.772983
      7          9           0       -1.676551    0.000980   -0.715223
      8          9           0       -1.112961   -0.208633    1.347810
      9          1           0        1.977790    2.400093    0.521877
 ---------------------------------------------------------------------

 SCF Done:  E(RM062X) =  -962.146128548     A.U. after    1 cycles

 Isotropic polarizability for W=    0.000000       43.29 Bohr**3.
 End of Minotr F.D. properties file   721 does not exist.

                      1                      2                      3
                      A                      A                      A
 Frequencies --     40.5183                78.7434               155.2704
 Red. masses --     12.9944                14.1668                11.3820
 Frc consts  --      0.0126                 0.0518                 0.1617
 IR Inten    --      0.6473                 0.1126                 0.8614

                      4                      5                      6
                      A                      A                      A
 Frequencies --    243.2876               323.1860               356.3960
 Red. masses --      1.6677                15.9857                 4.3307
 Frc consts  --      0.0582                 0.9838                 0.3241
 IR Inten    --     47.8825                 1.0322                15.8914

                      7                      8                      9
                      A                      A                      A
 Frequencies --    424.0354               483.2521               512.5872
 Red. masses --     10.8111                 6.0840                 6.3459
 Frc consts  --      1.1453                 0.8371                 0.9824
 IR Inten    --     21.5881                59.5334                47.5626

                     10                     11                     12
                      A                      A                      A
 Frequencies --    565.0248               641.1577               691.9790
 Red. masses --     13.2938                16.4849                15.9179
 Frc consts  --      2.5005                 3.9927                 4.4908
 IR Inten    --     91.0560                12.4796                 3.2540

                     13                     14                     15
                      A                      A                      A
 Frequencies --    760.6923               880.4689               975.9446
 Red. masses --     17.3327                14.1782                17.2399
 Frc consts  --      5.9093                 6.4759                 9.6747
 IR Inten    --    163.1841               237.7299                43.3448

                     16                     17                     18
                      A                      A                      A
 Frequencies --   1125.5284              1246.8246              1264.3953
 Red. masses --      1.3405                 7.9074                12.0244
 Frc consts  --      1.0005                 7.2426                11.3260
 IR Inten    --    124.1201               349.0505               297.7299

                     19                     20                     21
                      A                      A                      A
 Frequencies --   1309.8117              1337.6751              3752.7828
 Red. masses --     12.9531                14.6022                 1.0646
 Frc consts  --     13.0931                15.3946                 8.8334
 IR Inten    --    495.7480               367.0429               122.7864

 - Thermochemistry -
 -------------------
 Temperature   298.150 Kelvin.  Pressure   1.00000 Atm.
 Atom     1 has atomic number  6 and mass  12.00000

 Molecular mass:   149.95985 amu.
 Principal axes and moments of inertia in atomic units:
                           1         2         3
     Eigenvalues --   509.335771489.092971616.11892
           X            0.92459  -0.23964   0.29616
           Y            0.23493   0.97062   0.05195
           Z           -0.29991   0.02154   0.95372
 This molecule is an asymmetric top.
 Rotational symmetry number  1.
 Warning -- assumption of classical behavior for rotation
           may cause significant error
 Rotational temperatures (Kelvin)      0.17005     0.05817     0.05359
 Rotational constants (GHZ):           3.54332     1.21197     1.11671
 Zero-point vibrational energy     102696.8 (Joules/Mol)
                                   24.54512 (Kcal/Mol)
 Warning -- explicit consideration of  10 degrees of freedom as
           vibrations may cause significant error
 Vibrational temperatures:     58.30   113.29   223.40   350.04   464.99
          (Kelvin)            512.77   610.09   695.29   737.50   812.94
                              922.48   995.60  1094.47  1266.80  1404.17
                             1619.38  1793.90  1819.18  1884.53  1924.62
                             5399.42

 Zero-point correction=                           0.039115 (Hartree/Particle)
 Thermal correction to Energy=                    0.046887
 Thermal correction to Enthalpy=                  0.047831
 Thermal correction to Gibbs Free Energy=         0.005268
 Sum of electronic and zero-point Energies=           -962.107013
 Sum of electronic and thermal Energies=              -962.099241
 Sum of electronic and thermal Enthalpies=            -962.098297
 Sum of electronic and thermal Free Energies=         -962.140861

                     E (Thermal)             CV                S
                      KCal/Mol        Cal/Mol-Kelvin    Cal/Mol-Kelvin
 Total                   29.422             26.117             89.582
 Electronic               0.000              0.000              0.000
 Translational            0.889              2.981             40.926
 Rotational               0.889              2.981             28.596
 Vibrational             27.645             20.156             20.061
 Vibration     1          0.594              1.981              5.234
 Vibration     2          0.600              1.963              3.922
 Vibration     3          0.620              1.897              2.607
 Vibration     4          0.659              1.774              1.779
 Vibration     5          0.708              1.629              1.294
 Vibration     6          0.732              1.562              1.138
 Vibration     7          0.786              1.418              0.878
 Vibration     8          0.839              1.287              0.701
 Vibration     9          0.868              1.222              0.627
 Vibration    10          0.921              1.107              0.514

 Optimization completed.
    -- Stationary point found.
 Normal termination of Gaussian 16 at Sat May 24 10:23:41 2025.
