 Gaussian 16, Revision C.01,
 Gaussian 16:  ES64L-G16RevC.01  3-Jul-2019

 ----------------------------------------------------------------------
 #P M062X/Def2TZVPP Symm(None) scf(xqc) pop(None) freq opt(CalcFC, Tigh
 t)
 ----------------------------------------------------------------------

 ------------------------------
 Gaussian input prepared by ASE
 ------------------------------
 Symbolic Z-matrix:
 Charge =  0 Multiplicity = 1

 SCF Done:  E(RM062X) =  -962.125867755     A.U. after   13 cycles
 SCF Done:  E(RM062X) =  -962.125891319     A.U. after    8 cycles
 SCF Done:  E(RM062X) =  -962.125891320     A.U. after    4 cycles
 Optimization completed.
    -- Stationary point found.
 Normal termination of Gaussian 16 at Sat May 24 06:13:56 2025.

 ---------------------------------------------------------------------
 #P Geom=AllCheck Guess=TCheck SCRF=Check GenChk RM062X/def2TZVPP Freq
 ---------------------------------------------------------------------

 Structure from the checkpoint file:  "1502984803620600000001_well.chk"
 ------------------------------
 Gaussian input prepared by ASE
 ------------------------------
 Charge =  0 Multiplicity = 1

                          Input orientation:
 ---------------------------------------------------------------------
 Center     Atomic      Atomic             Coordinates (Angstroms)
 Number     Number       Type             X           Y           Z
 ---------------------------------------------------------------------
      1          6           0        0.298242    0.157857    0.124269
      2          9           0       -0.572173    0.677493   -0.730909
      3          9           0        0.090410    0.670903    1.321160
      4         16           0        2.006741    0.536008   -0.444820
      5          8           0        2.883540    0.176006    0.600843
      6          8           0        2.114420    0.043262   -1.771045
      7          8           0        1.920788    2.105856   -0.479091
      8          9           0        0.143013   -1.151071    0.167926
      9          1           0        1.656095    2.405280   -1.360841
 ---------------------------------------------------------------------

 SCF Done:  E(RM062X) =  -962.125891320     A.U. after    1 cycles

 Isotropic polarizability for W=    0.000000       41.21 Bohr**3.
 End of Minotr F.D. properties file   721 does not exist.

                      1                      2                      3
                      A                      A                      A
 Frequencies --     60.3176               187.1621               194.9460
 Red. masses --     13.4428                 7.0385                16.6629
 Frc consts  --      0.0288                 0.1453                 0.3731
 IR Inten    --      1.4314                10.2963                 3.0479

                      4                      5                      6
                      A                      A                      A
 Frequencies --    309.9434               321.6694               342.2554
 Red. masses --     10.2914                 2.9160                13.3896
 Frc consts  --      0.5825                 0.1778                 0.9241
 IR Inten    --      1.1041                33.2232                 1.7862

                      7                      8                      9
                      A                      A                      A
 Frequencies --    373.9307               471.4378               507.2127
 Red. masses --      2.1600                 4.4140                15.0271
 Frc consts  --      0.1779                 0.5780                 2.2777
 IR Inten    --     47.7089                27.3740                26.5693

                     10                     11                     12
                      A                      A                      A
 Frequencies --    571.0471               576.9312               632.6263
 Red. masses --     15.6774                16.3854                19.9531
 Frc consts  --      3.0121                 3.2133                 4.7049
 IR Inten    --      0.8592                 2.8431               159.4266

                     13                     14                     15
                      A                      A                      A
 Frequencies --    794.5518               907.3320              1141.6829
 Red. masses --     17.7223                17.5736                 1.1837
 Frc consts  --      6.5920                 8.5240                 0.9091
 IR Inten    --      3.6618               217.0160                87.6126

                     16                     17                     18
                      A                      A                      A
 Frequencies --   1198.8830              1275.0371              1295.3514
 Red. masses --     14.7388                13.3480                13.3548
 Frc consts  --     12.4815                12.7853                13.2027
 IR Inten    --    265.2756               167.5782               133.4247

                     19                     20                     21
                      A                      A                      A
 Frequencies --   1309.2587              1505.6278              3810.9365
 Red. masses --     15.3285                15.3990                 1.0657
 Frc consts  --     15.4810                20.5673                 9.1190
 IR Inten    --    232.2393               292.3980               186.0115

 - Thermochemistry -
 -------------------
 Temperature   298.150 Kelvin.  Pressure   1.00000 Atm.
 Atom     1 has atomic number  6 and mass  12.00000

 Molecular mass:   149.95985 amu.
 Principal axes and moments of inertia in atomic units:
                           1         2         3
     Eigenvalues --   673.854181131.953961139.39876
           X            0.91086   0.40712  -0.06779
           Y            0.26996  -0.46344   0.84400
           Z           -0.31219   0.78707   0.53203
 This molecule is an asymmetric top.
 Rotational symmetry number  1.
 Warning -- assumption of classical behavior for rotation
           may cause significant error
 Rotational temperatures (Kelvin)      0.12854     0.07652     0.07602
 Rotational constants (GHZ):           2.67824     1.59436     1.58394
 Zero-point vibrational energy     106396.7 (Joules/Mol)
                                   25.42942 (Kcal/Mol)
 Warning -- explicit consideration of  11 degrees of freedom as
           vibrations may cause significant error
 Vibrational temperatures:     86.78   269.28   280.48   445.94   462.81
          (Kelvin)            492.43   538.00   678.29   729.77   821.61
                              830.08   910.21  1143.18  1305.45  1642.63
                             1724.93  1834.49  1863.72  1883.73  2166.26
                             5483.09

 Zero-point correction=                           0.040524 (Hartree/Particle)
 Thermal correction to Energy=                    0.047995
 Thermal correction to Enthalpy=                  0.048939
 Thermal correction to Gibbs Free Energy=         0.007938
 Sum of electronic and zero-point Energies=           -962.085367
 Sum of electronic and thermal Energies=              -962.077897
 Sum of electronic and thermal Enthalpies=            -962.076952
 Sum of electronic and thermal Free Energies=         -962.117953

                     E (Thermal)             CV                S
                      KCal/Mol        Cal/Mol-Kelvin    Cal/Mol-Kelvin
 Total                   30.117             25.858             86.294
 Electronic               0.000              0.000              0.000
 Translational            0.889              2.981             40.926
 Rotational               0.889              2.981             28.254
 Vibrational             28.340             19.897             17.114
 Vibration     1          0.597              1.973              4.447
 Vibration     2          0.632              1.857              2.256
 Vibration     3          0.636              1.847              2.180
 Vibration     4          0.699              1.655              1.363
 Vibration     5          0.707              1.632              1.302
 Vibration     6          0.721              1.591              1.202
 Vibration     7          0.745              1.526              1.064
 Vibration     8          0.828              1.313              0.734
 Vibration     9          0.862              1.234              0.640
 Vibration    10          0.927              1.094              0.502
 Vibration    11          0.933              1.081              0.491

 Optimization completed.
    -- Stationary point found.
 Normal termination of Gaussian 16 at Sat May 24 06:15:49 2025.
