 Gaussian 16, Revision C.01,
 Gaussian 16:  ES64L-G16RevC.01  3-Jul-2019

 ----------------------------------------------------------------------
 #P M062X/Def2TZVPP Symm(None) scf(xqc) pop(None) freq opt(CalcFC, Tigh
 t)
 ----------------------------------------------------------------------

 ------------------------------
 Gaussian input prepared by ASE
 ------------------------------
 Symbolic Z-matrix:
 Charge =  0 Multiplicity = 1

 SCF Done:  E(RM062X) =  -1099.42151694     A.U. after   13 cycles
 SCF Done:  E(RM062X) =  -1099.42291160     A.U. after   12 cycles
 SCF Done:  E(RM062X) =  -1099.42328874     A.U. after   14 cycles
 SCF Done:  E(RM062X) =  -1099.42377691     A.U. after   12 cycles
 SCF Done:  E(RM062X) =  -1099.42380350     A.U. after   10 cycles
 SCF Done:  E(RM062X) =  -1099.42380708     A.U. after    8 cycles
 SCF Done:  E(RM062X) =  -1099.42380709     A.U. after    5 cycles
 Optimization completed.
    -- Stationary point found.
 Normal termination of Gaussian 16 at Sat May 24 09:53:08 2025.

 ---------------------------------------------------------------------
 #P Geom=AllCheck Guess=TCheck SCRF=Check GenChk RM062X/def2TZVPP Freq
 ---------------------------------------------------------------------

 Structure from the checkpoint file:  "1803646687765942100001_well.chk"
 ------------------------------
 Gaussian input prepared by ASE
 ------------------------------
 Charge =  0 Multiplicity = 1

                          Input orientation:
 ---------------------------------------------------------------------
 Center     Atomic      Atomic             Coordinates (Angstroms)
 Number     Number       Type             X           Y           Z
 ---------------------------------------------------------------------
      1          6           0        0.039629   -1.071722   -0.828274
      2          6           0        0.339531   -0.190750    0.385140
      3          9           0        0.650652   -0.929213    1.432913
      4         16           0        0.774874    1.484113    0.350521
      5          8           0        1.415172    1.970998    1.514252
      6          8           0        0.823262    2.161828   -0.889495
      7          8           0       -0.654457    0.821475    0.654208
      8          9           0       -0.285514   -0.340819   -1.876214
      9          9           0        1.108255   -1.801954   -1.113793
     10          9           0       -0.968777   -1.880932   -0.533004
 ---------------------------------------------------------------------

 SCF Done:  E(RM062X) =  -1099.42380709     A.U. after    1 cycles

 Isotropic polarizability for W=    0.000000       50.00 Bohr**3.
 End of Minotr F.D. properties file   721 does not exist.

                      1                      2                      3
                      A                      A                      A
 Frequencies --     42.2151               127.6540               143.7871
 Red. masses --     18.4267                17.0908                16.6309
 Frc consts  --      0.0193                 0.1641                 0.2026
 IR Inten    --      0.2597                 1.2385                 1.6494

                      4                      5                      6
                      A                      A                      A
 Frequencies --    232.8846               260.3610               294.8931
 Red. masses --     18.1289                17.8034                18.0269
 Frc consts  --      0.5793                 0.7111                 0.9236
 IR Inten    --      1.4761                 2.2905                 1.5120

                      7                      8                      9
                      A                      A                      A
 Frequencies --    338.6583               418.1004               474.2762
 Red. masses --     18.5817                18.6826                17.4088
 Frc consts  --      1.2556                 1.9242                 2.3072
 IR Inten    --      1.0855                 9.3823                11.3039

                     10                     11                     12
                      A                      A                      A
 Frequencies --    487.4802               531.6800               560.9195
 Red. masses --     17.6839                17.8355                17.7246
 Frc consts  --      2.4760                 2.9705                 3.2857
 IR Inten    --     14.6828                15.1881                15.5269

                     13                     14                     15
                      A                      A                      A
 Frequencies --    606.9847               631.0765               695.9424
 Red. masses --     17.4073                16.9404                17.1073
 Frc consts  --      3.7786                 3.9750                 4.8818
 IR Inten    --      8.0697                21.2454               128.2810

                     16                     17                     18
                      A                      A                      A
 Frequencies --    786.3273              1041.0721              1106.1280
 Red. masses --     17.4813                14.3491                14.2146
 Frc consts  --      6.3684                 9.1630                10.2470
 IR Inten    --      8.9086               110.8008               175.6134

                     19                     20                     21
                      A                      A                      A
 Frequencies --   1236.8963              1276.0247              1311.5595
 Red. masses --     15.4910                13.1782                13.2213
 Frc consts  --     13.9635                12.6422                13.3999
 IR Inten    --    149.1054               245.9138               288.2465

                     22                     23                     24
                      A                      A                      A
 Frequencies --   1372.7624              1393.6193              1481.4651
 Red. masses --     15.0888                12.6448                20.5451
 Frc consts  --     16.7531                14.4694                26.5670
 IR Inten    --    106.4870               125.8737               253.1736

 - Thermochemistry -
 -------------------
 Temperature   298.150 Kelvin.  Pressure   1.00000 Atm.
 Atom     1 has atomic number  6 and mass  12.00000

 Molecular mass:   179.95043 amu.
 Principal axes and moments of inertia in atomic units:
                           1         2         3
     Eigenvalues --   836.711661853.951002167.88917
           X            0.25570   0.08089   0.96337
           Y            0.87973  -0.43266  -0.19717
           Z            0.40087   0.89792  -0.18179
 This molecule is an asymmetric top.
 Rotational symmetry number  1.
 Warning -- assumption of classical behavior for rotation
           may cause significant error
 Rotational temperatures (Kelvin)      0.10352     0.04672     0.03995
 Rotational constants (GHZ):           2.15695     0.97346     0.83249
 Zero-point vibrational energy     100801.9 (Joules/Mol)
                                   24.09224 (Kcal/Mol)
 Warning -- explicit consideration of  13 degrees of freedom as
           vibrations may cause significant error
 Vibrational temperatures:     60.74   183.67   206.88   335.07   374.60
          (Kelvin)            424.29   487.25   601.55   682.38   701.38
                              764.97   807.04   873.32   907.98  1001.31
                             1131.35  1497.87  1591.47  1779.62  1835.91
                             1887.04  1975.10  2005.11  2131.50

 Zero-point correction=                           0.038393 (Hartree/Particle)
 Thermal correction to Energy=                    0.046963
 Thermal correction to Enthalpy=                  0.047907
 Thermal correction to Gibbs Free Energy=         0.003623
 Sum of electronic and zero-point Energies=          -1099.385414
 Sum of electronic and thermal Energies=             -1099.376844
 Sum of electronic and thermal Enthalpies=           -1099.375900
 Sum of electronic and thermal Free Energies=        -1099.420184

                     E (Thermal)             CV                S
                      KCal/Mol        Cal/Mol-Kelvin    Cal/Mol-Kelvin
 Total                   29.470             29.798             93.204
 Electronic               0.000              0.000              0.000
 Translational            0.889              2.981             41.469
 Rotational               0.889              2.981             29.599
 Vibrational             27.692             23.836             22.136
 Vibration     1          0.595              1.980              5.152
 Vibration     2          0.611              1.926              2.981
 Vibration     3          0.616              1.909              2.753
 Vibration     4          0.654              1.791              1.857
 Vibration     5          0.668              1.745              1.659
 Vibration     6          0.689              1.683              1.446
 Vibration     7          0.719              1.598              1.218
 Vibration     8          0.781              1.431              0.898
 Vibration     9          0.831              1.307              0.726
 Vibration    10          0.843              1.278              0.690
 Vibration    11          0.887              1.180              0.583
 Vibration    12          0.917              1.116              0.522
 Vibration    13          0.966              1.017              0.438

 Optimization completed.
    -- Stationary point found.
 Normal termination of Gaussian 16 at Sat May 24 09:56:07 2025.
