 Gaussian 16, Revision C.01,
 Gaussian 16:  ES64L-G16RevC.01  3-Jul-2019

 ----------------------------------------------------------------------
 #P M062X/Def2TZVPP Symm(None) scf(xqc) pop(None) freq opt(CalcFC, Tigh
 t)
 ----------------------------------------------------------------------

 ------------------------------
 Gaussian input prepared by ASE
 ------------------------------
 Symbolic Z-matrix:
 Charge =  0 Multiplicity = 2

 SCF Done:  E(UM062X) =  -1100.00194315     A.U. after   16 cycles
 SCF Done:  E(UM062X) =  -1100.00544265     A.U. after   14 cycles
 SCF Done:  E(UM062X) =  -1100.00568571     A.U. after   13 cycles
 SCF Done:  E(UM062X) =  -1100.00570680     A.U. after   10 cycles
 SCF Done:  E(UM062X) =  -1100.00570757     A.U. after    9 cycles
 SCF Done:  E(UM062X) =  -1100.00570765     A.U. after    7 cycles
 SCF Done:  E(UM062X) =  -1100.00570765     A.U. after    7 cycles
 Optimization completed.
    -- Stationary point found.
 Normal termination of Gaussian 16 at Sat May 24 00:24:01 2025.

 ---------------------------------------------------------------------
 #P Geom=AllCheck Guess=TCheck SCRF=Check GenChk UM062X/def2TZVPP Freq
 ---------------------------------------------------------------------

 Structure from the checkpoint file:  "1813535595952630400002_well.chk"
 ------------------------------
 Gaussian input prepared by ASE
 ------------------------------
 Charge =  0 Multiplicity = 2

                          Input orientation:
 ---------------------------------------------------------------------
 Center     Atomic      Atomic             Coordinates (Angstroms)
 Number     Number       Type             X           Y           Z
 ---------------------------------------------------------------------
      1          6           0       -0.578891   -1.279028    0.252998
      2          6           0        0.061356    0.083810    0.156472
      3          9           0       -0.245435    0.623971   -1.031606
      4          9           0       -0.371636    0.909357    1.119735
      5         16           0        1.893593   -0.031575    0.258798
      6          8           0        2.251027   -0.227578    1.610270
      7          8           0        2.294218   -0.897241   -0.794040
      8          8           0        2.260243    1.450663   -0.113832
      9          9           0       -0.273615   -1.949255    1.336875
     10          9           0       -1.870111   -1.272334    0.019295
     11          1           0        2.328641    1.548209   -1.074608
 ---------------------------------------------------------------------

 SCF Done:  E(UM062X) =  -1100.00570765     A.U. after    1 cycles

 Isotropic polarizability for W=    0.000000       52.04 Bohr**3.
 End of Minotr F.D. properties file   721 does not exist.

                      1                      2                      3
                      A                      A                      A
 Frequencies --     36.8202                64.6880               130.2930
 Red. masses --     16.0521                13.3041                14.1075
 Frc consts  --      0.0128                 0.0328                 0.1411
 IR Inten    --      0.9516                 1.1049                 1.5801

                      4                      5                      6
                      A                      A                      A
 Frequencies --    192.1399               215.7516               235.1505
 Red. masses --      8.5627                17.2930                 6.9406
 Frc consts  --      0.1862                 0.4743                 0.2261
 IR Inten    --      9.1785                 1.3174                15.9762

                      7                      8                      9
                      A                      A                      A
 Frequencies --    296.2821               321.0978               333.1477
 Red. masses --     13.8886                 3.9195                 4.8927
 Frc consts  --      0.7183                 0.2381                 0.3199
 IR Inten    --      0.7401                22.0015                17.6414

                     10                     11                     12
                      A                      A                      A
 Frequencies --    370.6846               444.0354               494.4248
 Red. masses --      2.7461                 6.3592                 6.6663
 Frc consts  --      0.2223                 0.7387                 0.9601
 IR Inten    --     28.9869                29.2801                 6.5574

                     13                     14                     15
                      A                      A                      A
 Frequencies --    510.8528               596.0365               613.8164
 Red. masses --     14.7563                16.8888                17.0954
 Frc consts  --      2.2689                 3.5350                 3.7950
 IR Inten    --     36.8830                16.6862                77.8117

                     16                     17                     18
                      A                      A                      A
 Frequencies --    655.6381               792.5244               899.5272
 Red. masses --     17.8279                14.3336                16.4354
 Frc consts  --      4.5152                 5.3043                 7.8354
 IR Inten    --     70.2939                12.9123               235.7510

                     19                     20                     21
                      A                      A                      A
 Frequencies --   1053.3266              1139.6340              1181.3456
 Red. masses --     13.7274                 1.1835                13.4138
 Frc consts  --      8.9735                 0.9056                11.0295
 IR Inten    --     29.1360                97.4471               192.0134

                     22                     23                     24
                      A                      A                      A
 Frequencies --   1225.2494              1270.1429              1351.5418
 Red. masses --     13.3816                17.1954                13.4347
 Frc consts  --     11.8361                16.3443                14.4590
 IR Inten    --    171.2481                42.3796               246.0289

                     25                     26                     27
                      A                      A                      A
 Frequencies --   1408.7157              1499.9472              3810.0326
 Red. masses --     12.8557                15.4822                 1.0656
 Frc consts  --     15.0312                20.5227                 9.1142
 IR Inten    --     75.5176               276.1318               185.4264

 - Thermochemistry -
 -------------------
 Temperature   298.150 Kelvin.  Pressure   1.00000 Atm.
 Atom     1 has atomic number  6 and mass  12.00000

 Molecular mass:   180.95825 amu.
 Principal axes and moments of inertia in atomic units:
                           1         2         3
     Eigenvalues --   950.725291831.163852063.47813
           X            0.91852  -0.36381  -0.15477
           Y            0.38995   0.76903   0.50649
           Z           -0.06524  -0.52558   0.84824
 This molecule is an asymmetric top.
 Rotational symmetry number  1.
 Warning -- assumption of classical behavior for rotation
           may cause significant error
 Rotational temperatures (Kelvin)      0.09110     0.04730     0.04197
 Rotational constants (GHZ):           1.89828     0.98557     0.87461
 Zero-point vibrational energy     126462.3 (Joules/Mol)
                                   30.22522 (Kcal/Mol)
 Warning -- explicit consideration of  15 degrees of freedom as
           vibrations may cause significant error
 Vibrational temperatures:     52.98    93.07   187.46   276.45   310.42
          (Kelvin)            338.33   426.28   461.99   479.33   533.33
                              638.87   711.37   735.00   857.56   883.14
                              943.32  1140.27  1294.22  1515.50  1639.68
                             1699.69  1762.86  1827.45  1944.57  2026.83
                             2158.09  5481.79

 Zero-point correction=                           0.048167 (Hartree/Particle)
 Thermal correction to Energy=                    0.057914
 Thermal correction to Enthalpy=                  0.058858
 Thermal correction to Gibbs Free Energy=         0.011195
 Sum of electronic and zero-point Energies=          -1099.957541
 Sum of electronic and thermal Energies=             -1099.947794
 Sum of electronic and thermal Enthalpies=           -1099.946850
 Sum of electronic and thermal Free Energies=        -1099.994513

                     E (Thermal)             CV                S
                      KCal/Mol        Cal/Mol-Kelvin    Cal/Mol-Kelvin
 Total                   36.341             33.176            100.316
 Electronic               0.000              0.000              1.377
 Translational            0.889              2.981             41.486
 Rotational               0.889              2.981             29.664
 Vibrational             34.564             27.214             27.788
 Vibration     1          0.594              1.982              5.423
 Vibration     2          0.597              1.971              4.309
 Vibration     3          0.612              1.923              2.942
 Vibration     4          0.634              1.851              2.207
 Vibration     5          0.645              1.817              1.994
 Vibration     6          0.655              1.787              1.839
 Vibration     7          0.690              1.681              1.438
 Vibration     8          0.707              1.633              1.305
 Vibration     9          0.715              1.609              1.245
 Vibration    10          0.743              1.532              1.077
 Vibration    11          0.804              1.374              0.814
 Vibration    12          0.850              1.262              0.672
 Vibration    13          0.866              1.226              0.632
 Vibration    14          0.954              1.040              0.457
 Vibration    15          0.973              1.003              0.426

 Optimization completed.
    -- Stationary point found.
 Normal termination of Gaussian 16 at Sat May 24 00:29:44 2025.
