 Gaussian 16, Revision C.01,
 Gaussian 16:  ES64L-G16RevC.01  3-Jul-2019

 ----------------------------------------------------------------------
 #P M062X/Def2TZVPP Symm(None) scf(xqc) pop(None) freq opt(CalcFC, Tigh
 t)
 ----------------------------------------------------------------------

 ------------------------------
 Gaussian input prepared by ASE
 ------------------------------
 Symbolic Z-matrix:
 Charge =  0 Multiplicity = 2

 SCF Done:  E(UM062X) =  -1100.01131557     A.U. after   17 cycles
 SCF Done:  E(UM062X) =  -1100.01737086     A.U. after   16 cycles
 SCF Done:  E(UM062X) =  -1100.01821994     A.U. after   15 cycles
 SCF Done:  E(UM062X) =  -1100.01883849     A.U. after   16 cycles
 SCF Done:  E(UM062X) =  -1100.01928692     A.U. after   12 cycles
 SCF Done:  E(UM062X) =  -1100.01946926     A.U. after   13 cycles
 SCF Done:  E(UM062X) =  -1100.01952719     A.U. after   12 cycles
 SCF Done:  E(UM062X) =  -1100.01957179     A.U. after   13 cycles
 SCF Done:  E(UM062X) =  -1100.01982655     A.U. after   14 cycles
 SCF Done:  E(UM062X) =  -1100.00808643     A.U. after   16 cycles
 SCF Done:  E(UM062X) =  -1100.02073962     A.U. after   13 cycles
 SCF Done:  E(UM062X) =  -1100.02087765     A.U. after   12 cycles
 SCF Done:  E(UM062X) =  -1100.02088868     A.U. after   11 cycles
 SCF Done:  E(UM062X) =  -1100.02089620     A.U. after    9 cycles
 SCF Done:  E(UM062X) =  -1100.02089829     A.U. after    9 cycles
 SCF Done:  E(UM062X) =  -1100.02089840     A.U. after    8 cycles
 SCF Done:  E(UM062X) =  -1100.02089843     A.U. after    7 cycles
 SCF Done:  E(UM062X) =  -1100.02089843     A.U. after    7 cycles
 SCF Done:  E(UM062X) =  -1100.02089844     A.U. after    4 cycles
 Optimization completed.
    -- Stationary point found.
 Normal termination of Gaussian 16 at Sat May 24 00:51:08 2025.

 ---------------------------------------------------------------------
 #P Geom=AllCheck Guess=TCheck SCRF=Check GenChk UM062X/def2TZVPP Freq
 ---------------------------------------------------------------------

 Structure from the checkpoint file:  "1813535465033480600002_well.chk"
 ------------------------------
 Gaussian input prepared by ASE
 ------------------------------
 Charge =  0 Multiplicity = 2

                          Input orientation:
 ---------------------------------------------------------------------
 Center     Atomic      Atomic             Coordinates (Angstroms)
 Number     Number       Type             X           Y           Z
 ---------------------------------------------------------------------
      1          6           0       -0.538048   -1.197436    0.039397
      2          6           0        0.253210   -0.227197    0.886640
      3          9           0       -0.424846    0.736564    1.451837
      4         16           0        1.958851    0.077933    0.582448
      5          8           0        2.466698    0.784967    1.693497
      6          8           0        2.491439   -1.148942    0.105457
      7          8           0        1.913839    1.106154   -0.615390
      8          9           0       -0.305787   -0.981777   -1.265844
      9          9           0       -0.209284   -2.452179    0.301979
     10          9           0       -1.833568   -1.035391    0.258849
     11          1           0        1.889620    0.628162   -1.457380
 ---------------------------------------------------------------------

 SCF Done:  E(UM062X) =  -1100.02089844     A.U. after    1 cycles

 Isotropic polarizability for W=    0.000000       51.60 Bohr**3.
 End of Minotr F.D. properties file   721 does not exist.

                      1                      2                      3
                      A                      A                      A
 Frequencies --     35.9288                58.5671               114.6997
 Red. masses --     18.3829                11.6447                 8.6842
 Frc consts  --      0.0140                 0.0235                 0.0673
 IR Inten    --      0.1658                 2.7115                 6.2966

                      4                      5                      6
                      A                      A                      A
 Frequencies --    142.4234               245.2819               267.8419
 Red. masses --     16.6596                14.6020                 8.2175
 Frc consts  --      0.1991                 0.5176                 0.3473
 IR Inten    --      1.8550                 0.9043                 2.9317

                      7                      8                      9
                      A                      A                      A
 Frequencies --    307.9047               326.4791               365.7796
 Red. masses --     11.5798                 6.1785                 1.7274
 Frc consts  --      0.6468                 0.3880                 0.1362
 IR Inten    --      9.8441                14.8046                65.5814

                     10                     11                     12
                      A                      A                      A
 Frequencies --    443.2345               469.2278               497.7070
 Red. masses --      7.7825                 5.3445                10.8613
 Frc consts  --      0.9008                 0.6933                 1.5852
 IR Inten    --     14.6578                32.8760                 1.9237

                     13                     14                     15
                      A                      A                      A
 Frequencies --    523.4461               593.4048               614.8873
 Red. masses --     16.2056                16.5742                15.0063
 Frc consts  --      2.6161                 3.4386                 3.3428
 IR Inten    --     11.9830                 4.3035                10.3399

                     16                     17                     18
                      A                      A                      A
 Frequencies --    631.4143               764.2807               885.8372
 Red. masses --     17.9821                17.4564                16.6999
 Frc consts  --      4.2240                 6.0077                 7.7210
 IR Inten    --    149.5772                 8.8140               180.5158

                     19                     20                     21
                      A                      A                      A
 Frequencies --   1032.7940              1147.2904              1199.6615
 Red. masses --     13.3238                 1.2210                 9.8539
 Frc consts  --      8.3735                 0.9469                 8.3556
 IR Inten    --     47.4376               147.2290               186.8811

                     22                     23                     24
                      A                      A                      A
 Frequencies --   1248.3967              1271.7920              1310.1079
 Red. masses --     17.2340                13.5452                12.9484
 Frc consts  --     15.8249                12.9083                13.0942
 IR Inten    --     85.6381               326.5622               248.2415

                     25                     26                     27
                      A                      A                      A
 Frequencies --   1444.5727              1502.2395              3805.2454
 Red. masses --     13.0174                15.2658                 1.0656
 Frc consts  --     16.0049                20.2977                 9.0914
 IR Inten    --     92.4022               284.5936               163.7107

 - Thermochemistry -
 -------------------
 Temperature   298.150 Kelvin.  Pressure   1.00000 Atm.
 Atom     1 has atomic number  6 and mass  12.00000

 Molecular mass:   180.95825 amu.
 Principal axes and moments of inertia in atomic units:
                           1         2         3
     Eigenvalues --   910.720861949.922712197.23717
           X            0.86553  -0.47251   0.16612
           Y            0.47130   0.65611  -0.58940
           Z            0.16950   0.58844   0.79058
 This molecule is an asymmetric top.
 Rotational symmetry number  1.
 Warning -- assumption of classical behavior for rotation
           may cause significant error
 Rotational temperatures (Kelvin)      0.09510     0.04442     0.03942
 Rotational constants (GHZ):           1.98166     0.92554     0.82137
 Zero-point vibrational energy     127105.9 (Joules/Mol)
                                   30.37904 (Kcal/Mol)
 Warning -- explicit consideration of  15 degrees of freedom as
           vibrations may cause significant error
 Vibrational temperatures:     51.69    84.26   165.03   204.92   352.91
          (Kelvin)            385.36   443.01   469.73   526.28   637.72
                              675.11   716.09   753.12   853.78   884.69
                              908.46  1099.63  1274.52  1485.96  1650.69
                             1726.05  1796.16  1829.83  1884.95  2078.42
                             2161.39  5474.90

 Zero-point correction=                           0.048412 (Hartree/Particle)
 Thermal correction to Energy=                    0.058062
 Thermal correction to Enthalpy=                  0.059006
 Thermal correction to Gibbs Free Energy=         0.011277
 Sum of electronic and zero-point Energies=          -1099.972486
 Sum of electronic and thermal Energies=             -1099.962837
 Sum of electronic and thermal Enthalpies=           -1099.961893
 Sum of electronic and thermal Free Energies=        -1100.009621

                     E (Thermal)             CV                S
                      KCal/Mol        Cal/Mol-Kelvin    Cal/Mol-Kelvin
 Total                   36.434             32.919            100.453
 Electronic               0.000              0.000              1.377
 Translational            0.889              2.981             41.486
 Rotational               0.889              2.981             29.746
 Vibrational             34.657             26.957             27.843
 Vibration     1          0.594              1.982              5.472
 Vibration     2          0.596              1.974              4.505
 Vibration     3          0.608              1.937              3.188
 Vibration     4          0.616              1.911              2.771
 Vibration     5          0.660              1.771              1.764
 Vibration     6          0.673              1.732              1.610
 Vibration     7          0.698              1.659              1.374
 Vibration     8          0.710              1.623              1.277
 Vibration     9          0.739              1.543              1.097
 Vibration    10          0.803              1.376              0.817
 Vibration    11          0.826              1.318              0.740
 Vibration    12          0.853              1.255              0.664
 Vibration    13          0.878              1.198              0.602
 Vibration    14          0.951              1.046              0.461
 Vibration    15          0.974              1.000              0.425

 Optimization completed.
    -- Stationary point found.
 Normal termination of Gaussian 16 at Sat May 24 00:56:39 2025.
