 Gaussian 16, Revision C.01,
 Gaussian 16:  ES64L-G16RevC.01  3-Jul-2019

 ----------------------------------------------------------------------
 #P M062X/Def2TZVPP Symm(None) scf(xqc) pop(None) freq opt(CalcFC, Tigh
 t)
 ----------------------------------------------------------------------

 ------------------------------
 Gaussian input prepared by ASE
 ------------------------------
 Symbolic Z-matrix:
 Charge =  0 Multiplicity = 2

 SCF Done:  E(UM062X) =  -1124.05536591     A.U. after   17 cycles
 SCF Done:  E(UM062X) =  -1124.05843423     A.U. after   16 cycles
 SCF Done:  E(UM062X) =  -1124.05849731     A.U. after   13 cycles
 SCF Done:  E(UM062X) =  -1124.05849885     A.U. after   13 cycles
 SCF Done:  E(UM062X) =  -1124.05849898     A.U. after   11 cycles
 SCF Done:  E(UM062X) =  -1124.05849898     A.U. after    8 cycles
 SCF Done:  E(UM062X) =  -1124.05849898     A.U. after    5 cycles
 SCF Done:  E(UM062X) =  -1124.05849898     A.U. after    5 cycles
 Optimization completed.
    -- Stationary point found.
 Normal termination of Gaussian 16 at Sat May 24 00:25:01 2025.

 ---------------------------------------------------------------------
 #P Geom=AllCheck Guess=TCheck SCRF=Check GenChk UM062X/def2TZVPP Freq
 ---------------------------------------------------------------------

 Structure from the checkpoint file:  "1833195415772100000002_well.chk"
 ------------------------------
 Gaussian input prepared by ASE
 ------------------------------
 Charge =  0 Multiplicity = 2

                          Input orientation:
 ---------------------------------------------------------------------
 Center     Atomic      Atomic             Coordinates (Angstroms)
 Number     Number       Type             X           Y           Z
 ---------------------------------------------------------------------
      1          6           0       -0.619634   -1.330382    0.193206
      2          6           0        0.041545    0.063644    0.089534
      3          9           0       -0.232799    0.602051   -1.090596
      4          9           0       -0.400159    0.844471    1.063004
      5         16           0        1.946841   -0.009666    0.249377
      6          8           0        2.213454   -0.254383    1.642045
      7          8           0        2.378947   -0.903790   -0.793640
      8          9           0       -0.298168   -2.068871   -0.851716
      9          9           0       -0.227650   -1.935454    1.301456
     10          9           0       -1.935910   -1.173438    0.225422
 ---------------------------------------------------------------------

 SCF Done:  E(UM062X) =  -1124.05849898     A.U. after    1 cycles

 Isotropic polarizability for W=    0.000000       52.08 Bohr**3.
 End of Minotr F.D. properties file   721 does not exist.

                      1                      2                      3
                      A                      A                      A
 Frequencies --     13.6898                69.2262               124.3154
 Red. masses --     17.4088                17.7765                17.6747
 Frc consts  --      0.0019                 0.0502                 0.1609
 IR Inten    --      0.5946                 0.3454                 1.0994

                      4                      5                      6
                      A                      A                      A
 Frequencies --    178.3617               218.7067               242.7692
 Red. masses --     17.2145                18.6319                17.5308
 Frc consts  --      0.3227                 0.5251                 0.6087
 IR Inten    --      1.3727                 1.1188                 5.0747

                      7                      8                      9
                      A                      A                      A
 Frequencies --    290.6806               321.3174               362.2457
 Red. masses --     19.0116                18.9054                19.0242
 Frc consts  --      0.9465                 1.1500                 1.4708
 IR Inten    --      2.8295                 0.1933                 1.8720

                     10                     11                     12
                      A                      A                      A
 Frequencies --    423.7373               456.1638               504.2729
 Red. masses --     22.9060                18.1290                19.4533
 Frc consts  --      2.4232                 2.2226                 2.9146
 IR Inten    --     35.2886                 2.6506                36.2811

                     13                     14                     15
                      A                      A                      A
 Frequencies --    549.1839               604.0531               650.9923
 Red. masses --     18.1993                17.7859                17.2877
 Frc consts  --      3.2340                 3.8236                 4.3166
 IR Inten    --      1.9326                 1.5681                 5.1626

                     16                     17                     18
                      A                      A                      A
 Frequencies --    767.1616               944.1700              1146.5725
 Red. masses --     16.4793                13.8042                17.7176
 Frc consts  --      5.7143                 7.2504                13.7233
 IR Inten    --     35.8208                97.3540                60.3096

                     19                     20                     21
                      A                      A                      A
 Frequencies --   1178.7046              1286.0382              1287.2984
 Red. masses --     13.8390                13.2027                13.4456
 Frc consts  --     11.3283                12.8653                13.1277
 IR Inten    --    171.5916               220.4727                88.9223

                     22                     23                     24
                      A                      A                      A
 Frequencies --   1309.3016              1367.5435              1372.3463
 Red. masses --     13.3403                12.9467                19.0023
 Frc consts  --     13.4740                14.2657                21.0855
 IR Inten    --    185.1835               199.3416               250.4007

 - Thermochemistry -
 -------------------
 Temperature   298.150 Kelvin.  Pressure   1.00000 Atm.
 Atom     1 has atomic number  6 and mass  12.00000

 Molecular mass:   182.95392 amu.
 Principal axes and moments of inertia in atomic units:
                           1         2         3
     Eigenvalues --  1046.720891798.001351864.27716
           X            0.95047  -0.31028  -0.01849
           Y            0.30147   0.93471  -0.18824
           Z            0.07569   0.17334   0.98195
 This molecule is an asymmetric top.
 Rotational symmetry number  1.
 Warning -- assumption of classical behavior for rotation
           may cause significant error
 Rotational temperatures (Kelvin)      0.08275     0.04817     0.04646
 Rotational constants (GHZ):           1.72419     1.00375     0.96806
 Zero-point vibrational energy      93720.6 (Joules/Mol)
                                   22.39975 (Kcal/Mol)
 Warning -- explicit consideration of  14 degrees of freedom as
           vibrations may cause significant error
 Vibrational temperatures:     19.70    99.60   178.86   256.62   314.67
          (Kelvin)            349.29   418.22   462.30   521.19   609.66
                              656.32   725.54   790.15   869.10   936.63
                             1103.77  1358.45  1649.66  1695.89  1850.32
                             1852.14  1883.79  1967.59  1974.50

 Zero-point correction=                           0.035696 (Hartree/Particle)
 Thermal correction to Energy=                    0.045197
 Thermal correction to Enthalpy=                  0.046142
 Thermal correction to Gibbs Free Energy=        -0.002014
 Sum of electronic and zero-point Energies=          -1124.022803
 Sum of electronic and thermal Energies=             -1124.013302
 Sum of electronic and thermal Enthalpies=           -1124.012357
 Sum of electronic and thermal Free Energies=        -1124.060513

                     E (Thermal)             CV                S
                      KCal/Mol        Cal/Mol-Kelvin    Cal/Mol-Kelvin
 Total                   28.362             31.570            101.352
 Electronic               0.000              0.000              1.377
 Translational            0.889              2.981             41.519
 Rotational               0.889              2.981             29.641
 Vibrational             26.584             25.609             28.815
 Vibration     1          0.593              1.986              7.387
 Vibration     2          0.598              1.969              4.175
 Vibration     3          0.610              1.929              3.032
 Vibration     4          0.629              1.869              2.345
 Vibration     5          0.646              1.813              1.970
 Vibration     6          0.659              1.775              1.782
 Vibration     7          0.687              1.691              1.470
 Vibration     8          0.707              1.633              1.303
 Vibration     9          0.736              1.550              1.112
 Vibration    10          0.786              1.419              0.879
 Vibration    11          0.814              1.347              0.777
 Vibration    12          0.860              1.241              0.648
 Vibration    13          0.904              1.141              0.546
 Vibration    14          0.963              1.023              0.443

                           ! Non-Optimized Parameters !
 Normal termination of Gaussian 16 at Sat May 24 00:29:33 2025.
