 Gaussian 16, Revision C.01,
 Gaussian 16:  ES64L-G16RevC.01  3-Jul-2019

 ----------------------------------------------------------------------
 #P M062X/Def2TZVPP Symm(None) scf(xqc) pop(None) freq opt(CalcFC, Tigh
 t)
 ----------------------------------------------------------------------

 ------------------------------
 Gaussian input prepared by ASE
 ------------------------------
 Symbolic Z-matrix:
 Charge =  0 Multiplicity = 1

 SCF Done:  E(RM062X) =  -1124.69702758     A.U. after   14 cycles
 SCF Done:  E(RM062X) =  -1124.70319883     A.U. after   13 cycles
 SCF Done:  E(RM062X) =  -1124.70370871     A.U. after   13 cycles
 SCF Done:  E(RM062X) =  -1124.70372078     A.U. after   11 cycles
 SCF Done:  E(RM062X) =  -1124.70372260     A.U. after   11 cycles
 SCF Done:  E(RM062X) =  -1124.70372297     A.U. after    8 cycles
 SCF Done:  E(RM062X) =  -1124.70372297     A.U. after    5 cycles
 Optimization completed.
    -- Stationary point found.
 Normal termination of Gaussian 16 at Sat May 24 00:20:21 2025.

 ---------------------------------------------------------------------
 #P Geom=AllCheck Guess=TCheck SCRF=Check GenChk RM062X/def2TZVPP Freq
 ---------------------------------------------------------------------

 Structure from the checkpoint file:  "1843365746072630600001_well.chk"
 ------------------------------
 Gaussian input prepared by ASE
 ------------------------------
 Charge =  0 Multiplicity = 1

                          Input orientation:
 ---------------------------------------------------------------------
 Center     Atomic      Atomic             Coordinates (Angstroms)
 Number     Number       Type             X           Y           Z
 ---------------------------------------------------------------------
      1          6           0       -0.599681   -1.295875    0.162228
      2          6           0        0.117256    0.062905    0.083590
      3          9           0       -0.113394    0.613484   -1.115973
      4          9           0       -0.371736    0.865018    1.034151
      5         16           0        1.977102   -0.078752    0.346872
      6          8           0        2.400171   -0.982423   -0.706263
      7          8           0        2.250940    1.437855   -0.099820
      8          9           0       -0.335620   -2.035055   -0.897568
      9          9           0       -0.187954   -1.934003    1.256190
     10          9           0       -1.910883   -1.114558    0.244272
     11          1           0        1.998726    1.571022   -1.028435
 ---------------------------------------------------------------------

 SCF Done:  E(RM062X) =  -1124.70372297     A.U. after    1 cycles

 Isotropic polarizability for W=    0.000000       52.26 Bohr**3.
 End of Minotr F.D. properties file   721 does not exist.

                      1                      2                      3
                      A                      A                      A
 Frequencies --     50.2008                67.8954               126.4536
 Red. masses --     14.3914                13.3308                15.5427
 Frc consts  --      0.0214                 0.0362                 0.1464
 IR Inten    --      0.7719                 0.3930                 0.6133

                      4                      5                      6
                      A                      A                      A
 Frequencies --    204.0262               228.7263               245.9166
 Red. masses --     14.2613                17.9131                 4.6255
 Frc consts  --      0.3498                 0.5521                 0.1648
 IR Inten    --      5.2197                 2.0388                13.6834

                      7                      8                      9
                      A                      A                      A
 Frequencies --    278.8856               324.4851               355.2883
 Red. masses --     16.1857                13.5187                 2.3790
 Frc consts  --      0.7417                 0.8386                 0.1769
 IR Inten    --      0.7644                 0.5460                22.3661

                     10                     11                     12
                      A                      A                      A
 Frequencies --    380.7911               420.6566               503.0879
 Red. masses --      9.4774                14.4829                 2.5486
 Frc consts  --      0.8097                 1.5099                 0.3801
 IR Inten    --      4.8649                10.3345               136.5312

                     13                     14                     15
                      A                      A                      A
 Frequencies --    527.9783               557.0442               611.8961
 Red. masses --     11.2551                17.1262                16.3406
 Frc consts  --      1.8486                 3.1311                 3.6047
 IR Inten    --     18.1484                 7.7753                 8.0977

                     16                     17                     18
                      A                      A                      A
 Frequencies --    652.0248               772.1936               844.3566
 Red. masses --     15.9184                17.0479                16.7347
 Frc consts  --      3.9873                 5.9893                 7.0294
 IR Inten    --     19.7588                21.6236               181.6373

                     19                     20                     21
                      A                      A                      A
 Frequencies --    999.3072              1140.9874              1191.9569
 Red. masses --     13.5051                 1.2952                12.5045
 Frc consts  --      7.9460                 0.9934                10.4674
 IR Inten    --     78.0444                68.7623               173.9096

                     22                     23                     24
                      A                      A                      A
 Frequencies --   1242.7418              1260.7442              1274.9793
 Red. masses --     12.6946                 8.0615                13.3542
 Frc consts  --     11.5513                 7.5496                12.7901
 IR Inten    --     41.1562               122.7767               230.4685

                     25                     26                     27
                      A                      A                      A
 Frequencies --   1307.5691              1397.7500              3745.5336
 Red. masses --     12.6440                12.6108                 1.0647
 Frc consts  --     12.7369                14.5162                 8.8004
 IR Inten    --    389.1074               114.3885               102.8183

 - Thermochemistry -
 -------------------
 Temperature   298.150 Kelvin.  Pressure   1.00000 Atm.
 Atom     1 has atomic number  6 and mass  12.00000

 Molecular mass:   183.96174 amu.
 Principal axes and moments of inertia in atomic units:
                           1         2         3
     Eigenvalues --   965.841281837.019182093.54018
           X            0.85617  -0.49421   0.15076
           Y            0.50943   0.85615  -0.08649
           Z           -0.08633   0.15086   0.98478
 This molecule is an asymmetric top.
 Rotational symmetry number  1.
 Warning -- assumption of classical behavior for rotation
           may cause significant error
 Rotational temperatures (Kelvin)      0.08968     0.04715     0.04137
 Rotational constants (GHZ):           1.86857     0.98243     0.86205
 Zero-point vibrational energy     123894.1 (Joules/Mol)
                                   29.61140 (Kcal/Mol)
 Warning -- explicit consideration of  15 degrees of freedom as
           vibrations may cause significant error
 Vibrational temperatures:     72.23    97.69   181.94   293.55   329.09
          (Kelvin)            353.82   401.25   466.86   511.18   547.87
                              605.23   723.83   759.64   801.46   880.38
                              938.12  1111.01  1214.84  1437.78  1641.63
                             1714.96  1788.03  1813.93  1834.41  1881.30
                             2011.05  5388.99

 Zero-point correction=                           0.047189 (Hartree/Particle)
 Thermal correction to Energy=                    0.056899
 Thermal correction to Enthalpy=                  0.057843
 Thermal correction to Gibbs Free Energy=         0.011184
 Sum of electronic and zero-point Energies=          -1124.656534
 Sum of electronic and thermal Energies=             -1124.646824
 Sum of electronic and thermal Enthalpies=           -1124.645880
 Sum of electronic and thermal Free Energies=        -1124.692539

                     E (Thermal)             CV                S
                      KCal/Mol        Cal/Mol-Kelvin    Cal/Mol-Kelvin
 Total                   35.705             33.434             98.202
 Electronic               0.000              0.000              0.000
 Translational            0.889              2.981             41.535
 Rotational               0.889              2.981             29.697
 Vibrational             33.927             27.472             26.970
 Vibration     1          0.595              1.978              4.809
 Vibration     2          0.598              1.970              4.213
 Vibration     3          0.611              1.927              2.999
 Vibration     4          0.640              1.834              2.096
 Vibration     5          0.651              1.797              1.889
 Vibration     6          0.660              1.770              1.760
 Vibration     7          0.679              1.713              1.540
 Vibration     8          0.709              1.626              1.287
 Vibration     9          0.731              1.564              1.143
 Vibration    10          0.751              1.511              1.036
 Vibration    11          0.783              1.425              0.890
 Vibration    12          0.858              1.243              0.650
 Vibration    13          0.883              1.188              0.592
 Vibration    14          0.913              1.124              0.530
 Vibration    15          0.971              1.007              0.430

 Optimization completed.
    -- Stationary point found.
 Normal termination of Gaussian 16 at Sat May 24 00:24:13 2025.
