 Gaussian 16, Revision C.01,
 Gaussian 16:  ES64L-G16RevC.01  3-Jul-2019

 ----------------------------------------------------------------------
 #P M062X/Def2TZVPP Symm(None) scf(xqc) pop(None) freq opt(CalcFC, Tigh
 t)
 ----------------------------------------------------------------------

 ------------------------------
 Gaussian input prepared by ASE
 ------------------------------
 Symbolic Z-matrix:
 Charge =  0 Multiplicity = 2

 SCF Done:  E(UM062X) =  -1199.24747948     A.U. after   30 cycles
 SCF Done:  E(UM062X) =  -1199.24908782     A.U. after   23 cycles
 SCF Done:  E(UM062X) =  -1199.24912967     A.U. after   19 cycles
 SCF Done:  E(UM062X) =  -1199.24913690     A.U. after   19 cycles
 SCF Done:  E(UM062X) =  -1199.24913825     A.U. after   16 cycles
 SCF Done:  E(UM062X) =  -1199.24914236     A.U. after   19 cycles
 SCF Done:  E(UM062X) =  -1199.24891423     A.U. after   23 cycles
 SCF Done:  E(UM062X) =  -1199.24155776     A.U. after   22 cycles
 SCF Done:  E(UM062X) =  -1199.24285204     A.U. after   21 cycles
 SCF Done:  E(UM062X) =  -1199.24677497     A.U. after   19 cycles
 SCF Done:  E(UM062X) =  -1199.24958427     A.U. after   12 cycles
 SCF Done:  E(UM062X) =  -1199.24937237     A.U. after   21 cycles
 SCF Done:  E(UM062X) =  -1199.24958248     A.U. after   20 cycles
 SCF Done:  E(UM062X) =  -1199.24960899     A.U. after   12 cycles
 SCF Done:  E(UM062X) =  -1199.24961400     A.U. after   16 cycles
 SCF Done:  E(UM062X) =  -1199.24961263     A.U. after   17 cycles
 SCF Done:  E(UM062X) =  -1199.24961539     A.U. after   15 cycles
 SCF Done:  E(UM062X) =  -1199.24961549     A.U. after   10 cycles
 SCF Done:  E(UM062X) =  -1199.24961549     A.U. after    9 cycles
 Optimization completed.
    -- Stationary point found.
 Normal termination of Gaussian 16 at Sat May 24 01:24:09 2025.

 ---------------------------------------------------------------------
 #P Geom=AllCheck Guess=TCheck SCRF=Check GenChk UM062X/def2TZVPP Freq
 ---------------------------------------------------------------------

 Structure from the checkpoint file:  "1993676336753150000002_well.chk"
 ------------------------------
 Gaussian input prepared by ASE
 ------------------------------
 Charge =  0 Multiplicity = 2

                          Input orientation:
 ---------------------------------------------------------------------
 Center     Atomic      Atomic             Coordinates (Angstroms)
 Number     Number       Type             X           Y           Z
 ---------------------------------------------------------------------
      1          6           0       -0.612690   -1.328079    0.182317
      2          6           0        0.050819    0.065104    0.073917
      3          9           0       -0.256911    0.604936   -1.104324
      4          9           0       -0.403072    0.839365    1.054538
      5         16           0        1.888453    0.013099    0.190638
      6          8           0        2.212373   -0.154918    1.611029
      7          8           0        2.344958   -0.963524   -0.723693
      8          8           0        2.308122    1.404783   -0.008132
      9          9           0       -0.357025   -2.049824   -0.892136
     10          9           0       -0.151727   -1.956834    1.255660
     11          9           0       -1.921244   -1.172042    0.299179
 ---------------------------------------------------------------------

 SCF Done:  E(UM062X) =  -1199.24961549     A.U. after    1 cycles

 Isotropic polarizability for W=    0.000000       56.84 Bohr**3.
 End of Minotr F.D. properties file   721 does not exist.

                      1                      2                      3
                      A                      A                      A
 Frequencies --     40.9043                64.8470               125.2820
 Red. masses --     17.2853                17.8997                17.5271
 Frc consts  --      0.0170                 0.0443                 0.1621
 IR Inten    --      0.0336                 0.0337                 0.3283

                      4                      5                      6
                      A                      A                      A
 Frequencies --    192.0198               221.5016               239.1173
 Red. masses --     17.5072                18.6322                17.8592
 Frc consts  --      0.3803                 0.5386                 0.6016
 IR Inten    --      1.7575                 1.6208                 1.8040

                      7                      8                      9
                      A                      A                      A
 Frequencies --    275.1040               284.6379               303.1629
 Red. masses --     17.3696                17.6403                17.2868
 Frc consts  --      0.7745                 0.8421                 0.9361
 IR Inten    --     14.7704                 3.0793                 2.5448

                     10                     11                     12
                      A                      A                      A
 Frequencies --    330.9360               357.7153               382.4971
 Red. masses --     20.1294                19.2191                18.9378
 Frc consts  --      1.2989                 1.4490                 1.6324
 IR Inten    --      3.2729                 3.5015                 2.0641

                     13                     14                     15
                      A                      A                      A
 Frequencies --    470.0742               542.4566               607.2482
 Red. masses --     18.1769                17.9632                17.8190
 Frc consts  --      2.3665                 3.1143                 3.8714
 IR Inten    --      3.3019                25.2222                 1.7095

                     16                     17                     18
                      A                      A                      A
 Frequencies --    623.2978               660.6972               783.1640
 Red. masses --     20.3111                17.6072                17.4866
 Frc consts  --      4.6492                 4.5284                 6.3192
 IR Inten    --    101.7015                53.2744                13.8804

                     19                     20                     21
                      A                      A                      A
 Frequencies --    799.6785              1005.8030              1116.9882
 Red. masses --     17.2136                13.9673                16.4797
 Frc consts  --      6.4857                 8.3251                12.1142
 IR Inten    --     99.3590               142.0666                50.2700

                     22                     23                     24
                      A                      A                      A
 Frequencies --   1218.8106              1274.0150              1292.1612
 Red. masses --     13.9054                13.2300                13.1383
 Frc consts  --     12.1704                12.6520                12.9248
 IR Inten    --    151.8363                83.9253               221.5966

                     25                     26                     27
                      A                      A                      A
 Frequencies --   1306.8481              1386.7398              1396.0132
 Red. masses --     13.2415                15.0653                15.6946
 Frc consts  --     13.3241                17.0694                18.0211
 IR Inten    --    223.6301               122.9188               119.5634

 - Thermochemistry -
 -------------------
 Temperature   298.150 Kelvin.  Pressure   1.00000 Atm.
 Atom     1 has atomic number  6 and mass  12.00000

 Molecular mass:   198.94883 amu.
 Principal axes and moments of inertia in atomic units:
                           1         2         3
     Eigenvalues --  1101.226572108.049972237.55291
           X            0.88325  -0.46653  -0.04708
           Y            0.46764   0.88378   0.01568
           Z            0.03429  -0.03587   0.99877
 This molecule is an asymmetric top.
 Rotational symmetry number  1.
 Warning -- assumption of classical behavior for rotation
           may cause significant error
 Rotational temperatures (Kelvin)      0.07865     0.04109     0.03871
 Rotational constants (GHZ):           1.63885     0.85612     0.80657
 Zero-point vibrational energy     103487.3 (Joules/Mol)
                                   24.73405 (Kcal/Mol)
 Warning -- explicit consideration of  15 degrees of freedom as
           vibrations may cause significant error
 Vibrational temperatures:     58.85    93.30   180.25   276.27   318.69
          (Kelvin)            344.04   395.81   409.53   436.18   476.14
                              514.67   550.33   676.33   780.47   873.69
                              896.79   950.60  1126.80  1150.56  1447.13
                             1607.10  1753.60  1833.02  1859.13  1880.26
                             1995.21  2008.55

 Zero-point correction=                           0.039416 (Hartree/Particle)
 Thermal correction to Energy=                    0.049730
 Thermal correction to Enthalpy=                  0.050674
 Thermal correction to Gibbs Free Energy=         0.001829
 Sum of electronic and zero-point Energies=          -1199.210199
 Sum of electronic and thermal Energies=             -1199.199886
 Sum of electronic and thermal Enthalpies=           -1199.198941
 Sum of electronic and thermal Free Energies=        -1199.247787

                     E (Thermal)             CV                S
                      KCal/Mol        Cal/Mol-Kelvin    Cal/Mol-Kelvin
 Total                   31.206             35.265            102.804
 Electronic               0.000              0.000              1.377
 Translational            0.889              2.981             41.768
 Rotational               0.889              2.981             30.031
 Vibrational             29.429             29.303             29.628
 Vibration     1          0.594              1.981              5.215
 Vibration     2          0.597              1.971              4.304
 Vibration     3          0.610              1.928              3.017
 Vibration     4          0.634              1.851              2.208
 Vibration     5          0.648              1.808              1.947
 Vibration     6          0.657              1.781              1.809
 Vibration     7          0.677              1.719              1.564
 Vibration     8          0.683              1.702              1.506
 Vibration     9          0.695              1.668              1.399
 Vibration    10          0.713              1.614              1.256
 Vibration    11          0.733              1.559              1.132
 Vibration    12          0.752              1.508              1.029
 Vibration    13          0.827              1.316              0.737
 Vibration    14          0.898              1.156              0.560
 Vibration    15          0.966              1.016              0.437

 Optimization completed.
    -- Stationary point found.
 Normal termination of Gaussian 16 at Sat May 24 01:32:28 2025.
