 Gaussian 16, Revision C.01,
 Gaussian 16:  ES64L-G16RevC.01  3-Jul-2019

 -------------------------------------------------------------
 #P M062X/Def2TZVPP scf(xqc) pop(None) freq opt(CalcFC, Tight)
 -------------------------------------------------------------

 ------------------------------
 Gaussian input prepared by ASE
 ------------------------------
 Symbolic Z-matrix:
 Charge =  0 Multiplicity = 1

 SCF Done:  E(RM062X) =  -100.453166552     A.U. after   10 cycles
 SCF Done:  E(RM062X) =  -100.453176912     A.U. after    7 cycles
 SCF Done:  E(RM062X) =  -100.453176913     A.U. after    5 cycles
 Optimization completed.
    -- Stationary point found.
 Normal termination of Gaussian 16 at Sat May 24 09:47:11 2025.

 ---------------------------------------------------------------------
 #P Geom=AllCheck Guess=TCheck SCRF=Check GenChk RM062X/def2TZVPP Freq
 ---------------------------------------------------------------------

 Structure from the checkpoint file:  "200200000000000000001_well.chk"
 ------------------------------
 Gaussian input prepared by ASE
 ------------------------------
 Charge =  0 Multiplicity = 1

                         Standard orientation:
 ---------------------------------------------------------------------
 Center     Atomic      Atomic             Coordinates (Angstroms)
 Number     Number       Type             X           Y           Z
 ---------------------------------------------------------------------
      1          9           0       -0.000000    0.000000    0.091848
      2          1           0        0.000000   -0.000000   -0.826633
 ---------------------------------------------------------------------

 SCF Done:  E(RM062X) =  -100.453176913     A.U. after    1 cycles

 Isotropic polarizability for W=    0.000000        3.81 Bohr**3.
 End of Minotr F.D. properties file   721 does not exist.

                      1
                     SG
 Frequencies --   4172.5465
 Red. masses --      1.0583
 Frc consts  --     10.8559
 IR Inten    --    132.9367

 - Thermochemistry -
 -------------------
 Temperature   298.150 Kelvin.  Pressure   1.00000 Atm.
 Atom     1 has atomic number  9 and mass  18.99840

 Molecular mass:    20.00623 amu.
 Principal axes and moments of inertia in atomic units:
                           1         2         3
     Eigenvalues --     0.00000   2.88320   2.88320
           X           -0.00000   0.85370   0.52076
           Y            0.00000  -0.52076   0.85370
           Z            1.00000   0.00000   0.00000
 This molecule is a prolate symmetric top.
 Rotational symmetry number  1.
 Rotational temperature (Kelvin)     30.04087
 Rotational constant (GHZ):         625.950226
 Zero-point vibrational energy      24957.4 (Joules/Mol)
                                    5.96495 (Kcal/Mol)
 Vibrational temperatures:   6003.36
          (Kelvin)

 Zero-point correction=                           0.009506 (Hartree/Particle)
 Thermal correction to Energy=                    0.011866
 Thermal correction to Enthalpy=                  0.012810
 Thermal correction to Gibbs Free Energy=        -0.006893
 Sum of electronic and zero-point Energies=           -100.443671
 Sum of electronic and thermal Energies=              -100.441311
 Sum of electronic and thermal Enthalpies=            -100.440367
 Sum of electronic and thermal Free Energies=         -100.460070

                     E (Thermal)             CV                S
                      KCal/Mol        Cal/Mol-Kelvin    Cal/Mol-Kelvin
 Total                    7.446              4.968             41.469
 Electronic               0.000              0.000              0.000
 Translational            0.889              2.981             34.922
 Rotational               0.592              1.987              6.548
 Vibrational              5.965              0.000              0.000

 Optimization completed.
    -- Stationary point found.
 Normal termination of Gaussian 16 at Sat May 24 09:47:14 2025.
