 Gaussian 16, Revision C.01,
 Gaussian 16:  ES64L-G16RevC.01  3-Jul-2019

 ----------------------------------------------------------------------
 #P M062X/Def2TZVPP Symm(None) scf(xqc) pop(None) geom(AllCheck,NoKeepC
 onstants) guess(Read) irc(RCFC,reverse,MaxPoints=100,StepSize=2)
 ----------------------------------------------------------------------

 Structure from the checkpoint file:  "2003846667223680600001_r12_insertion_R_12_8_5_IRC_R.chk"
 ------------------------------
 Gaussian input prepared by ASE
 ------------------------------
 Charge =  0 Multiplicity = 1

 SCF Done:  E(RM062X) =  -1199.88458648     A.U. after    8 cycles
 SCF Done:  E(RM062X) =  -1199.88467155     A.U. after    9 cycles
 SCF Done:  E(RM062X) =  -1199.88481252     A.U. after    9 cycles
 SCF Done:  E(RM062X) =  -1199.88500851     A.U. after    9 cycles
 SCF Done:  E(RM062X) =  -1199.88525827     A.U. after    9 cycles
 SCF Done:  E(RM062X) =  -1199.88556018     A.U. after    9 cycles
 SCF Done:  E(RM062X) =  -1199.88591223     A.U. after    9 cycles
 SCF Done:  E(RM062X) =  -1199.88631216     A.U. after    9 cycles
 SCF Done:  E(RM062X) =  -1199.88675764     A.U. after    9 cycles
 SCF Done:  E(RM062X) =  -1199.88724638     A.U. after   10 cycles
 SCF Done:  E(RM062X) =  -1199.93266365     A.U. after    8 cycles
 SCF Done:  E(RM062X) =  -1199.93288495     A.U. after    8 cycles
 SCF Done:  E(RM062X) =  -1199.93310160     A.U. after    7 cycles
 SCF Done:  E(RM062X) =  -1199.93331368     A.U. after    7 cycles
 SCF Done:  E(RM062X) =  -1199.93352130     A.U. after    7 cycles
 SCF Done:  E(RM062X) =  -1199.93372453     A.U. after    7 cycles
 SCF Done:  E(RM062X) =  -1199.93392346     A.U. after    7 cycles
 SCF Done:  E(RM062X) =  -1199.93411817     A.U. after    7 cycles
 SCF Done:  E(RM062X) =  -1199.93430873     A.U. after    7 cycles
 SCF Done:  E(RM062X) =  -1199.93449520     A.U. after    7 cycles

                          Input orientation:
 ---------------------------------------------------------------------
 Center     Atomic      Atomic             Coordinates (Angstroms)
 Number     Number       Type             X           Y           Z
 ---------------------------------------------------------------------
      1          6           0       -1.104589   -0.980295    0.089384
      2          6           0       -0.508598    0.449145   -0.033323
      3          9           0       -0.880353    0.968315   -1.201553
      4          9           0       -0.977850    1.199359    0.961109
      5         16           0        1.342242    0.435377    0.001053
      6          8           0        1.703415   -0.198111    1.214278
      7          8           0        1.803523   -0.001797   -1.271628
      8          8           0        1.680059    1.969988   -0.062722
      9          9           0       -0.500243   -1.794739   -0.761101
     10          9           0       -0.960765   -1.439920    1.318077
     11          9           0       -2.396907   -0.931905   -0.202462
     12          1           0        2.059436    2.100892   -0.945587
 ---------------------------------------------------------------------

 Normal termination of Gaussian 16 at Sat May 24 05:05:17 2025.
