 Gaussian 16, Revision C.01,
 Gaussian 16:  ES64L-G16RevC.01  3-Jul-2019

 ----------------------------------------------------------------------
 #P M062X/Def2TZVPP Symm(None) scf(xqc) pop(None) geom(AllCheck,NoKeepC
 onstants) guess(Read) irc(RCFC,reverse,MaxPoints=100,StepSize=2)
 ----------------------------------------------------------------------

 Structure from the checkpoint file:  "2003846667223680600001_intra_H_migration_5_12_IRC_R.chk"
 ------------------------------
 Gaussian input prepared by ASE
 ------------------------------
 Charge =  0 Multiplicity = 1

 SCF Done:  E(RM062X) =  -1199.88458795     A.U. after    8 cycles
 SCF Done:  E(RM062X) =  -1199.88467302     A.U. after    9 cycles
 SCF Done:  E(RM062X) =  -1199.88481409     A.U. after    9 cycles
 SCF Done:  E(RM062X) =  -1199.88501027     A.U. after    9 cycles
 SCF Done:  E(RM062X) =  -1199.88526030     A.U. after    9 cycles
 SCF Done:  E(RM062X) =  -1199.88556245     A.U. after    9 cycles
 SCF Done:  E(RM062X) =  -1199.88591466     A.U. after    9 cycles
 SCF Done:  E(RM062X) =  -1199.88631467     A.U. after    9 cycles
 SCF Done:  E(RM062X) =  -1199.88676018     A.U. after    9 cycles
 SCF Done:  E(RM062X) =  -1199.88724897     A.U. after    9 cycles
 SCF Done:  E(RM062X) =  -1199.93266821     A.U. after    7 cycles
 SCF Done:  E(RM062X) =  -1199.93288947     A.U. after    7 cycles
 SCF Done:  E(RM062X) =  -1199.93310606     A.U. after    7 cycles
 SCF Done:  E(RM062X) =  -1199.93331808     A.U. after    7 cycles
 SCF Done:  E(RM062X) =  -1199.93352564     A.U. after    7 cycles
 SCF Done:  E(RM062X) =  -1199.93372880     A.U. after    7 cycles
 SCF Done:  E(RM062X) =  -1199.93392766     A.U. after    7 cycles
 SCF Done:  E(RM062X) =  -1199.93412229     A.U. after    7 cycles
 SCF Done:  E(RM062X) =  -1199.93431277     A.U. after    7 cycles
 SCF Done:  E(RM062X) =  -1199.93449915     A.U. after    7 cycles

                          Input orientation:
 ---------------------------------------------------------------------
 Center     Atomic      Atomic             Coordinates (Angstroms)
 Number     Number       Type             X           Y           Z
 ---------------------------------------------------------------------
      1          6           0       -1.121901   -0.961659    0.074487
      2          6           0       -0.500448    0.458938   -0.021502
      3          9           0       -0.868001    1.008980   -1.176875
      4          9           0       -0.951362    1.196654    0.990606
      5         16           0        1.349970    0.410786    0.003516
      6          8           0        1.704929   -0.253417    1.202043
      7          8           0        1.797361   -0.009130   -1.279891
      8          8           0        1.715616    1.939929   -0.031188
      9          9           0       -0.537068   -1.768858   -0.796289
     10          9           0       -0.980093   -1.449638    1.292428
     11          9           0       -2.414635   -0.883536   -0.209019
     12          1           0        2.093331    2.081646   -0.913096
 ---------------------------------------------------------------------

 Normal termination of Gaussian 16 at Sat May 24 02:36:43 2025.
