 Gaussian 16, Revision C.01,
 Gaussian 16:  ES64L-G16RevC.01  3-Jul-2019

 ----------------------------------------------------------------------
 #P M062X/Def2TZVPP Symm(None) scf(xqc) pop(None) opt(NoFreeze,TS,CalcA
 ll,NoEigentest,MaxCycle=999)
 ----------------------------------------------------------------------

 ------------------------------
 Gaussian input prepared by ASE
 ------------------------------
 Symbolic Z-matrix:
 Charge =  0 Multiplicity = 1

 SCF Done:  E(RM062X) =  -1199.44030497     A.U. after   14 cycles
 SCF Done:  E(RM062X) =  -1199.59317665     A.U. after   14 cycles
 SCF Done:  E(RM062X) =  -1199.78142144     A.U. after   14 cycles
 SCF Done:  E(RM062X) =  -1199.86144775     A.U. after   13 cycles
 SCF Done:  E(RM062X) =  -1199.88210204     A.U. after   13 cycles
 SCF Done:  E(RM062X) =  -1199.88438941     A.U. after   12 cycles
 SCF Done:  E(RM062X) =  -1199.88455296     A.U. after   11 cycles
 SCF Done:  E(RM062X) =  -1199.88455794     A.U. after   10 cycles

 Isotropic polarizability for W=    0.000000       54.02 Bohr**3.
 End of Minotr F.D. properties file   721 does not exist.

 Optimization completed.
    -- Stationary point found.

                          Input orientation:
 ---------------------------------------------------------------------
 Center     Atomic      Atomic             Coordinates (Angstroms)
 Number     Number       Type             X           Y           Z
 ---------------------------------------------------------------------
      1          6           0       -0.594003   -1.326832    0.263239
      2          6           0       -0.001274    0.097035    0.138636
      3          9           0       -0.363921    0.620764   -1.028349
      4          9           0       -0.462327    0.851731    1.132972
      5         16           0        1.840153    0.130382    0.225241
      6          8           0        2.221861   -0.582740    1.382317
      7          8           0        2.347341   -0.274455   -1.124355
      8          8           0        2.200844    1.575072    0.059628
      9          9           0        0.015799   -2.138954   -0.588256
     10          9           0       -0.446372   -1.785226    1.491205
     11          9           0       -1.884146   -1.278764   -0.029566
     12          1           0        2.573986    0.991579   -1.028521
 ---------------------------------------------------------------------

 ******    1 imaginary frequencies (negative Signs) ******

                      1                      2                      3
                      A                      A                      A
 Frequencies --  -1853.2546                38.7285                64.1367
 Red. masses --      1.0958                15.7447                15.2323
 Frc consts  --      2.2175                 0.0139                 0.0369
 IR Inten    --    590.5747                 0.4759                 0.1720

                      4                      5                      6
                      A                      A                      A
 Frequencies --    126.0077               193.0278               221.1737
 Red. masses --     16.0402                13.9397                18.4797
 Frc consts  --      0.1501                 0.3060                 0.5326
 IR Inten    --      0.5462                 2.6646                 1.1499

                      7                      8                      9
                      A                      A                      A
 Frequencies --    234.4168               282.7137               309.3798
 Red. masses --     14.8267                15.1725                17.1069
 Frc consts  --      0.4800                 0.7145                 0.9647
 IR Inten    --      3.1627                 2.2748                 0.3590

                     10                     11                     12
                      A                      A                      A
 Frequencies --    333.8958               375.7446               446.8630
 Red. masses --     17.9364                18.4132                17.5832
 Frc consts  --      1.1782                 1.5317                 2.0687
 IR Inten    --      0.2574                 0.2179                 9.2227

                     13                     14                     15
                      A                      A                      A
 Frequencies --    497.5348               536.1837               570.4875
 Red. masses --     17.9508                12.7544                10.8296
 Frc consts  --      2.6181                 2.1604                 2.0766
 IR Inten    --     11.7967                34.8871                12.7978

                     16                     17                     18
                      A                      A                      A
 Frequencies --    608.1201               661.5197               712.9983
 Red. masses --     16.8771                15.9717                15.1742
 Frc consts  --      3.6773                 4.1180                 4.5450
 IR Inten    --      4.4790                15.4977               131.7262

                     19                     20                     21
                      A                      A                      A
 Frequencies --    786.3425               965.3679              1007.2395
 Red. masses --     14.4171                 1.2466                10.5656
 Frc consts  --      5.2523                 0.6845                 6.3155
 IR Inten    --      4.7767               140.5711                97.4429

                     22                     23                     24
                      A                      A                      A
 Frequencies --   1105.8043              1196.1919              1217.3006
 Red. masses --     12.7702                11.2162                13.0653
 Frc consts  --      9.2004                 9.4558                11.4069
 IR Inten    --     46.7447               114.8407               306.5576

                     25                     26                     27
                      A                      A                      A
 Frequencies --   1275.4245              1295.1691              1308.1200
 Red. masses --     13.0457                12.9361                13.1669
 Frc consts  --     12.5033                12.7852                13.2748
 IR Inten    --     88.6743               267.0263               278.2364

                     28                     29                     30
                      A                      A                      A
 Frequencies --   1388.8142              1438.3936              2202.5089
 Red. masses --     12.6609                17.2005                 1.0292
 Frc consts  --     14.3881                20.9675                 2.9416
 IR Inten    --    105.4666               344.9130               157.6676

 - Thermochemistry -
 -------------------
 Temperature   298.150 Kelvin.  Pressure   1.00000 Atm.
 Atom     1 has atomic number  6 and mass  12.00000

 Molecular mass:   199.95666 amu.
 Principal axes and moments of inertia in atomic units:
                           1         2         3
     Eigenvalues --  1108.045862154.581232275.65749
           X            0.85989  -0.50523  -0.07306
           Y            0.50595   0.82444   0.25360
           Z           -0.06790  -0.25503   0.96455
 This molecule is an asymmetric top.
 Rotational symmetry number  1.
 Warning -- assumption of classical behavior for rotation
           may cause significant error
 Rotational temperatures (Kelvin)      0.07817     0.04020     0.03806
 Rotational constants (GHZ):           1.62876     0.83763     0.79306
    1 imaginary frequencies ignored.
 Zero-point vibrational energy     127998.1 (Joules/Mol)
                                   30.59228 (Kcal/Mol)
 Warning -- explicit consideration of  15 degrees of freedom as
           vibrations may cause significant error
 Vibrational temperatures:     55.72    92.28   181.30   277.72   318.22
          (Kelvin)            337.27   406.76   445.13   480.40   540.61
                              642.94   715.84   771.45   820.80   874.95
                              951.78  1025.85  1131.37  1388.95  1449.19
                             1591.01  1721.05  1751.42  1835.05  1863.46
                             1882.09  1998.19  2069.53  3168.92

 Zero-point correction=                           0.048752 (Hartree/Particle)
 Thermal correction to Energy=                    0.058634
 Thermal correction to Enthalpy=                  0.059578
 Thermal correction to Gibbs Free Energy=         0.012068
 Sum of electronic and zero-point Energies=          -1199.835806
 Sum of electronic and thermal Energies=             -1199.825924
 Sum of electronic and thermal Enthalpies=           -1199.824980
 Sum of electronic and thermal Free Energies=        -1199.872489

                     E (Thermal)             CV                S
                      KCal/Mol        Cal/Mol-Kelvin    Cal/Mol-Kelvin
 Total                   36.793             34.190             99.993
 Electronic               0.000              0.000              0.000
 Translational            0.889              2.981             41.783
 Rotational               0.889              2.981             30.075
 Vibrational             35.016             28.229             28.134
 Vibration     1          0.594              1.981              5.323
 Vibration     2          0.597              1.971              4.326
 Vibration     3          0.611              1.927              3.006
 Vibration     4          0.635              1.850              2.199
 Vibration     5          0.648              1.809              1.949
 Vibration     6          0.654              1.788              1.845
 Vibration     7          0.682              1.706              1.517
 Vibration     8          0.699              1.656              1.366
 Vibration     9          0.715              1.608              1.241
 Vibration    10          0.747              1.522              1.056
 Vibration    11          0.806              1.368              0.805
 Vibration    12          0.853              1.255              0.664
 Vibration    13          0.891              1.170              0.574
 Vibration    14          0.927              1.095              0.503
 Vibration    15          0.967              1.015              0.436

 Normal termination of Gaussian 16 at Sat May 24 03:35:22 2025.
