 Gaussian 16, Revision C.01,
 Gaussian 16:  ES64L-G16RevC.01  3-Jul-2019

 ----------------------------------------------------------------------
 #P M062X/Def2TZVPP Symm(None) scf(xqc) pop(None) geom(AllCheck,NoKeepC
 onstants) guess(Read) irc(RCFC,forward,MaxPoints=100,StepSize=2)
 ----------------------------------------------------------------------

 Structure from the checkpoint file:  "2003846667223680600001_intra_H_migration_6_12_IRC_F.chk"
 ------------------------------
 Gaussian input prepared by ASE
 ------------------------------
 Charge =  0 Multiplicity = 1

 SCF Done:  E(RM062X) =  -1199.92890434     A.U. after    8 cycles
 SCF Done:  E(RM062X) =  -1199.92906185     A.U. after    9 cycles
 SCF Done:  E(RM062X) =  -1199.92938449     A.U. after    9 cycles
 SCF Done:  E(RM062X) =  -1199.92968428     A.U. after    8 cycles
 SCF Done:  E(RM062X) =  -1199.92997150     A.U. after    8 cycles
 SCF Done:  E(RM062X) =  -1199.93025166     A.U. after    8 cycles
 SCF Done:  E(RM062X) =  -1199.93052555     A.U. after    8 cycles
 SCF Done:  E(RM062X) =  -1199.93079348     A.U. after    8 cycles
 SCF Done:  E(RM062X) =  -1199.93105566     A.U. after    8 cycles
 SCF Done:  E(RM062X) =  -1199.93131224     A.U. after    8 cycles
 SCF Done:  E(RM062X) =  -1199.94026317     A.U. after    8 cycles
 SCF Done:  E(RM062X) =  -1199.94028085     A.U. after    8 cycles
 SCF Done:  E(RM062X) =  -1199.94029768     A.U. after    8 cycles
 SCF Done:  E(RM062X) =  -1199.94031368     A.U. after    8 cycles
 SCF Done:  E(RM062X) =  -1199.94032889     A.U. after    8 cycles
 SCF Done:  E(RM062X) =  -1199.94034333     A.U. after    7 cycles
 SCF Done:  E(RM062X) =  -1199.94035705     A.U. after    7 cycles
 SCF Done:  E(RM062X) =  -1199.94037006     A.U. after    7 cycles
 SCF Done:  E(RM062X) =  -1199.94038240     A.U. after    7 cycles
 SCF Done:  E(RM062X) =  -1199.94039408     A.U. after    7 cycles

                          Input orientation:
 ---------------------------------------------------------------------
 Center     Atomic      Atomic             Coordinates (Angstroms)
 Number     Number       Type             X           Y           Z
 ---------------------------------------------------------------------
      1          6           0        0.969328   -0.803803   -0.747756
      2          6           0        0.158184    0.479856   -0.446106
      3          9           0        1.011950    1.485979   -0.269019
      4          9           0       -0.629793    0.742054   -1.493824
      5         16           0       -0.899124    0.422256    1.063989
      6          8           0       -2.022306   -0.581346    0.619453
      7          8           0       -0.139206   -0.201952    2.077501
      8          8           0       -1.464583    1.717929    1.184748
      9          9           0        1.918615   -0.979316    0.150622
     10          9           0        0.170798   -1.861193   -0.761021
     11          9           0        1.529034   -0.675299   -1.943840
     12          1           0       -2.767767   -0.096863    0.235888
 ---------------------------------------------------------------------

 Normal termination of Gaussian 16 at Sat May 24 07:07:04 2025.
