 Gaussian 16, Revision C.01,
 Gaussian 16:  ES64L-G16RevC.01  3-Jul-2019

 -----------------------------------------------------------------
 #P M062X/Def2TZVPP Symm(None) scf(xqc) pop(None) freq opt(CalcFC)
 -----------------------------------------------------------------

 ------------------------------
 Gaussian input prepared by ASE
 ------------------------------
 Symbolic Z-matrix:
 Charge =  0 Multiplicity = 1

 SCF Done:  E(RM062X) =  -1199.81658215     A.U. after   17 cycles
 SCF Done:  E(RM062X) =  -1199.84310647     A.U. after   16 cycles
 SCF Done:  E(RM062X) =  -1199.88906103     A.U. after   14 cycles
 SCF Done:  E(RM062X) =  -1199.93684809     A.U. after   14 cycles
 SCF Done:  E(RM062X) =  -1199.93962181     A.U. after   11 cycles
 SCF Done:  E(RM062X) =  -1199.94000618     A.U. after   12 cycles
 SCF Done:  E(RM062X) =  -1199.94058306     A.U. after   11 cycles
 SCF Done:  E(RM062X) =  -1199.94064885     A.U. after   10 cycles
 SCF Done:  E(RM062X) =  -1199.94066371     A.U. after   10 cycles
 SCF Done:  E(RM062X) =  -1199.94067020     A.U. after    9 cycles
 SCF Done:  E(RM062X) =  -1199.94067364     A.U. after    8 cycles
 SCF Done:  E(RM062X) =  -1199.94067792     A.U. after   10 cycles
 SCF Done:  E(RM062X) =  -1199.94068030     A.U. after    9 cycles
 SCF Done:  E(RM062X) =  -1199.94068110     A.U. after    8 cycles
 Optimization completed.
    -- Stationary point found.
 Normal termination of Gaussian 16 at Sat May 24 04:55:53 2025.

 ---------------------------------------------------------------------
 #P Geom=AllCheck Guess=TCheck SCRF=Check GenChk RM062X/def2TZVPP Freq
 ---------------------------------------------------------------------

 Structure from the checkpoint file:  "2003846667223680600001_r12_insertion_R_8_5_6_IRC_R_prod.chk"
 ------------------------------
 Gaussian input prepared by ASE
 ------------------------------
 Charge =  0 Multiplicity = 1

                          Input orientation:
 ---------------------------------------------------------------------
 Center     Atomic      Atomic             Coordinates (Angstroms)
 Number     Number       Type             X           Y           Z
 ---------------------------------------------------------------------
      1          6           0       -1.046837   -1.018769    0.083990
      2          6           0       -0.348408    0.352259   -0.065023
      3          9           0       -0.615508    0.834869   -1.285053
      4          9           0       -0.830752    1.185135    0.852851
      5         16           0        1.484353    0.276221    0.117072
      6          8           0        1.776671    0.130793    1.489816
      7          8           0        1.964740   -0.601387   -0.889242
      8          8           0        1.818979    1.759604   -0.280574
      9          9           0       -0.707741   -1.822014   -0.908480
     10          9           0       -0.712473   -1.576720    1.236058
     11          9           0       -2.358682   -0.831220    0.057288
     12          1           0        1.945657    1.830005   -1.237943
 ---------------------------------------------------------------------

 SCF Done:  E(RM062X) =  -1199.94068110     A.U. after    1 cycles

 Isotropic polarizability for W=    0.000000       53.49 Bohr**3.
 End of Minotr F.D. properties file   721 does not exist.

                      1                      2                      3
                      A                      A                      A
 Frequencies --     26.3189                70.3673               128.4958
 Red. masses --     14.7782                13.7614                14.7406
 Frc consts  --      0.0060                 0.0401                 0.1434
 IR Inten    --      1.2411                 1.0065                 1.3186

                      4                      5                      6
                      A                      A                      A
 Frequencies --    193.8327               220.6658               237.8467
 Red. masses --      9.9748                17.0347                 8.0528
 Frc consts  --      0.2208                 0.4887                 0.2684
 IR Inten    --      7.0491                 1.5064                11.3631

                      7                      8                      9
                      A                      A                      A
 Frequencies --    283.6057               319.3811               323.3162
 Red. masses --     14.0411                 6.2063                17.3721
 Frc consts  --      0.6654                 0.3730                 1.0699
 IR Inten    --      0.4349                11.9113                 0.0741

                     10                     11                     12
                      A                      A                      A
 Frequencies --    370.8061               376.6258               447.3059
 Red. masses --      1.9370                 8.5665                 4.4193
 Frc consts  --      0.1569                 0.7159                 0.5210
 IR Inten    --     50.4279                 7.0333                24.2180

                     13                     14                     15
                      A                      A                      A
 Frequencies --    499.9398               507.5976               543.9365
 Red. masses --      7.3095                14.4534                17.7256
 Frc consts  --      1.0764                 2.1941                 3.0899
 IR Inten    --      7.4502                33.3749                25.4335

                     16                     17                     18
                      A                      A                      A
 Frequencies --    608.9658               631.1222               664.0782
 Red. masses --     17.1519                19.3797                17.6383
 Frc consts  --      3.7476                 4.5480                 4.5830
 IR Inten    --      3.6903               110.9846                47.3395

                     19                     20                     21
                      A                      A                      A
 Frequencies --    781.8842               898.4073              1040.7509
 Red. masses --     17.3534                16.5495                14.0285
 Frc consts  --      6.2506                 7.8701                 8.9527
 IR Inten    --     19.5856               228.3617                28.1699

                     22                     23                     24
                      A                      A                      A
 Frequencies --   1141.2994              1200.7537              1257.5577
 Red. masses --      1.1812                13.5707                15.7660
 Frc consts  --      0.9065                11.5281                14.6902
 IR Inten    --     94.1326               244.0097                21.3472

                     25                     26                     27
                      A                      A                      A
 Frequencies --   1264.0782              1302.4660              1305.9962
 Red. masses --     13.4336                13.9020                13.2017
 Frc consts  --     12.6471                13.8951                13.2667
 IR Inten    --     85.5900               324.2409               235.2656

                     28                     29                     30
                      A                      A                      A
 Frequencies --   1389.3409              1505.2633              3808.3822
 Red. masses --     12.6936                15.4904                 1.0657
 Frc consts  --     14.4362                20.6794                 9.1064
 IR Inten    --     90.6911               296.3748               188.0230

 - Thermochemistry -
 -------------------
 Temperature   298.150 Kelvin.  Pressure   1.00000 Atm.
 Atom     1 has atomic number  6 and mass  12.00000

 Molecular mass:   199.95666 amu.
 Principal axes and moments of inertia in atomic units:
                           1         2         3
     Eigenvalues --  1118.784102148.498902267.02458
           X            0.88080  -0.46527  -0.08784
           Y            0.47348   0.86460   0.16815
           Z           -0.00229  -0.18970   0.98184
 This molecule is an asymmetric top.
 Rotational symmetry number  1.
 Warning -- assumption of classical behavior for rotation
           may cause significant error
 Rotational temperatures (Kelvin)      0.07742     0.04031     0.03821
 Rotational constants (GHZ):           1.61313     0.84000     0.79608
 Zero-point vibrational energy     139666.3 (Joules/Mol)
                                   33.38106 (Kcal/Mol)
 Warning -- explicit consideration of  16 degrees of freedom as
           vibrations may cause significant error
 Vibrational temperatures:     37.87   101.24   184.88   278.88   317.49
          (Kelvin)            342.21   408.05   459.52   465.18   533.51
                              541.88   643.57   719.30   730.32   782.60
                              876.17   908.04   955.46  1124.96  1292.61
                             1497.41  1642.08  1727.62  1809.35  1818.73
                             1873.96  1879.04  1998.95  2165.74  5479.41

 Zero-point correction=                           0.053196 (Hartree/Particle)
 Thermal correction to Energy=                    0.063490
 Thermal correction to Enthalpy=                  0.064434
 Thermal correction to Gibbs Free Energy=         0.016065
 Sum of electronic and zero-point Energies=          -1199.887485
 Sum of electronic and thermal Energies=             -1199.877191
 Sum of electronic and thermal Enthalpies=           -1199.876247
 Sum of electronic and thermal Free Energies=        -1199.924616

                     E (Thermal)             CV                S
                      KCal/Mol        Cal/Mol-Kelvin    Cal/Mol-Kelvin
 Total                   39.841             35.964            101.802
 Electronic               0.000              0.000              0.000
 Translational            0.889              2.981             41.783
 Rotational               0.889              2.981             30.078
 Vibrational             38.063             30.003             29.940
 Vibration     1          0.593              1.985              6.089
 Vibration     2          0.598              1.968              4.143
 Vibration     3          0.611              1.925              2.968
 Vibration     4          0.635              1.848              2.191
 Vibration     5          0.647              1.810              1.954
 Vibration     6          0.656              1.783              1.819
 Vibration     7          0.682              1.704              1.512
 Vibration     8          0.705              1.636              1.313
 Vibration     9          0.708              1.629              1.293
 Vibration    10          0.743              1.532              1.076
 Vibration    11          0.747              1.520              1.053
 Vibration    12          0.806              1.367              0.804
 Vibration    13          0.855              1.250              0.658
 Vibration    14          0.863              1.233              0.639
 Vibration    15          0.899              1.153              0.557
 Vibration    16          0.968              1.013              0.434

                           ! Non-Optimized Parameters !
 Normal termination of Gaussian 16 at Sat May 24 05:00:21 2025.
