 Gaussian 16, Revision C.01,
 Gaussian 16:  ES64L-G16RevC.01  3-Jul-2019

 ----------------------------------------------------------------------
 #P mp2/6-31G Symm(None) scf(xqc) pop(None) guess(Mix,Always) opt(NoFre
 eze,TS,CalcAll,NoEigentest,MaxCycle=999)
 ----------------------------------------------------------------------

 ------------------------------
 Gaussian input prepared by ASE
 ------------------------------
 Symbolic Z-matrix:
 Charge =  0 Multiplicity = 1

 SCF Done:  E(RHF) =  -1194.83246434     A.U. after   15 cycles
 E2 =    -0.1241912120D+01 EUMP2 =    -0.11960743764562D+04
 E2 =    -0.1241912120D+01 EUMP2 =    -0.11960743764562D+04
 SCF Done:  E(RHF) =  -1194.92297020     A.U. after   16 cycles
 E2 =    -0.1260693762D+01 EUMP2 =    -0.11961836639588D+04
 E2 =    -0.1260693762D+01 EUMP2 =    -0.11961836639588D+04
 SCF Done:  E(RHF) =  -1194.96242469     A.U. after   18 cycles
 E2 =    -0.1274954791D+01 EUMP2 =    -0.11962373794814D+04
 E2 =    -0.1274954791D+01 EUMP2 =    -0.11962373794814D+04
 SCF Done:  E(RHF) =  -1194.96881371     A.U. after   18 cycles
 E2 =    -0.1284891904D+01 EUMP2 =    -0.11962537056176D+04
 E2 =    -0.1284891904D+01 EUMP2 =    -0.11962537056176D+04
 SCF Done:  E(RHF) =  -1194.96682392     A.U. after   19 cycles
 E2 =    -0.1288208910D+01 EUMP2 =    -0.11962550328277D+04
 E2 =    -0.1288208910D+01 EUMP2 =    -0.11962550328277D+04
 SCF Done:  E(RHF) =  -1194.96681642     A.U. after   19 cycles
 E2 =    -0.1288320699D+01 EUMP2 =    -0.11962551371145D+04
 E2 =    -0.1288320699D+01 EUMP2 =    -0.11962551371145D+04
 SCF Done:  E(RHF) =  -1194.96669377     A.U. after   19 cycles
 E2 =    -0.1288401196D+01 EUMP2 =    -0.11962550949667D+04
 E2 =    -0.1288401196D+01 EUMP2 =    -0.11962550949667D+04
 SCF Done:  E(RHF) =  -1194.96666475     A.U. after   19 cycles
 E2 =    -0.1288383661D+01 EUMP2 =    -0.11962550484067D+04
 E2 =    -0.1288383661D+01 EUMP2 =    -0.11962550484067D+04
 SCF Done:  E(RHF) =  -1194.96662618     A.U. after   19 cycles
 E2 =    -0.1288386272D+01 EUMP2 =    -0.11962550124566D+04
 E2 =    -0.1288386272D+01 EUMP2 =    -0.11962550124566D+04
 SCF Done:  E(RHF) =  -1194.96658970     A.U. after   19 cycles
 E2 =    -0.1288379924D+01 EUMP2 =    -0.11962549696191D+04
 E2 =    -0.1288379924D+01 EUMP2 =    -0.11962549696191D+04
 SCF Done:  E(RHF) =  -1194.96656012     A.U. after   19 cycles
 E2 =    -0.1288385530D+01 EUMP2 =    -0.11962549456548D+04
 E2 =    -0.1288385530D+01 EUMP2 =    -0.11962549456548D+04
 SCF Done:  E(RHF) =  -1194.96653299     A.U. after   19 cycles
 E2 =    -0.1288388891D+01 EUMP2 =    -0.11962549218814D+04
 E2 =    -0.1288388891D+01 EUMP2 =    -0.11962549218814D+04
 SCF Done:  E(RHF) =  -1194.96651980     A.U. after   19 cycles
 E2 =    -0.1288391710D+01 EUMP2 =    -0.11962549115114D+04
 E2 =    -0.1288391710D+01 EUMP2 =    -0.11962549115114D+04
 SCF Done:  E(RHF) =  -1194.96650844     A.U. after   19 cycles
 E2 =    -0.1288393967D+01 EUMP2 =    -0.11962549024037D+04
 E2 =    -0.1288393967D+01 EUMP2 =    -0.11962549024037D+04
 SCF Done:  E(RHF) =  -1194.96650403     A.U. after   19 cycles
 E2 =    -0.1288394879D+01 EUMP2 =    -0.11962548989120D+04
 E2 =    -0.1288394879D+01 EUMP2 =    -0.11962548989120D+04
 SCF Done:  E(RHF) =  -1194.96650031     A.U. after   19 cycles
 E2 =    -0.1288395694D+01 EUMP2 =    -0.11962548960031D+04
 E2 =    -0.1288395694D+01 EUMP2 =    -0.11962548960031D+04
 Optimization completed.
    -- Stationary point found.

                          Input orientation:
 ---------------------------------------------------------------------
 Center     Atomic      Atomic             Coordinates (Angstroms)
 Number     Number       Type             X           Y           Z
 ---------------------------------------------------------------------
      1          6           0       -0.258630   -1.605828    0.218335
      2          6           0        0.177746   -0.135552    0.139666
      3          9           0       -0.155927    0.400212   -1.099663
      4          9           0       -0.387475    0.594084    1.176351
      5         16           0        2.159902    0.107246    0.336875
      6          8           0        2.530779    0.114668    1.876625
      7          8           0        2.887267   -0.834003   -0.731768
      8          8           0        2.148611    1.819618   -0.268784
      9          9           0        0.121906   -2.281344   -0.932286
     10          9           0        0.349701   -2.205317    1.320080
     11          9           0       -1.639764   -1.689323    0.360885
     12          1           0        2.534502    1.818412   -1.186162
 ---------------------------------------------------------------------

                      1                      2                      3
                      A                      A                      A
 Frequencies --     30.9767                56.5872               112.9578
 Red. masses --     12.8082                15.2943                 4.3301
 Frc consts  --      0.0072                 0.0289                 0.0326
 IR Inten    --      1.6144                 0.5500                17.6677

                      4                      5                      6
                      A                      A                      A
 Frequencies --    121.2609               174.7346               196.2632
 Red. masses --      4.6682                 8.4714                 2.5260
 Frc consts  --      0.0404                 0.1524                 0.0573
 IR Inten    --     27.9460                20.6424                50.1516

                      7                      8                      9
                      A                      A                      A
 Frequencies --    213.8518               218.6710               255.0268
 Red. masses --     15.9567                10.6664                 8.9197
 Frc consts  --      0.4300                 0.3005                 0.3418
 IR Inten    --      1.1143                21.6964                 7.3845

                     10                     11                     12
                      A                      A                      A
 Frequencies --    288.5807               330.9382               344.0473
 Red. masses --      8.9889                 6.7589                17.5262
 Frc consts  --      0.4411                 0.4361                 1.2223
 IR Inten    --      3.8357                23.6112                 1.6614

                     13                     14                     15
                      A                      A                      A
 Frequencies --    361.3844               414.3434               458.6255
 Red. masses --     13.4645                15.8223                19.8169
 Frc consts  --      1.0360                 1.6004                 2.4559
 IR Inten    --      9.2394                 1.0581               119.2469

                     16                     17                     18
                      A                      A                      A
 Frequencies --    494.6902               558.6331               575.9931
 Red. masses --     18.6012                17.6672                16.6191
 Frc consts  --      2.6820                 3.2484                 3.2486
 IR Inten    --     20.0631                 2.7679                67.4111

                     19                     20                     21
                      A                      A                      A
 Frequencies --    618.2180               688.8866               902.0526
 Red. masses --     18.8378                17.4617                13.6734
 Frc consts  --      4.2419                 4.8824                 6.5552
 IR Inten    --    167.5372                 4.1275                81.0071

                     22                     23                     24
                      A                      A                      A
 Frequencies --    970.2627              1062.2864              1092.7238
 Red. masses --     15.9669                 1.8467                10.1614
 Frc consts  --      8.8562                 1.2278                 7.1486
 IR Inten    --     85.0590               120.8402               105.1678

                     25                     26                     27
                      A                      A                      A
 Frequencies --   1166.7057              1199.1263              1201.1463
 Red. masses --      2.8878                12.6023                12.4574
 Frc consts  --      2.3160                10.6766                10.5893
 IR Inten    --     49.8809               131.1802               101.3994

                     28                     29                     30
                      A                      A                      A
 Frequencies --   1219.4395              1311.9603              3492.2224
 Red. masses --     11.7416                12.0688                 1.0659
 Frc consts  --     10.2872                12.2393                 7.6592
 IR Inten    --    274.8981               154.7148                95.3911

 - Thermochemistry -
 -------------------
 Temperature   298.150 Kelvin.  Pressure   1.00000 Atm.
 Atom     1 has atomic number  6 and mass  12.00000

 Molecular mass:   199.95666 amu.
 Principal axes and moments of inertia in atomic units:
                           1         2         3
     Eigenvalues --  1286.154792396.335612519.61892
           X            0.80172  -0.58797  -0.10737
           Y            0.59743   0.79366   0.11477
           Z            0.01773  -0.15616   0.98757
 This molecule is an asymmetric top.
 Rotational symmetry number  1.
 Warning -- assumption of classical behavior for rotation
           may cause significant error
 Rotational temperatures (Kelvin)      0.06734     0.03614     0.03438
 Rotational constants (GHZ):           1.40321     0.75313     0.71628
 Zero-point vibrational energy     120419.7 (Joules/Mol)
                                   28.78099 (Kcal/Mol)
 Warning -- explicit consideration of  19 degrees of freedom as
           vibrations may cause significant error
 Vibrational temperatures:     44.57    81.42   162.52   174.47   251.40
          (Kelvin)            282.38   307.68   314.62   366.93   415.20
                              476.15   495.01   519.95   596.15   659.86
                              711.75   803.75   828.73   889.48   991.15
                             1297.85  1395.99  1528.39  1572.19  1678.63
                             1725.28  1728.18  1754.50  1887.62  5024.53

 Zero-point correction=                           0.045865 (Hartree/Particle)
 Thermal correction to Energy=                    0.057686
 Thermal correction to Enthalpy=                  0.058630
 Thermal correction to Gibbs Free Energy=         0.006931
 Sum of electronic and zero-point Energies=          -1196.209031
 Sum of electronic and thermal Energies=             -1196.197210
 Sum of electronic and thermal Enthalpies=           -1196.196266
 Sum of electronic and thermal Free Energies=        -1196.247965

                     E (Thermal)             CV                S
                      KCal/Mol        Cal/Mol-Kelvin    Cal/Mol-Kelvin
 Total                   36.199             39.915            108.812
 Electronic               0.000              0.000              0.000
 Translational            0.889              2.981             41.783
 Rotational               0.889              2.981             30.430
 Vibrational             34.421             33.953             36.598
 Vibration     1          0.594              1.984              5.766
 Vibration     2          0.596              1.975              4.573
 Vibration     3          0.607              1.939              3.217
 Vibration     4          0.609              1.931              3.080
 Vibration     5          0.627              1.874              2.384
 Vibration     6          0.636              1.845              2.168
 Vibration     7          0.644              1.820              2.011
 Vibration     8          0.646              1.813              1.970
 Vibration     9          0.665              1.754              1.696
 Vibration    10          0.685              1.695              1.482
 Vibration    11          0.713              1.614              1.255
 Vibration    12          0.723              1.587              1.193
 Vibration    13          0.736              1.552              1.116
 Vibration    14          0.778              1.439              0.911
 Vibration    15          0.817              1.342              0.770
 Vibration    16          0.850              1.262              0.672
 Vibration    17          0.914              1.121              0.527
 Vibration    18          0.932              1.083              0.493
 Vibration    19          0.978              0.993              0.419

 Normal termination of Gaussian 16 at Sat May 24 03:00:16 2025.
