 Gaussian 16, Revision C.01,
 Gaussian 16:  ES64L-G16RevC.01  3-Jul-2019

 ----------------------------------------------------------------------
 #P M062X/Def2TZVPP Symm(None) scf(xqc) pop(None) geom(AllCheck,NoKeepC
 onstants) guess(Read) irc(RCFC,forward,MaxPoints=100,StepSize=2)
 ----------------------------------------------------------------------

 Structure from the checkpoint file:  "2003846667223680600001_r12_insertion_R_2_1_9_IRC_F.chk"
 ------------------------------
 Gaussian input prepared by ASE
 ------------------------------
 Charge =  0 Multiplicity = 1

 SCF Done:  E(RM062X) =  -1199.76411252     A.U. after   10 cycles
 SCF Done:  E(RM062X) =  -1199.76415276     A.U. after   11 cycles
 SCF Done:  E(RM062X) =  -1199.76422008     A.U. after   11 cycles
 SCF Done:  E(RM062X) =  -1199.76431466     A.U. after   11 cycles
 SCF Done:  E(RM062X) =  -1199.76443656     A.U. after   11 cycles
 SCF Done:  E(RM062X) =  -1199.76458575     A.U. after   11 cycles
 SCF Done:  E(RM062X) =  -1199.76476211     A.U. after   11 cycles
 SCF Done:  E(RM062X) =  -1199.76496543     A.U. after   11 cycles
 SCF Done:  E(RM062X) =  -1199.76519544     A.U. after   11 cycles
 SCF Done:  E(RM062X) =  -1199.76545184     A.U. after   11 cycles
 SCF Done:  E(RM062X) =  -1199.83032790     A.U. after    9 cycles
 SCF Done:  E(RM062X) =  -1199.83078117     A.U. after    9 cycles
 SCF Done:  E(RM062X) =  -1199.83121860     A.U. after    9 cycles
 SCF Done:  E(RM062X) =  -1199.83164056     A.U. after    9 cycles
 SCF Done:  E(RM062X) =  -1199.83204715     A.U. after    9 cycles
 SCF Done:  E(RM062X) =  -1199.83243467     A.U. after    9 cycles
 SCF Done:  E(RM062X) =  -1199.83281129     A.U. after    9 cycles
 SCF Done:  E(RM062X) =  -1199.83317071     A.U. after    9 cycles
 SCF Done:  E(RM062X) =  -1199.83353165     A.U. after    9 cycles
 SCF Done:  E(RM062X) =  -1199.83387139     A.U. after    9 cycles

                          Input orientation:
 ---------------------------------------------------------------------
 Center     Atomic      Atomic             Coordinates (Angstroms)
 Number     Number       Type             X           Y           Z
 ---------------------------------------------------------------------
      1          6           0       -0.873125   -0.545031    0.726515
      2          6           0       -0.700721    0.505413   -0.434654
      3          9           0       -1.165860    0.259681   -1.633095
      4          9           0       -1.086629    1.695116   -0.033683
      5         16           0        1.113902    0.132130   -0.211902
      6          8           0        0.479341   -0.576982    1.141558
      7          8           0        2.403341    0.067702   -0.841660
      8          8           0        1.362270    1.548059    0.563937
      9          9           0        0.662380   -1.304072   -0.965815
     10          9           0       -1.603104   -0.128280    1.743002
     11          9           0       -1.380889   -1.691900    0.316151
     12          1           0        2.257747    1.837320    0.353072
 ---------------------------------------------------------------------

 Normal termination of Gaussian 16 at Sat May 24 05:05:26 2025.
