 Gaussian 16, Revision C.01,
 Gaussian 16:  ES64L-G16RevC.01  3-Jul-2019

 -----------------------------------------------------------------
 #P M062X/Def2TZVPP Symm(None) scf(xqc) pop(None) freq opt(CalcFC)
 -----------------------------------------------------------------

 ------------------------------
 Gaussian input prepared by ASE
 ------------------------------
 Symbolic Z-matrix:
 Charge =  0 Multiplicity = 1

 SCF Done:  E(RM062X) =  -1199.84612944     A.U. after   16 cycles
 SCF Done:  E(RM062X) =  -1199.84260885     A.U. after   14 cycles
 SCF Done:  E(RM062X) =  -1199.85969297     A.U. after   12 cycles
 SCF Done:  E(RM062X) =  -1199.84537634     A.U. after   13 cycles
 SCF Done:  E(RM062X) =  -1199.86214234     A.U. after   11 cycles
 SCF Done:  E(RM062X) =  -1199.86581730     A.U. after   11 cycles
 SCF Done:  E(RM062X) =  -1199.88141742     A.U. after   12 cycles
 SCF Done:  E(RM062X) =  -1199.87978034     A.U. after   14 cycles
 SCF Done:  E(RM062X) =  -1199.89780604     A.U. after   12 cycles
 SCF Done:  E(RM062X) =  -1199.90212959     A.U. after   12 cycles
 SCF Done:  E(RM062X) =  -1199.94067166     A.U. after    8 cycles
 SCF Done:  E(RM062X) =  -1199.94067324     A.U. after    8 cycles
 SCF Done:  E(RM062X) =  -1199.94067505     A.U. after    8 cycles
 SCF Done:  E(RM062X) =  -1199.94067621     A.U. after    7 cycles
 SCF Done:  E(RM062X) =  -1199.94067691     A.U. after    7 cycles
 SCF Done:  E(RM062X) =  -1199.94067709     A.U. after    6 cycles
 SCF Done:  E(RM062X) =  -1199.94067735     A.U. after    7 cycles
 SCF Done:  E(RM062X) =  -1199.94067760     A.U. after    7 cycles
 SCF Done:  E(RM062X) =  -1199.94067775     A.U. after    7 cycles
 Optimization completed.
    -- Stationary point found.
 Normal termination of Gaussian 16 at Sat May 24 06:34:09 2025.

 ---------------------------------------------------------------------
 #P Geom=AllCheck Guess=TCheck SCRF=Check GenChk RM062X/def2TZVPP Freq
 ---------------------------------------------------------------------

 Structure from the checkpoint file:  "2003846667223680600001_r12_insertion_R_1_2_3_IRC_R_prod.chk"
 ------------------------------
 Gaussian input prepared by ASE
 ------------------------------
 Charge =  0 Multiplicity = 1

                          Input orientation:
 ---------------------------------------------------------------------
 Center     Atomic      Atomic             Coordinates (Angstroms)
 Number     Number       Type             X           Y           Z
 ---------------------------------------------------------------------
      1          6           0       -1.312838   -0.933961    0.018468
      2          6           0       -0.582516    0.423865   -0.094253
      3          9           0       -0.844342    0.948964   -1.297762
      4          9           0       -1.039603    1.240290    0.850976
      5         16           0        1.248595    0.298118    0.075420
      6          8           0        1.544469    0.113524    1.442610
      7          8           0        1.701147   -0.567570   -0.953971
      8          8           0        1.618288    1.781507   -0.289290
      9          9           0       -1.005756   -1.711717   -1.004234
     10          9           0       -0.978117   -1.537740    1.147164
     11          9           0       -2.619887   -0.714068    0.014989
     12          1           0        1.741834    1.871672   -1.245368
 ---------------------------------------------------------------------

 SCF Done:  E(RM062X) =  -1199.94067775     A.U. after    1 cycles

 Isotropic polarizability for W=    0.000000       53.49 Bohr**3.
 End of Minotr F.D. properties file   721 does not exist.

                      1                      2                      3
                      A                      A                      A
 Frequencies --     24.6223                69.7380               127.9430
 Red. masses --     14.9177                13.6034                14.5468
 Frc consts  --      0.0053                 0.0390                 0.1403
 IR Inten    --      1.1771                 1.0618                 1.3892

                      4                      5                      6
                      A                      A                      A
 Frequencies --    192.6427               221.1715               237.3928
 Red. masses --      9.3590                16.9095                 7.7496
 Frc consts  --      0.2046                 0.4873                 0.2573
 IR Inten    --      7.7154                 1.6071                11.9215

                      7                      8                      9
                      A                      A                      A
 Frequencies --    283.5751               318.2905               323.3502
 Red. masses --     13.6254                 5.4220                17.6831
 Frc consts  --      0.6456                 0.3236                 1.0893
 IR Inten    --      0.3333                14.7211                 0.0465

                     10                     11                     12
                      A                      A                      A
 Frequencies --    365.8610               376.1587               446.3150
 Red. masses --      1.8306                14.8495                 4.7336
 Frc consts  --      0.1444                 1.2380                 0.5555
 IR Inten    --     54.2907                 1.5083                22.7188

                     13                     14                     15
                      A                      A                      A
 Frequencies --    499.7107               507.6879               543.6709
 Red. masses --      7.3951                14.6042                17.7458
 Frc consts  --      1.0880                 2.2178                 3.0904
 IR Inten    --      7.4996                32.7764                25.2534

                     16                     17                     18
                      A                      A                      A
 Frequencies --    608.8322               631.1093               664.0559
 Red. masses --     17.1472                19.3984                17.6504
 Frc consts  --      3.7449                 4.5523                 4.5858
 IR Inten    --      3.6958               110.6942                47.7058

                     19                     20                     21
                      A                      A                      A
 Frequencies --    781.7039               899.3246              1041.0445
 Red. masses --     17.3659                16.5625                14.0246
 Frc consts  --      6.2522                 7.8924                 8.9553
 IR Inten    --     19.2354               228.8598                28.1114

                     22                     23                     24
                      A                      A                      A
 Frequencies --   1139.1086              1200.7905              1256.8872
 Red. masses --      1.1817                13.5837                15.8045
 Frc consts  --      0.9034                11.5399                14.7104
 IR Inten    --     93.2387               245.3528                19.6244

                     25                     26                     27
                      A                      A                      A
 Frequencies --   1263.5998              1301.9870              1304.7795
 Red. masses --     13.3948                13.8981                13.2057
 Frc consts  --     12.6010                13.8810                13.2460
 IR Inten    --     86.7692               322.4226               236.3189

                     28                     29                     30
                      A                      A                      A
 Frequencies --   1388.9975              1505.4228              3807.7409
 Red. masses --     12.6901                15.5467                 1.0657
 Frc consts  --     14.4251                20.7589                 9.1034
 IR Inten    --     91.6107               295.8135               188.1759

 - Thermochemistry -
 -------------------
 Temperature   298.150 Kelvin.  Pressure   1.00000 Atm.
 Atom     1 has atomic number  6 and mass  12.00000

 Molecular mass:   199.95666 amu.
 Principal axes and moments of inertia in atomic units:
                           1         2         3
     Eigenvalues --  1118.844012148.005572266.49950
           X            0.89199  -0.44519  -0.07852
           Y            0.45202   0.88084   0.14072
           Z            0.00652  -0.16101   0.98693
 This molecule is an asymmetric top.
 Rotational symmetry number  1.
 Warning -- assumption of classical behavior for rotation
           may cause significant error
 Rotational temperatures (Kelvin)      0.07741     0.04032     0.03821
 Rotational constants (GHZ):           1.61304     0.84019     0.79627
 Zero-point vibrational energy     139565.4 (Joules/Mol)
                                   33.35693 (Kcal/Mol)
 Warning -- explicit consideration of  16 degrees of freedom as
           vibrations may cause significant error
 Vibrational temperatures:     35.43   100.34   184.08   277.17   318.22
          (Kelvin)            341.56   408.00   457.95   465.23   526.39
                              541.21   642.15   718.97   730.45   782.22
                              875.97   908.03   955.43  1124.70  1293.93
                             1497.83  1638.92  1727.67  1808.38  1818.04
                             1873.27  1877.29  1998.46  2165.97  5478.49

 Zero-point correction=                           0.053158 (Hartree/Particle)
 Thermal correction to Energy=                    0.063468
 Thermal correction to Enthalpy=                  0.064412
 Thermal correction to Gibbs Free Energy=         0.015947
 Sum of electronic and zero-point Energies=          -1199.887520
 Sum of electronic and thermal Energies=             -1199.877210
 Sum of electronic and thermal Enthalpies=           -1199.876266
 Sum of electronic and thermal Free Energies=        -1199.924730

                     E (Thermal)             CV                S
                      KCal/Mol        Cal/Mol-Kelvin    Cal/Mol-Kelvin
 Total                   39.827             35.986            102.003
 Electronic               0.000              0.000              0.000
 Translational            0.889              2.981             41.783
 Rotational               0.889              2.981             30.078
 Vibrational             38.049             30.024             30.141
 Vibration     1          0.593              1.985              6.221
 Vibration     2          0.598              1.969              4.161
 Vibration     3          0.611              1.925              2.977
 Vibration     4          0.635              1.850              2.202
 Vibration     5          0.648              1.809              1.949
 Vibration     6          0.656              1.783              1.822
 Vibration     7          0.682              1.704              1.512
 Vibration     8          0.705              1.639              1.319
 Vibration     9          0.708              1.629              1.293
 Vibration    10          0.739              1.542              1.097
 Vibration    11          0.747              1.521              1.055
 Vibration    12          0.806              1.369              0.807
 Vibration    13          0.855              1.251              0.659
 Vibration    14          0.863              1.233              0.639
 Vibration    15          0.899              1.154              0.557
 Vibration    16          0.968              1.013              0.435

 Optimization completed.
    -- Stationary point found.
 Normal termination of Gaussian 16 at Sat May 24 06:39:05 2025.
