 Gaussian 16, Revision C.01,
 Gaussian 16:  ES64L-G16RevC.01  3-Jul-2019

 ----------------------------------------------------------------------
 #P M062X/Def2TZVPP Symm(None) scf(xqc) pop(None) opt(NoFreeze,TS,CalcA
 ll,NoEigentest,MaxCycle=999)
 ----------------------------------------------------------------------

 ------------------------------
 Gaussian input prepared by ASE
 ------------------------------
 Symbolic Z-matrix:
 Charge =  0 Multiplicity = 1

 SCF Done:  E(RM062X) =  -1199.85140641     A.U. after   13 cycles
 SCF Done:  E(RM062X) =  -1199.86237814     A.U. after   13 cycles
 SCF Done:  E(RM062X) =  -1199.87877973     A.U. after   12 cycles
 SCF Done:  E(RM062X) =  -1199.88399764     A.U. after   13 cycles
 SCF Done:  E(RM062X) =  -1199.88449380     A.U. after   12 cycles
 SCF Done:  E(RM062X) =  -1199.88455358     A.U. after   11 cycles
 SCF Done:  E(RM062X) =  -1199.88455942     A.U. after   10 cycles

 Isotropic polarizability for W=    0.000000       54.02 Bohr**3.
 End of Minotr F.D. properties file   721 does not exist.

 Optimization completed.
    -- Stationary point found.

                          Input orientation:
 ---------------------------------------------------------------------
 Center     Atomic      Atomic             Coordinates (Angstroms)
 Number     Number       Type             X           Y           Z
 ---------------------------------------------------------------------
      1          6           0       -0.612438   -1.308154    0.247118
      2          6           0        0.005637    0.106970    0.149134
      3          9           0       -0.352713    0.661382   -1.004941
      4          9           0       -0.436985    0.849020    1.161205
      5         16           0        1.847739    0.105033    0.227353
      6          8           0        2.221528   -0.637977    1.368097
      7          8           0        2.341310   -0.281838   -1.132544
      8          8           0        2.234177    1.545888    0.088935
      9          9           0       -0.022112   -2.113111   -0.624652
     10          9           0       -0.466803   -1.794959    1.464333
     11          9           0       -1.903009   -1.230371   -0.037366
     12          1           0        2.591608    0.977708   -1.012478
 ---------------------------------------------------------------------

 ******    1 imaginary frequencies (negative Signs) ******

                      1                      2                      3
                      A                      A                      A
 Frequencies --  -1852.2567                39.2248                64.1976
 Red. masses --      1.0960                15.8298                15.1541
 Frc consts  --      2.2154                 0.0143                 0.0368
 IR Inten    --    590.3508                 0.4562                 0.1728

                      4                      5                      6
                      A                      A                      A
 Frequencies --    125.8822               193.4649               221.3149
 Red. masses --     16.0408                13.9426                18.4801
 Frc consts  --      0.1498                 0.3075                 0.5333
 IR Inten    --      0.5499                 2.6684                 1.1349

                      7                      8                      9
                      A                      A                      A
 Frequencies --    233.9699               282.6147               309.4264
 Red. masses --     14.7976                15.1943                17.0992
 Frc consts  --      0.4773                 0.7150                 0.9646
 IR Inten    --      3.0845                 2.2747                 0.3509

                     10                     11                     12
                      A                      A                      A
 Frequencies --    333.9345               375.7616               447.0797
 Red. masses --     17.9312                18.4146                17.5812
 Frc consts  --      1.1781                 1.5319                 2.0705
 IR Inten    --      0.2583                 0.2173                 9.1151

                     13                     14                     15
                      A                      A                      A
 Frequencies --    497.8291               536.1759               570.5473
 Red. masses --     17.9485                12.7865                10.8334
 Frc consts  --      2.6208                 2.1658                 2.0778
 IR Inten    --     11.8947                34.8396                12.9503

                     16                     17                     18
                      A                      A                      A
 Frequencies --    608.1398               661.5236               712.9832
 Red. masses --     16.8738                15.9762                15.1394
 Frc consts  --      3.6768                 4.1192                 4.5344
 IR Inten    --      4.4994                15.4357               131.7538

                     19                     20                     21
                      A                      A                      A
 Frequencies --    786.3267               965.5069              1007.1036
 Red. masses --     14.3998                 1.2488                10.4018
 Frc consts  --      5.2458                 0.6859                 6.2159
 IR Inten    --      4.7868               141.7989                96.4260

                     22                     23                     24
                      A                      A                      A
 Frequencies --   1105.6702              1196.0611              1217.0411
 Red. masses --     12.7969                11.1896                13.0820
 Frc consts  --      9.2174                 9.4313                11.4165
 IR Inten    --     46.1483               117.0849               304.7618

                     25                     26                     27
                      A                      A                      A
 Frequencies --   1275.3206              1295.2984              1308.4587
 Red. masses --     13.0455                12.9323                13.1681
 Frc consts  --     12.5011                12.7839                13.2829
 IR Inten    --     89.5186               270.3435               275.4902

                     28                     29                     30
                      A                      A                      A
 Frequencies --   1388.4877              1440.3231              2202.4040
 Red. masses --     12.6587                17.1987                 1.0292
 Frc consts  --     14.3788                21.0216                 2.9414
 IR Inten    --    105.3740               343.9278               157.6045

 - Thermochemistry -
 -------------------
 Temperature   298.150 Kelvin.  Pressure   1.00000 Atm.
 Atom     1 has atomic number  6 and mass  12.00000

 Molecular mass:   199.95666 amu.
 Principal axes and moments of inertia in atomic units:
                           1         2         3
     Eigenvalues --  1108.061722154.600092275.56407
           X            0.86871  -0.49117  -0.06401
           Y            0.49148   0.83865   0.23478
           Z           -0.06163  -0.23541   0.96994
 This molecule is an asymmetric top.
 Rotational symmetry number  1.
 Warning -- assumption of classical behavior for rotation
           may cause significant error
 Rotational temperatures (Kelvin)      0.07817     0.04020     0.03806
 Rotational constants (GHZ):           1.62874     0.83762     0.79310
    1 imaginary frequencies ignored.
 Zero-point vibrational energy     128012.8 (Joules/Mol)
                                   30.59580 (Kcal/Mol)
 Warning -- explicit consideration of  15 degrees of freedom as
           vibrations may cause significant error
 Vibrational temperatures:     56.44    92.37   181.12   278.35   318.42
          (Kelvin)            336.63   406.62   445.20   480.46   540.64
                              643.25   716.27   771.44   820.89   874.98
                              951.78  1025.82  1131.35  1389.15  1449.00
                             1590.81  1720.87  1751.05  1834.90  1863.65
                             1882.58  1997.72  2072.30  3168.77

 Zero-point correction=                           0.048758 (Hartree/Particle)
 Thermal correction to Energy=                    0.058638
 Thermal correction to Enthalpy=                  0.059582
 Thermal correction to Gibbs Free Energy=         0.012086
 Sum of electronic and zero-point Energies=          -1199.835802
 Sum of electronic and thermal Energies=             -1199.825921
 Sum of electronic and thermal Enthalpies=           -1199.824977
 Sum of electronic and thermal Free Energies=        -1199.872473

                     E (Thermal)             CV                S
                      KCal/Mol        Cal/Mol-Kelvin    Cal/Mol-Kelvin
 Total                   36.796             34.189             99.964
 Electronic               0.000              0.000              0.000
 Translational            0.889              2.981             41.783
 Rotational               0.889              2.981             30.075
 Vibrational             35.018             28.227             28.106
 Vibration     1          0.594              1.981              5.298
 Vibration     2          0.597              1.971              4.324
 Vibration     3          0.611              1.927              3.008
 Vibration     4          0.635              1.849              2.194
 Vibration     5          0.648              1.809              1.948
 Vibration     6          0.654              1.789              1.848
 Vibration     7          0.682              1.706              1.518
 Vibration     8          0.699              1.656              1.365
 Vibration     9          0.715              1.608              1.241
 Vibration    10          0.747              1.522              1.056
 Vibration    11          0.806              1.367              0.805
 Vibration    12          0.853              1.255              0.664
 Vibration    13          0.891              1.170              0.574
 Vibration    14          0.927              1.095              0.503
 Vibration    15          0.967              1.015              0.436

 Normal termination of Gaussian 16 at Sat May 24 01:11:24 2025.
