 Gaussian 16, Revision C.01,
 Gaussian 16:  ES64L-G16RevC.01  3-Jul-2019

 ----------------------------------------------------------------------
 #P M062X/Def2TZVPP Symm(None) scf(xqc) pop(None) geom(AllCheck,NoKeepC
 onstants) guess(Read) irc(RCFC,reverse,MaxPoints=100,StepSize=2)
 ----------------------------------------------------------------------

 Structure from the checkpoint file:  "2003846667223680600001_r12_insertion_R_1_2_5_IRC_R.chk"
 ------------------------------
 Gaussian input prepared by ASE
 ------------------------------
 Charge =  0 Multiplicity = 1

 SCF Done:  E(RM062X) =  -1199.77779246     A.U. after   10 cycles
 SCF Done:  E(RM062X) =  -1199.77807175     A.U. after   11 cycles
 SCF Done:  E(RM062X) =  -1199.77853549     A.U. after   11 cycles
 SCF Done:  E(RM062X) =  -1199.77918107     A.U. after   11 cycles
 SCF Done:  E(RM062X) =  -1199.78000487     A.U. after   11 cycles
 SCF Done:  E(RM062X) =  -1199.78100231     A.U. after   11 cycles
 SCF Done:  E(RM062X) =  -1199.78216787     A.U. after   11 cycles
 SCF Done:  E(RM062X) =  -1199.78349523     A.U. after   11 cycles
 SCF Done:  E(RM062X) =  -1199.78497739     A.U. after   11 cycles
 SCF Done:  E(RM062X) =  -1199.78660679     A.U. after   11 cycles
 SCF Done:  E(RM062X) =  -1199.93065164     A.U. after    9 cycles
 SCF Done:  E(RM062X) =  -1199.93120271     A.U. after    9 cycles
 SCF Done:  E(RM062X) =  -1199.93173795     A.U. after    9 cycles
 SCF Done:  E(RM062X) =  -1199.93225742     A.U. after    9 cycles
 SCF Done:  E(RM062X) =  -1199.93276115     A.U. after    9 cycles
 SCF Done:  E(RM062X) =  -1199.93324917     A.U. after    9 cycles
 SCF Done:  E(RM062X) =  -1199.93372151     A.U. after    9 cycles
 SCF Done:  E(RM062X) =  -1199.93417817     A.U. after    9 cycles
 SCF Done:  E(RM062X) =  -1199.93461917     A.U. after    9 cycles
 SCF Done:  E(RM062X) =  -1199.93504448     A.U. after    9 cycles

                          Input orientation:
 ---------------------------------------------------------------------
 Center     Atomic      Atomic             Coordinates (Angstroms)
 Number     Number       Type             X           Y           Z
 ---------------------------------------------------------------------
      1          6           0       -1.184065   -0.861049    0.092891
      2          6           0       -0.497616    0.490839   -0.044365
      3          9           0       -0.916579    1.048449   -1.184492
      4          9           0       -0.905490    1.266438    0.958699
      5         16           0        1.412192    0.282054   -0.018114
      6          8           0        1.809282   -0.015522    1.305009
      7          8           0        1.874614   -0.498172   -1.113017
      8          8           0        1.721456    1.795096   -0.313267
      9          9           0       -0.835829   -1.636747   -0.920023
     10          9           0       -0.817166   -1.429235    1.228643
     11          9           0       -2.495396   -0.669567    0.084791
     12          1           0        1.985022    1.904169   -1.238139
 ---------------------------------------------------------------------

 Normal termination of Gaussian 16 at Sat May 24 05:35:36 2025.
